
                                 *****************
                                 * O   R   C   A *
                                 *****************

                                            #,                                       
                                            ###                                      
                                            ####                                     
                                            #####                                    
                                            ######                                   
                                           ########,                                 
                                     ,,################,,,,,                         
                               ,,#################################,,                 
                          ,,##########################################,,             
                       ,#########################################, ''#####,          
                    ,#############################################,,   '####,        
                  ,##################################################,,,,####,       
                ,###########''''           ''''###############################       
              ,#####''   ,,,,##########,,,,          '''####'''          '####       
            ,##' ,,,,###########################,,,                        '##       
           ' ,,###''''                  '''############,,,                           
         ,,##''                                '''############,,,,        ,,,,,,###''
      ,#''                                            '''#######################'''  
     '                                                          ''''####''''         
             ,#######,   #######,   ,#######,      ##                                
            ,#'     '#,  ##    ##  ,#'     '#,    #''#        ,####,   ,####,        
            ##       ##  ##   ,#'  ##            #'  '#       #'       #'  '#        
            ##       ##  #######   ##           ,######,      #####,   #    #        
            '#,     ,#'  ##    ##  '#,     ,#' ,#      #,     #,   #   #,  ,#        
             '#######'   ##     ##  '#######'  #'      '#     '####' # '####'        



                #########################################################
                #                        -***-                          #
                #          Department of theory and spectroscopy        #
                #                                                       #
                #                      Frank Neese                      #
                #                                                       #
                #     Directorship, Architecture, Infrastructure        #
                #                    SHARK, DRIVERS                     #
                #        Core code/Algorithms in most modules           #
                #                                                       #
                #        Max Planck Institute fuer Kohlenforschung      #
                #                Kaiser Wilhelm Platz 1                 #
                #                 D-45470 Muelheim/Ruhr                 #
                #                      Germany                          #
                #                                                       #
                #                  All rights reserved                  #
                #                        -***-                          #
                #########################################################


                         Program Version 6.0.0  -   RELEASE   -


 With contributions from (in alphabetic order):
   Daniel Aravena         : Magnetic Suceptibility
   Michael Atanasov       : Ab Initio Ligand Field Theory (pilot matlab implementation)
   Alexander A. Auer      : GIAO ZORA, VPT2 properties, NMR spectrum
   Ute Becker             : All parallelization in ORCA, NUMFREQ, NUMCALC
   Giovanni Bistoni       : ED, misc. LED, open-shell LED, HFLD
   Martin Brehm           : Molecular dynamics
   Dmytro Bykov           : pre 5.0 version of the SCF Hessian
   Marcos Casanova-Páez   : Triplet and SCS-CIS(D). UHF-(DLPNO)-IP/EA/STEOM-CCSD. UHF-CVS-IP/STEOM-CCSD
   Vijay G. Chilkuri      : MRCI spin determinant printing, contributions to CSF-ICE
   Pauline Colinet        : FMM embedding
   Dipayan Datta          : RHF DLPNO-CCSD density
   Achintya Kumar Dutta   : EOM-CC, STEOM-CC
   Nicolas Foglia         : Exact transition moments, OPA infrastructure, MCD improvements
   Dmitry Ganyushin       : Spin-Orbit,Spin-Spin,Magnetic field MRCI
   Miquel Garcia          : C-PCM and meta-GGA Hessian, CCSD/C-PCM, Gaussian charge scheme
   Tiago L. C. Gouveia    : GS-ROHF, GS-ROCIS
   Yang Guo               : DLPNO-NEVPT2, F12-NEVPT2, CIM, IAO-localization
   Andreas Hansen         : Spin unrestricted coupled pair/coupled cluster methods
   Ingolf Harden          : AUTO-CI MPn and infrastructure 
   Benjamin Helmich-Paris : MC-RPA, TRAH-(SCF,CASSCF), AVAS, COSX integrals, SCF dyn. polar.
   Lee Huntington         : MR-EOM, pCC
   Robert Izsak           : Overlap fitted RIJCOSX, COSX-SCS-MP3, EOM
   Riya Kayal             : Wick's Theorem for AUTO-CI, AUTO-CI UHF-CCSDT
   Emily Kempfer          : AUTO-CI, RHF CISDT and CCSDT
   Christian Kollmar      : KDIIS, OOCD, Brueckner-CCSD(T), CCSD density, CASPT2, CASPT2-K, improved NEVPT2
   Axel Koslowski         : Symmetry handling
   Simone Kossmann        : Meta GGA functionals, TD-DFT gradient, OOMP2, (MP2 Hessian; deprecated post 5.0)
   Lucas Lang             : DCDCAS
   Marvin Lechner         : AUTO-CI (C++ implementation), FIC-MRCC
   Spencer Leger          : CASSCF response
   Dagmar Lenk            : GEPOL surface, SMD, ORCA-2-JSON
   Dimitrios Liakos       : Extrapolation schemes; Compound Job, initial MDCI parallelization
   Dimitrios Manganas     : Further ROCIS development; embedding schemes. LFT, Crystal Embedding
   Dimitrios Pantazis     : SARC Basis sets
   Anastasios Papadopoulos: AUTO-CI, single reference methods and gradients
   Taras Petrenko         : pre 6.0 DFT Hessian and TD-DFT gradient, (ASA, deprecated), ECA, 1-Electron XAS/XES, NRVS
   Peter Pinski           : DLPNO-MP2, DLPNO-MP2 Gradient
   Christoph Reimann      : Effective Core Potentials
   Marius Retegan         : Local ZFS, SOC
   Christoph Riplinger    : Optimizer, TS searches, QM/MM, DLPNO-CCSD(T), (RO)-DLPNO pert. Triples
   Michael Roemelt        : Original ROCIS implementation
   Masaaki Saitow         : Open-shell DLPNO-CCSD energy and density
   Barbara Sandhoefer     : DKH picture change effects
   Kantharuban Sivalingam : CASSCF convergence/infrastructure, NEVPT2 and variants, FIC-MRCI
   Bernardo de Souza      : ESD, SOC TD-DFT
   Georgi Stoychev        : AutoAux, RI-MP2 NMR, DLPNO-MP2 response, X2C
   Van Anh Tran           : RI-MP2 g-tensors
   Willem Van den Heuvel  : Paramagnetic NMR
   Zikuan Wang            : NOTCH, Electric field optimization 
   Frank Wennmohs         : Technical directorship and infrastructure
   Hang Xu                : AUTO-CI-Response properties 


 We gratefully acknowledge several colleagues who have allowed us to
 interface, adapt or use parts of their codes:
   Stefan Grimme, W. Hujo, H. Kruse, P. Pracht,  : VdW corrections, initial TS optimization,
                  C. Bannwarth, S. Ehlert,         DFT functionals, gCP, sTDA/sTD-DF
                  L. Wittmann, M. Mueller
   Ed Valeev, F. Pavosevic, A. Kumar             : LibInt (2-el integral package), F12 methods
   Garnet Chan, S. Sharma, J. Yang, R. Olivares  : DMRG
   Ulf Ekstrom                                   : XCFun DFT Library
   Mihaly Kallay                                 : mrcc  (arbitrary order and MRCC methods)
   Frank Weinhold                                : gennbo (NPA and NBO analysis)
   Simon Mueller                                 : openCOSMO-RS
   Christopher J. Cramer and Donald G. Truhlar   : smd solvation model
   Lars Goerigk                                  : TD-DFT with DH, B97 family of functionals
   V. Asgeirsson, H. Jonsson                     : NEB implementation
   FAccTs GmbH                                   : IRC, NEB, NEB-TS, DLPNO-Multilevel, CI-OPT
                                                   MM, QMMM, 2- and 3-layer-ONIOM, Crystal-QMMM,
                                                   LR-CPCM, SF, NACMEs, symmetry and pop. for TD-DFT,
                                                   nearIR, NL-DFT gradient (VV10), updates on ESD,
                                                   ML-optimized integration grids, MBIS, APM,
                                                   GOAT, DOCKER, SOLVATOR, interface openCOSMO-RS
   S Lehtola, MJT Oliveira, MAL Marques          : LibXC Library
   Liviu Ungur et al                             : ANISO software


 Your calculation uses the libint2 library for the computation of 2-el integrals
 For citations please refer to: http://libint.valeyev.net

 Your ORCA version has been built with support for libXC version: 6.2.2
 For citations please refer to: https://libxc.gitlab.io

 This ORCA versions uses:
   CBLAS   interface :  Fast vector & matrix operations
   LAPACKE interface :  Fast linear algebra routines
   Shared memory     :  Shared parallel matrices


Your calculation utilizes the atom-pairwise dispersion correction
with the Becke-Johnson damping scheme (D3BJ)


Warning: RI is on but no J-basis has been assigned. Assigning Def2/J (nothing to worry about!)
================================================================================

----- Orbital basis set information -----
Your calculation utilizes the basis: def2-SVP
   F. Weigend and R. Ahlrichs, Phys. Chem. Chem. Phys. 7, 3297 (2005).

----- AuxJ basis set information -----
Your calculation utilizes the auxiliary basis: def2/J
   F. Weigend, Phys. Chem. Chem. Phys. 8, 1057 (2006).

================================================================================
                                        WARNINGS
                       Please study these warnings very carefully!
================================================================================


WARNING: Geometry Optimization
  ===> : Switching off AutoStart
         For restart on a previous wavefunction, please use MOREAD

================================================================================
                                       INPUT FILE
================================================================================
NAME = data/geom_opt_PO_BP86/137699/137699.inp
|  1> ! RI BP86 def2-SVP D3BJ TIGHTSCF Opt
|  2> %pal
|  3> nprocs 6
|  4> end
|  5> 
|  6> * xyz 0 1
|  7> C     -2.822842   -2.871262    0.265035
|  8> C     -1.811093   -2.559138   -0.554492
|  9> C     -0.440372   -2.157229   -0.095075
| 10> P      0.083319   -0.599740   -0.897053
| 11> O      0.094344   -0.827125   -2.397932
| 12> C     -1.010732    0.730828   -0.406850
| 13> C     -1.663813    0.760617    0.832762
| 14> C     -2.498235    1.828286    1.171321
| 15> C     -2.688946    2.878332    0.275697
| 16> C     -2.047619    2.862240   -0.960166
| 17> C     -1.214487    1.795505   -1.298205
| 18> C      1.715060   -0.243172   -0.242102
| 19> C      1.921441    0.027483    1.117793
| 20> C      3.203843    0.294294    1.601238
| 21> C      4.292785    0.292518    0.731842
| 22> C      4.101575    0.025604   -0.621786
| 23> C      2.820256   -0.240377   -1.105439
| 24> H     -2.716600   -2.859235    1.344926
| 25> H     -3.791687   -3.152917   -0.138216
| 26> H     -1.970515   -2.592177   -1.632437
| 27> H     -0.392729   -2.051005    0.993274
| 28> H      0.273848   -2.936673   -0.382256
| 29> H     -1.535475   -0.046197    1.548142
| 30> H     -3.002991    1.840416    2.134099
| 31> H     -3.339908    3.707913    0.539057
| 32> H     -2.196892    3.677584   -1.663324
| 33> H     -0.720282    1.786196   -2.268946
| 34> H      1.086389    0.038923    1.812654
| 35> H      3.354283    0.507385    2.656681
| 36> H      5.290676    0.502216    1.108344
| 37> H      4.948856    0.026116   -1.302856
| 38> H      2.678544   -0.446207   -2.165730
| 39> **                         ****END OF INPUT****
================================================================================

                       *****************************
                       * Geometry Optimization Run *
                       *****************************

Geometry optimization settings:
Update method            Update   .... BFGS
Choice of coordinates    CoordSys .... (2022) Redundant Internals
Initial Hessian          InHess   .... Almloef's Model
Max. no of cycles        MaxIter  .... 96

Convergence Tolerances:
Energy Change            TolE     ....  5.0000e-06 Eh
Max. Gradient            TolMAXG  ....  3.0000e-04 Eh/bohr
RMS Gradient             TolRMSG  ....  1.0000e-04 Eh/bohr
Max. Displacement        TolMAXD  ....  4.0000e-03 bohr
RMS Displacement         TolRMSD  ....  2.0000e-03 bohr
Strict Convergence                .... False

------------------------------------------------------------------------------
                        ORCA OPTIMIZATION COORDINATE SETUP
------------------------------------------------------------------------------

The optimization will be done in redundant internal coordinates (2022)
Making redundant internal coordinates   ...  (2022 redundants) done
Evaluating the initial hessian          ...  (Almloef) done
Evaluating the coordinates              ...  done
Calculating the B-matrix                .... done
Calculating the G-matrix                .... done
Diagonalizing the G-matrix              .... done
Small eigenvalue found = 6.710e-03
Small eigenvalue found = 8.190e-03
Small eigenvalue found = 9.768e-03
Small eigenvalue found = 2.452e-02
Small eigenvalue found = 2.917e-02
The first mode is                       ....   70
The number of degrees of freedom        ....   90

    -----------------------------------------------------------------
                    Redundant Internal Coordinates


    -----------------------------------------------------------------
         Definition                    Initial Value    Approx d2E/dq
    -----------------------------------------------------------------
      1. B(C   1,C   0)                  1.3389         0.753786   
      2. B(C   2,C   1)                  1.5005         0.416350   
      3. B(P   3,C   2)                  1.8284         0.419498   
      4. B(O   4,P   3)                  1.5180         1.175115   
      5. B(C   5,P   3)                  1.7910         0.481363   
      6. B(C   6,C   5)                  1.4014         0.599078   
      7. B(C   7,C   6)                  1.3967         0.609583   
      8. B(C   8,C   7)                  1.3932         0.617410   
      9. B(C   9,C   8)                  1.3924         0.619199   
     10. B(C  10,C   9)                  1.3951         0.613200   
     11. B(C  10,C   5)                  1.4034         0.594757   
     12. B(C  11,P   3)                  1.7941         0.475957   
     13. B(C  12,C  11)                  1.4018         0.598198   
     14. B(C  13,C  12)                  1.3962         0.610656   
     15. B(C  14,C  13)                  1.3934         0.616973   
     16. B(C  15,C  14)                  1.3929         0.618222   
     17. B(C  16,C  15)                  1.3952         0.613086   
     18. B(C  16,C  11)                  1.4024         0.596902   
     19. B(H  17,C   0)                  1.0852         0.366545   
     20. B(H  18,C   0)                  1.0866         0.364686   
     21. B(H  19,C   1)                  1.0902         0.359874   
     22. B(H  20,C   2)                  1.0946         0.354121   
     23. B(H  21,C   2)                  1.0955         0.352900   
     24. B(H  22,C   6)                  1.0859         0.365559   
     25. B(H  23,C   7)                  1.0871         0.363907   
     26. B(H  24,C   8)                  1.0869         0.364247   
     27. B(H  25,C   9)                  1.0870         0.364133   
     28. B(H  26,C  10)                  1.0893         0.360973   
     29. B(H  27,C  12)                  1.0864         0.364888   
     30. B(H  28,C  13)                  1.0872         0.363826   
     31. B(H  29,C  14)                  1.0870         0.364125   
     32. B(H  30,C  15)                  1.0871         0.363984   
     33. B(H  31,C  16)                  1.0893         0.360972   
     34. A(H  17,C   0,H  18)          117.3544         0.292233   
     35. A(C   1,C   0,H  18)          120.4679         0.365633   
     36. A(C   1,C   0,H  17)          122.1774         0.365952   
     37. A(C   0,C   1,H  19)          119.1864         0.364803   
     38. A(C   0,C   1,C   2)          124.4254         0.418585   
     39. A(C   2,C   1,H  19)          116.3882         0.330130   
     40. A(H  20,C   2,H  21)          107.5375         0.289159   
     41. A(C   1,C   2,H  21)          108.9495         0.329064   
     42. A(C   1,C   2,H  20)          111.7278         0.329252   
     43. A(P   3,C   2,H  21)          107.7192         0.349905   
     44. A(P   3,C   2,H  20)          109.9373         0.350109   
     45. A(C   1,C   2,P   3)          110.8247         0.402166   
     46. A(O   4,P   3,C  11)          112.5879         0.528182   
     47. A(C   2,P   3,C  11)          105.6448         0.439221   
     48. A(O   4,P   3,C   5)          112.7261         0.529306   
     49. A(C   2,P   3,C   5)          109.7441         0.440117   
     50. A(C   5,P   3,C  11)          107.9398         0.450297   
     51. A(C   2,P   3,O   4)          107.9473         0.515808   
     52. A(C   6,C   5,C  10)          118.5555         0.428189   
     53. A(P   3,C   5,C   6)          122.8578         0.439803   
     54. A(P   3,C   5,C  10)          118.5846         0.439229   
     55. A(C   5,C   6,C   7)          120.6010         0.430085   
     56. A(C   7,C   6,H  22)          118.6117         0.352796   
     57. A(C   5,C   6,H  22)          120.7869         0.351760   
     58. A(C   8,C   7,H  23)          119.8240         0.353287   
     59. A(C   6,C   7,H  23)          120.0383         0.352525   
     60. A(C   6,C   7,C   8)          120.1374         0.432420   
     61. A(C   9,C   8,H  24)          119.9821         0.353516   
     62. A(C   7,C   8,H  24)          120.0975         0.353343   
     63. A(C   7,C   8,C   9)          119.9201         0.433638   
     64. A(C   8,C   9,C  10)          119.9300         0.433105   
     65. A(C  10,C   9,H  25)          119.9220         0.352916   
     66. A(C   8,C   9,H  25)          120.1478         0.353498   
     67. A(C   5,C  10,C   9)          120.8559         0.429983   
     68. A(C   9,C  10,H  26)          119.5633         0.352395   
     69. A(C   5,C  10,H  26)          119.5798         0.350581   
     70. A(C  12,C  11,C  16)          118.7361         0.428353   
     71. A(P   3,C  11,C  16)          119.4995         0.438620   
     72. A(P   3,C  11,C  12)          121.7635         0.438791   
     73. A(C  13,C  12,H  27)          118.8489         0.352791   
     74. A(C  11,C  12,H  27)          120.6193         0.351563   
     75. A(C  11,C  12,C  13)          120.5309         0.430107   
     76. A(C  14,C  13,H  28)          119.8555         0.353232   
     77. A(C  12,C  13,H  28)          120.0453         0.352617   
     78. A(C  12,C  13,C  14)          120.0989         0.432501   
     79. A(C  15,C  14,H  29)          119.9742         0.353402   
     80. A(C  13,C  14,H  29)          120.0713         0.353281   
     81. A(C  13,C  14,C  15)          119.9542         0.433460   
     82. A(C  16,C  15,H  30)          119.9151         0.352880   
     83. A(C  14,C  15,H  30)          120.1174         0.353379   
     84. A(C  14,C  15,C  16)          119.9674         0.432968   
     85. A(C  15,C  16,H  31)          119.5327         0.352384   
     86. A(C  11,C  16,H  31)          119.7547         0.350794   
     87. A(C  11,C  16,C  15)          120.7125         0.430246   
     88. D(H  19,C   1,C   0,H  17)    179.6918         0.040561   
     89. D(C   2,C   1,C   0,H  17)     -0.3098         0.040561   
     90. D(C   2,C   1,C   0,H  18)    179.9196         0.040561   
     91. D(H  19,C   1,C   0,H  18)     -0.0789         0.040561   
     92. D(P   3,C   2,C   1,C   0)   -128.7421         0.012825   
     93. D(H  20,C   2,C   1,C   0)     -5.7649         0.012825   
     94. D(H  20,C   2,C   1,H  19)    174.2336         0.012825   
     95. D(P   3,C   2,C   1,H  19)     51.2564         0.012825   
     96. D(H  21,C   2,C   1,C   0)    112.9067         0.012825   
     97. D(C   5,P   3,C   2,H  21)   -177.6090         0.004078   
     98. D(C   5,P   3,C   2,H  20)    -60.7112         0.004078   
     99. D(O   4,P   3,C   2,H  21)     59.1811         0.004078   
    100. D(C   5,P   3,C   2,C   1)     63.2957         0.004078   
    101. D(O   4,P   3,C   2,C   1)    -59.9141         0.004078   
    102. D(O   4,P   3,C   2,H  20)    176.0790         0.004078   
    103. D(C  10,C   5,P   3,O   4)    -30.4669         0.004675   
    104. D(C  10,C   5,P   3,C   2)   -150.8168         0.004675   
    105. D(C   6,C   5,P   3,C  11)    -84.9456         0.004675   
    106. D(C   6,C   5,P   3,O   4)    150.0725         0.004675   
    107. D(C   6,C   5,P   3,C   2)     29.7226         0.004675   
    108. D(H  22,C   6,C   5,C  10)    179.7302         0.024737   
    109. D(H  22,C   6,C   5,P   3)     -0.8090         0.024737   
    110. D(C   7,C   6,C   5,C  10)     -0.0310         0.024737   
    111. D(C   7,C   6,C   5,P   3)    179.4297         0.024737   
    112. D(H  23,C   7,C   6,H  22)      0.0277         0.025662   
    113. D(H  23,C   7,C   6,C   5)    179.7941         0.025662   
    114. D(C   8,C   7,C   6,H  22)   -179.8013         0.025662   
    115. D(C   8,C   7,C   6,C   5)     -0.0349         0.025662   
    116. D(H  24,C   8,C   7,C   6)    179.8831         0.026364   
    117. D(C   9,C   8,C   7,H  23)   -179.7444         0.026364   
    118. D(C   9,C   8,C   7,C   6)      0.0850         0.026364   
    119. D(H  24,C   8,C   7,H  23)      0.0537         0.026364   
    120. D(H  25,C   9,C   8,H  24)     -0.0425         0.026527   
    121. D(H  25,C   9,C   8,C   7)    179.7558         0.026527   
    122. D(C  10,C   9,C   8,H  24)   -179.8667         0.026527   
    123. D(C  10,C   9,C   8,C   7)     -0.0684         0.026527   
    124. D(H  26,C  10,C   9,H  25)     -0.1773         0.025985   
    125. D(C   5,C  10,C   9,H  25)   -179.8230         0.025985   
    126. D(C   5,C  10,C   9,C   8)      0.0016         0.025985   
    127. D(H  26,C  10,C   5,C   6)   -179.5979         0.024363   
    128. D(H  26,C  10,C   5,P   3)      0.9180         0.024363   
    129. D(H  26,C  10,C   9,C   8)    179.6473         0.025985   
    130. D(C   9,C  10,C   5,C   6)      0.0477         0.024363   
    131. D(C   9,C  10,C   5,P   3)   -179.4364         0.024363   
    132. D(C  16,C  11,P   3,O   4)     -1.7977         0.004601   
    133. D(C  16,C  11,P   3,C   2)    115.7889         0.004601   
    134. D(C  12,C  11,P   3,C   5)     53.4985         0.004601   
    135. D(C  12,C  11,P   3,O   4)    178.5627         0.004601   
    136. D(C  12,C  11,P   3,C   2)    -63.8508         0.004601   
    137. D(H  27,C  12,C  11,C  16)    179.6417         0.024661   
    138. D(H  27,C  12,C  11,P   3)     -0.7160         0.024661   
    139. D(C  13,C  12,C  11,C  16)     -0.0088         0.024661   
    140. D(C  13,C  12,C  11,P   3)    179.6335         0.024661   
    141. D(H  28,C  13,C  12,H  27)      0.0819         0.025757   
    142. D(H  28,C  13,C  12,C  11)    179.7385         0.025757   
    143. D(C  14,C  13,C  12,H  27)   -179.7033         0.025757   
    144. D(C  14,C  13,C  12,C  11)     -0.0467         0.025757   
    145. D(H  29,C  14,C  13,H  28)      0.0940         0.026325   
    146. D(H  29,C  14,C  13,C  12)    179.8797         0.026325   
    147. D(C  15,C  14,C  13,H  28)   -179.7164         0.026325   
    148. D(C  15,C  14,C  13,C  12)      0.0693         0.026325   
    149. D(C  16,C  15,C  14,H  29)   -179.8468         0.026438   
    150. D(C  16,C  15,C  14,C  13)     -0.0362         0.026438   
    151. D(H  30,C  15,C  14,H  29)      0.0282         0.026438   
    152. D(H  30,C  15,C  14,C  13)    179.8388         0.026438   
    153. D(H  31,C  16,C  15,H  30)      0.0004         0.025975   
    154. D(H  31,C  16,C  15,C  14)    179.8757         0.025975   
    155. D(C  11,C  16,C  15,H  30)   -179.8951         0.025975   
    156. D(C  11,C  16,C  15,C  14)     -0.0199         0.025975   
    157. D(H  31,C  16,C  11,C  12)   -179.8533         0.024548   
    158. D(H  31,C  16,C  11,P   3)      0.4962         0.024548   
    159. D(C  15,C  16,C  11,C  12)      0.0421         0.024548   
    160. D(C  15,C  16,C  11,P   3)   -179.6085         0.024548   
    -----------------------------------------------------------------

Number of atoms                         .... 32
Number of degrees of freedom            .... 160


         *************************************************************
         *                GEOMETRY OPTIMIZATION CYCLE   1            *
         *************************************************************
---------------------------------
CARTESIAN COORDINATES (ANGSTROEM)
---------------------------------
  C     -2.822842   -2.871262    0.265035
  C     -1.811093   -2.559138   -0.554492
  C     -0.440372   -2.157229   -0.095075
  P      0.083319   -0.599740   -0.897053
  O      0.094344   -0.827125   -2.397932
  C     -1.010732    0.730828   -0.406850
  C     -1.663813    0.760617    0.832762
  C     -2.498235    1.828286    1.171321
  C     -2.688946    2.878332    0.275697
  C     -2.047619    2.862240   -0.960166
  C     -1.214487    1.795505   -1.298205
  C      1.715060   -0.243172   -0.242102
  C      1.921441    0.027483    1.117793
  C      3.203843    0.294294    1.601238
  C      4.292785    0.292518    0.731842
  C      4.101575    0.025604   -0.621786
  C      2.820256   -0.240377   -1.105439
  H     -2.716600   -2.859235    1.344926
  H     -3.791687   -3.152917   -0.138216
  H     -1.970515   -2.592177   -1.632437
  H     -0.392729   -2.051005    0.993274
  H      0.273848   -2.936673   -0.382256
  H     -1.535475   -0.046197    1.548142
  H     -3.002991    1.840416    2.134099
  H     -3.339908    3.707913    0.539057
  H     -2.196892    3.677584   -1.663324
  H     -0.720282    1.786196   -2.268946
  H      1.086389    0.038923    1.812654
  H      3.354283    0.507385    2.656681
  H      5.290676    0.502216    1.108344
  H      4.948856    0.026116   -1.302856
  H      2.678544   -0.446207   -2.165730

----------------------------
CARTESIAN COORDINATES (A.U.)
----------------------------
  NO LB      ZA    FRAG     MASS         X           Y           Z
   0 C     6.0000    0    12.011   -5.334398   -5.425899    0.500844
   1 C     6.0000    0    12.011   -3.422470   -4.836070   -1.047838
   2 C     6.0000    0    12.011   -0.832182   -4.076572   -0.179666
   3 P    15.0000    0    30.974    0.157450   -1.133344   -1.695184
   4 O     8.0000    0    15.999    0.178284   -1.563040   -4.531435
   5 C     6.0000    0    12.011   -1.910007    1.381065   -0.768835
   6 C     6.0000    0    12.011   -3.144151    1.437358    1.573692
   7 C     6.0000    0    12.011   -4.720980    3.454960    2.213476
   8 C     6.0000    0    12.011   -5.081372    5.439259    0.520992
   9 C     6.0000    0    12.011   -3.869439    5.408850   -1.814451
  10 C     6.0000    0    12.011   -2.295048    3.393013   -2.453252
  11 C     6.0000    0    12.011    3.240994   -0.459528   -0.457506
  12 C     6.0000    0    12.011    3.630997    0.051935    2.112323
  13 C     6.0000    0    12.011    6.054386    0.556135    3.025901
  14 C     6.0000    0    12.011    8.112188    0.552779    1.382981
  15 C     6.0000    0    12.011    7.750853    0.048385   -1.175005
  16 C     6.0000    0    12.011    5.329511   -0.454247   -2.088977
  17 H     1.0000    0     1.008   -5.133630   -5.403171    2.541542
  18 H     1.0000    0     1.008   -7.165250   -5.958150   -0.261190
  19 H     1.0000    0     1.008   -3.723734   -4.898505   -3.084859
  20 H     1.0000    0     1.008   -0.742150   -3.875838    1.877016
  21 H     1.0000    0     1.008    0.517498   -5.549508   -0.722359
  22 H     1.0000    0     1.008   -2.901627   -0.087300    2.925564
  23 H     1.0000    0     1.008   -5.674831    3.477882    4.032863
  24 H     1.0000    0     1.008   -6.311511    7.006940    1.018670
  25 H     1.0000    0     1.008   -4.151524    6.949627   -3.143227
  26 H     1.0000    0     1.008   -1.361136    3.375421   -4.287687
  27 H     1.0000    0     1.008    2.052978    0.073554    3.425420
  28 H     1.0000    0     1.008    6.338676    0.958819    5.020400
  29 H     1.0000    0     1.008    9.997929    0.949051    2.094467
  30 H     1.0000    0     1.008    9.351983    0.049352   -2.462041
  31 H     1.0000    0     1.008    5.061715   -0.843209   -4.092637

--------------------------------
INTERNAL COORDINATES (ANGSTROEM)
--------------------------------
 C      0   0   0     0.000000000000     0.00000000     0.00000000
 C      1   0   0     1.338910726713     0.00000000     0.00000000
 C      2   1   0     1.500490214567   124.42540911     0.00000000
 P      3   2   1     1.828440034862   110.82468293   231.25793955
 O      4   3   2     1.518045869363   107.94729122   300.08586237
 C      4   3   2     1.790993516022   109.74413072    63.29569786
 C      6   4   3     1.401442145658   122.85781752    29.72262824
 C      7   6   4     1.396710193321   120.60101123   179.42973659
 C      8   7   6     1.393237107248   120.13742286   359.96506022
 C      9   8   7     1.392449865583   119.92011946     0.08502718
 C     10   9   8     1.395099586112   119.92995988   359.93160893
 C      4   3   2     1.794068070644   105.64484211   179.42273734
 C     12   4   3     1.401842236919   121.76349322   296.14919362
 C     13  12   4     1.396231380306   120.53087726   179.63353285
 C     14  13  12     1.393430026358   120.09890436   359.95327901
 C     15  14  13     1.392879431207   119.95420387     0.06928631
 C     16  15  14     1.395150349077   119.96743042   359.96382563
 H      1   2   3     1.085171222975   122.17737687   359.69022180
 H      1   2   3     1.086554896014   120.46788806   179.91958544
 H      2   1   3     1.090170799751   119.18640145   180.00153398
 H      3   2   1     1.094557873950   111.72784153   354.23506559
 H      3   2   1     1.095498098719   108.94954683   112.90672438
 H      7   6   4     1.085904239443   120.78690153   359.19098363
 H      8   7   6     1.087137173369   120.03833746   179.79411089
 H      9   8   7     1.086882997661   120.09745201   179.88311627
 H     10   9   8     1.086968003130   120.14782932   179.75582573
 H     11  10   9     1.089340777070   119.56332001   179.64727070
 H     13  12   4     1.086404402433   120.61931440   359.28401038
 H     14  13  12     1.087198185305   120.04525516   179.73853366
 H     15  14  13     1.086974450063   120.07132298   179.87970916
 H     16  15  14     1.087079435922   120.11738091   179.83880530
 H     17  16  15     1.089341674832   119.53270829   179.87567491

---------------------------
INTERNAL COORDINATES (A.U.)
---------------------------
 C      0   0   0     0.000000000000     0.00000000     0.00000000
 C      1   0   0     2.530174591256     0.00000000     0.00000000
 C      2   1   0     2.835515572160   124.42540911     0.00000000
 P      3   2   1     3.455250918187   110.82468293   231.25793955
 O      4   3   2     2.868690951827   107.94729122   300.08586237
 C      4   3   2     3.384487252911   109.74413072    63.29569786
 C      6   4   3     2.648341847828   122.85781752    29.72262824
 C      7   6   4     2.639399753832   120.60101123   179.42973659
 C      8   7   6     2.632836572316   120.13742286   359.96506022
 C      9   8   7     2.631348901167   119.92011946     0.08502718
 C     10   9   8     2.636356147299   119.92995988   359.93160893
 C      4   3   2     3.390297319131   105.64484211   179.42273734
 C     12   4   3     2.649097910741   121.76349322   296.14919362
 C     13  12   4     2.638494928364   120.53087726   179.63353285
 C     14  13  12     2.633201136599   120.09890436   359.95327901
 C     15  14  13     2.632160662554   119.95420387     0.06928631
 C     16  15  14     2.636452075401   119.96743042   359.96382563
 H      1   2   3     2.050676419836   122.17737687   359.69022180
 H      1   2   3     2.053291182937   120.46788806   179.91958544
 H      2   1   3     2.060124250728   119.18640145   180.00153398
 H      3   2   1     2.068414619493   111.72784153   354.23506559
 H      3   2   1     2.070191386810   108.94954683   112.90672438
 H      7   6   4     2.052061620211   120.78690153   359.19098363
 H      8   7   6     2.054391527672   120.03833746   179.79411089
 H      9   8   7     2.053911205195   120.09745201   179.88311627
 H     10   9   8     2.054071842251   120.14782932   179.75582573
 H     11  10   9     2.058555735175   119.56332001   179.64727070
 H     13  12   4     2.053006791284   120.61931440   359.28401038
 H     14  13  12     2.054506823522   120.04525516   179.73853366
 H     15  14  13     2.054084025188   120.07132298   179.87970916
 H     16  15  14     2.054282419711   120.11738091   179.83880530
 H     17  16  15     2.058557431699   119.53270829   179.87567491

---------------------
BASIS SET INFORMATION
---------------------
There are 4 groups of distinct atoms

 Group   1 Type C   : 7s4p1d contracted to 3s2p1d pattern {511/31/1}
 Group   2 Type P   : 10s7p1d contracted to 4s3p1d pattern {5311/511/1}
 Group   3 Type O   : 7s4p1d contracted to 3s2p1d pattern {511/31/1}
 Group   4 Type H   : 4s1p contracted to 2s1p pattern {31/1}

Atom   0C    basis set group =>   1
Atom   1C    basis set group =>   1
Atom   2C    basis set group =>   1
Atom   3P    basis set group =>   2
Atom   4O    basis set group =>   3
Atom   5C    basis set group =>   1
Atom   6C    basis set group =>   1
Atom   7C    basis set group =>   1
Atom   8C    basis set group =>   1
Atom   9C    basis set group =>   1
Atom  10C    basis set group =>   1
Atom  11C    basis set group =>   1
Atom  12C    basis set group =>   1
Atom  13C    basis set group =>   1
Atom  14C    basis set group =>   1
Atom  15C    basis set group =>   1
Atom  16C    basis set group =>   1
Atom  17H    basis set group =>   4
Atom  18H    basis set group =>   4
Atom  19H    basis set group =>   4
Atom  20H    basis set group =>   4
Atom  21H    basis set group =>   4
Atom  22H    basis set group =>   4
Atom  23H    basis set group =>   4
Atom  24H    basis set group =>   4
Atom  25H    basis set group =>   4
Atom  26H    basis set group =>   4
Atom  27H    basis set group =>   4
Atom  28H    basis set group =>   4
Atom  29H    basis set group =>   4
Atom  30H    basis set group =>   4
Atom  31H    basis set group =>   4
---------------------------------
AUXILIARY/J BASIS SET INFORMATION
---------------------------------
There are 4 groups of distinct atoms

 Group   1 Type C   : 12s5p4d2f1g contracted to 6s4p3d1f1g pattern {711111/2111/211/2/1}
 Group   2 Type P   : 14s5p5d2f1g contracted to 8s4p3d1f1g pattern {71111111/2111/311/2/1}
 Group   3 Type O   : 12s5p4d2f1g contracted to 6s4p3d1f1g pattern {711111/2111/211/2/1}
 Group   4 Type H   : 5s2p1d contracted to 3s1p1d pattern {311/2/1}

Atom   0C    basis set group =>   1
Atom   1C    basis set group =>   1
Atom   2C    basis set group =>   1
Atom   3P    basis set group =>   2
Atom   4O    basis set group =>   3
Atom   5C    basis set group =>   1
Atom   6C    basis set group =>   1
Atom   7C    basis set group =>   1
Atom   8C    basis set group =>   1
Atom   9C    basis set group =>   1
Atom  10C    basis set group =>   1
Atom  11C    basis set group =>   1
Atom  12C    basis set group =>   1
Atom  13C    basis set group =>   1
Atom  14C    basis set group =>   1
Atom  15C    basis set group =>   1
Atom  16C    basis set group =>   1
Atom  17H    basis set group =>   4
Atom  18H    basis set group =>   4
Atom  19H    basis set group =>   4
Atom  20H    basis set group =>   4
Atom  21H    basis set group =>   4
Atom  22H    basis set group =>   4
Atom  23H    basis set group =>   4
Atom  24H    basis set group =>   4
Atom  25H    basis set group =>   4
Atom  26H    basis set group =>   4
Atom  27H    basis set group =>   4
Atom  28H    basis set group =>   4
Atom  29H    basis set group =>   4
Atom  30H    basis set group =>   4
Atom  31H    basis set group =>   4


           ************************************************************
           *        Program running with 6 parallel MPI-processes     *
           *              working on a common directory               *
           ************************************************************
------------------------------------------------------------------------------
                             ORCA STARTUP CALCULATIONS
                           -- RI-GTO INTEGRALS CHOSEN --
------------------------------------------------------------------------------
------------------------------------------------------------------------------
                   ___                                                        
                  /   \      - P O W E R E D   B Y -                         
                 /     \                                                     
                 |  |  |   _    _      __       _____    __    __             
                 |  |  |  | |  | |    /  \     |  _  \  |  |  /  |          
                  \  \/   | |  | |   /    \    | | | |  |  | /  /          
                 / \  \   | |__| |  /  /\  \   | |_| |  |  |/  /          
                |  |  |   |  __  | /  /__\  \  |    /   |      \           
                |  |  |   | |  | | |   __   |  |    \   |  |\   \          
                \     /   | |  | | |  |  |  |  | |\  \  |  | \   \       
                 \___/    |_|  |_| |__|  |__|  |_| \__\ |__|  \__/        
                                                                              
                      - O R C A' S   B I G   F R I E N D -                    
                                      &                                       
                       - I N T E G R A L  F E E D E R -                       
                                                                              
 v1 FN, 2020, v2 2021, v3 2022-2024                                           
------------------------------------------------------------------------------


----------------------
SHARK INTEGRAL PACKAGE
----------------------

Number of atoms                             ...     32
Number of basis functions                   ...    317
Number of shells                            ...    149
Maximum angular momentum                    ...      2
Integral batch strategy                     ... SHARK/LIBINT Hybrid
RI-J (if used) integral strategy            ... SPLIT-RIJ (Revised 2003 algorithm where possible)
Printlevel                                  ...      1
Contraction scheme used                     ... SEGMENTED contraction
Prescreening option                         ... SCHWARTZ
   Thresh                                   ... 2.500e-11
   Tcut                                     ... 2.500e-12
   Tpresel                                  ... 2.500e-12 
Coulomb Range Separation                    ... NOT USED
Exchange Range Separation                   ... NOT USED
Multipole approximations                    ... NOT USED
Finite Nucleus Model                        ... NOT USED
CABS basis                                  ... NOT available
Auxiliary Coulomb fitting basis             ... AVAILABLE
   # of basis functions in Aux-J            ...   1000
   # of shells in Aux-J                     ...    332
   Maximum angular momentum in Aux-J        ...      4
Auxiliary J/K fitting basis                 ... NOT available
Auxiliary Correlation fitting basis         ... NOT available
Auxiliary 'external' fitting basis          ... NOT available

Checking pre-screening integrals            ... done (  0.0 sec) Dimension = 149
Check shell pair data                       ... done (  0.0 sec)
Shell pair information
Shell pair cut-off parameter TPreSel        ...   2.5e-12
Total number of shell pairs                 ...     11175
Shell pairs after pre-screening             ...      9035
Total number of primitive shell pairs       ...     41031
Primitive shell pairs kept                  ...     21714
          la=0 lb=0:   2814 shell pairs
          la=1 lb=0:   3377 shell pairs
          la=1 lb=1:   1042 shell pairs
          la=2 lb=0:   1068 shell pairs
          la=2 lb=1:    634 shell pairs
          la=2 lb=2:    100 shell pairs

Calculating one electron integrals          ... done (  0.0 sec)
Calculating RI/J V-Matrix + Cholesky decomp.... done (  0.0 sec)
Calculating Nuclear repulsion               ... done (  0.0 sec) ENN=   1261.478016772222 Eh

Diagonalization of the overlap matrix:
Smallest eigenvalue                        ... 2.839e-04
Time for diagonalization                   ...    0.012 sec
Threshold for overlap eigenvalues          ... 1.000e-07
Number of eigenvalues below threshold      ... 0
Time for construction of square roots      ...    0.008 sec
Total time needed                          ...    0.023 sec

-------------------
DFT GRID GENERATION
-------------------

General Integration Accuracy     IntAcc      ... 4.388
Radial Grid Type                 RadialGrid  ... OptM3 with GC (2021)
Angular Grid (max. ang.)         AngularGrid ... 4 (Lebedev-302)
Angular grid pruning method      GridPruning ... 4 (adaptive)
Weight generation scheme         WeightScheme... mBecke (2022)
Basis function cutoff            BFCut       ... 1.0000e-11
Integration weight cutoff        WCut        ... 1.0000e-14
Partially contracted basis set               ... off
Rotationally invariant grid construction     ... off
Angular grids for H and He will be reduced by one unit

Total number of grid points                  ...   150907
Total number of batches                      ...     2374
Average number of points per batch           ...       63
Average number of grid points per atom       ...     4716
Initializing property integral containers    ... done (  0.0 sec)

SHARK setup successfully completed in   1.1 seconds

Maximum memory used throughout the entire STARTUP-calculation: 41.0 MB


           ************************************************************
           *        Program running with 6 parallel MPI-processes     *
           *              working on a common directory               *
           ************************************************************
-------------------------------------------------------------------------------
                                 ORCA GUESS
                   Start orbitals & Density for SCF / CASSCF
-------------------------------------------------------------------------------

------------
SCF SETTINGS
------------
Hamiltonian:
 Density Functional     Method          .... DFT(GTOs)
 Exchange Functional    Exchange        .... B88
   X-Alpha parameter    XAlpha          ....  0.666667
   Becke's b parameter  XBeta           ....  0.004200
 Correlation Functional Correlation     .... P86
 LDA part of GGA corr.  LDAOpt          .... PW91-LDA
 Gradients option       PostSCFGGA      .... off
   NL short-range parameter             ....  4.400000
 RI-approximation to the Coulomb term is turned on
   Number of AuxJ basis functions       .... 1000


General Settings:
 Integral files         IntName         .... data/geom_opt_PO_BP86/137699/137699
 Hartree-Fock type      HFTyp           .... RHF
 Total Charge           Charge          ....    0
 Multiplicity           Mult            ....    1
 Number of Electrons    NEL             ....  128
 Basis Dimension        Dim             ....  317
 Nuclear Repulsion      ENuc            ....   1261.4780167722 Eh

Convergence Acceleration:
 AO-DIIS                CNVDIIS         .... on
   Start iteration      DIISMaxIt       ....    12
   Startup error        DIISStart       ....  0.200000
   # of expansion vecs  DIISMaxEq       ....     5
   Bias factor          DIISBfac        ....   1.050
   Max. coefficient     DIISMaxC        ....  10.000
 MO-DIIS                CNVKDIIS        .... off
 Trust-Rad. Augm. Hess. CNVTRAH         .... auto
   Auto Start mean grad. ratio tolernc. ....  1.125000
   Auto Start start iteration           ....    50
   Auto Start num. interpolation iter.  ....    10
   Max. Number of Micro iterations      ....    24
   Max. Number of Macro iterations      .... Maxiter - #DIIS iter
   Number of Davidson start vectors     ....     2
   Converg. threshold    (grad. norm)   ....   1.000e-05
   Grad. Scal. Fac. for Micro threshold ....   0.100
   Minimum threshold for Micro iter.    ....   1.000e-02
   NR start threshold (gradient norm)   ....   1.000e-04
   Initial trust radius                 ....   0.400
   Minimum AH scaling param. (alpha)    ....   1.000
   Maximum AH scaling param. (alpha)    .... 1000.000
   Quad. conv. algorithm                .... NR
   White noise on init. David. guess    .... on
   Maximum white noise                  ....   0.010
   Pseudo random numbers                .... off
   Inactive MOs                         .... canonical
   Orbital update algorithm             .... Taylor
   Preconditioner                       .... Diag
   Full preconditioner red. dimension   ....   250
 SOSCF                  CNVSOSCF        .... on
   Start iteration      SOSCFMaxIt      ....   150
   Startup grad/error   SOSCFStart      ....  0.003300
   Hessian update       SOSCFHessUp     .... L-BFGS
 Level Shifting         CNVShift        .... on
   Level shift para.    LevelShift      ....    0.2500
   Turn off err/grad.   ShiftErr        ....    0.0010
 Zerner damping         CNVZerner       .... off
 Static damping         CNVDamp         .... on
   Fraction old density DampFac         ....    0.7000
   Max. Damping (<1)    DampMax         ....    0.9800
   Min. Damping (>=0)   DampMin         ....    0.0000
   Turn off err/grad.   DampErr         ....    0.1000

SCF Procedure:
 Maximum # iterations   MaxIter         ....   125
 SCF integral mode      SCFMode         .... Direct
   Integral package                     .... SHARK and LIBINT hybrid scheme
 Reset frequency        DirectResetFreq ....    20
 Integral Threshold     Thresh          ....  2.500e-11 Eh
 Primitive CutOff       TCut            ....  2.500e-12 Eh

Convergence Tolerance:
 Convergence Check Mode ConvCheckMode   .... Total+1el-Energy
 Convergence forced     ConvForced      .... 0
 Energy Change          TolE            ....  1.000e-08 Eh
 1-El. energy change                    ....  1.000e-05 Eh
 Orbital Gradient       TolG            ....  1.000e-05
 Orbital Rotation angle TolX            ....  1.000e-05
 DIIS Error             TolErr          ....  5.000e-07

------------------------------
INITIAL GUESS: MODEL POTENTIAL
------------------------------
Loading Hartree-Fock densities                     ... done
Calculating cut-offs                               ... done
Initializing the effective Hamiltonian             ... done
Setting up the integral package (SHARK)            ... done
Starting the Coulomb interaction                   ... done (   0.1 sec)
Making the grid                                    ... done (   0.2 sec)
Mapping shells                                     ... done
Starting the XC term evaluation                    ... done (   0.1 sec)
  promolecular density results
     # of electrons  =    128.001799909
     EX              =   -112.419404762
     EC              =     -4.742725223
     EX+EC           =   -117.162129986
Transforming the Hamiltonian                       ... done (   0.0 sec)
Diagonalizing the Hamiltonian                      ... done (   0.0 sec)
Back transforming the eigenvectors                 ... done (   0.0 sec)
Now organizing SCF variables                       ... done
                      ------------------
                      INITIAL GUESS DONE (   0.5 sec)
                      ------------------
             **** ENERGY FILE WAS UPDATED (data/geom_opt_PO_BP86/137699/137699.en.tmp) ****
Finished Guess after   0.6 sec
Maximum memory used throughout the entire GUESS-calculation: 22.9 MB


           ************************************************************
           *        Program running with 6 parallel MPI-processes     *
           *              working on a common directory               *
           ************************************************************

-------------------------------------------------------------------------------------------
                                      ORCA LEAN-SCF
                              memory conserving SCF solver
-------------------------------------------------------------------------------------------

----------------------------------------D-I-I-S--------------------------------------------
Iteration    Energy (Eh)           Delta-E    RMSDP     MaxDP     DIISErr   Damp  Time(sec)
-------------------------------------------------------------------------------------------
               ***  Starting incremental Fock matrix formation  ***
    1    -996.2344211224335595     0.00e+00  3.80e-03  1.57e-01  3.35e-01  0.700   0.8
    2    -996.4415354235352424    -2.07e-01  2.18e-03  7.11e-02  7.92e-02  0.700   0.7
                               ***Turning on AO-DIIS***
    3    -996.5055564470299032    -6.40e-02  7.31e-04  2.00e-02  3.03e-02  0.700   0.7
    4    -996.5501834449905800    -4.46e-02  1.28e-03  4.79e-02  1.66e-02  0.000   0.7
    5    -996.6495381498348252    -9.94e-02  3.14e-04  1.04e-02  7.87e-03  0.000   0.8
                              *** Initializing SOSCF ***
---------------------------------------S-O-S-C-F--------------------------------------
Iteration    Energy (Eh)           Delta-E    RMSDP     MaxDP     MaxGrad    Time(sec)
--------------------------------------------------------------------------------------
    6    -996.6505994795611514    -1.06e-03  1.09e-04  2.32e-03  2.86e-03     0.7
               *** Restarting incremental Fock matrix formation ***
    7    -996.6506602464505704    -6.08e-05  1.07e-04  3.71e-03  4.28e-04     0.7
    8    -996.6506272434721723     3.30e-05  5.99e-05  2.07e-03  1.34e-03     0.6
    9    -996.6506708839533530    -4.36e-05  3.16e-05  1.31e-03  1.53e-04     0.6
   10    -996.6506680118527584     2.87e-06  2.25e-05  9.38e-04  3.49e-04     0.6
   11    -996.6506717570327964    -3.75e-06  1.33e-05  8.40e-04  6.30e-05     0.6
   12    -996.6506712598593367     4.97e-07  8.04e-06  4.65e-04  7.76e-05     0.7
   13    -996.6506719725166477    -7.13e-07  3.52e-06  1.46e-04  1.36e-05     0.6
   14    -996.6506719137123582     5.88e-08  2.28e-06  8.62e-05  2.67e-05     0.6
   15    -996.6506719858839460    -7.22e-08  1.36e-06  5.63e-05  7.01e-06     0.6
   16    -996.6506719765861817     9.30e-09  8.99e-07  3.95e-05  1.11e-05     0.6
                 **** Energy Check signals convergence ****

               *****************************************************
               *                     SUCCESS                       *
               *           SCF CONVERGED AFTER  16 CYCLES          *
               *****************************************************

             **** ENERGY FILE WAS UPDATED (data/geom_opt_PO_BP86/137699/137699.en.tmp) ****

----------------
TOTAL SCF ENERGY
----------------

Total Energy       :       -996.65067197658618 Eh          -27120.24355 eV

Components:
Nuclear Repulsion  :       1261.47801677222151 Eh           34326.56197 eV
Electronic Energy  :      -2258.12868874880769 Eh          -61446.80552 eV
One Electron Energy:      -3864.41628871208241 Eh         -105156.11325 eV
Two Electron Energy:       1606.28759996327449 Eh           43709.30773 eV

Virial components:
Potential Energy   :      -1984.89989209770238 Eh          -54011.87197 eV
Kinetic Energy     :        988.24922012111631 Eh           26891.62842 eV
Virial Ratio       :          2.00850134934024

DFT components:
N(Alpha)           :       63.999987481899 electrons
N(Beta)            :       63.999987481899 electrons
N(Total)           :      127.999974963798 electrons
E(X)               :     -114.064188699410 Eh       
E(C)               :       -4.750140604666 Eh       
E(XC)              :     -118.814329304076 Eh       

---------------
SCF CONVERGENCE
---------------

  Last Energy change         ...   -9.2978e-09  Tolerance :   1.0000e-08
  Last MAX-Density change    ...    3.9517e-05  Tolerance :   1.0000e-07
  Last RMS-Density change    ...    8.9948e-07  Tolerance :   5.0000e-09
  Last DIIS Error            ...    2.8633e-03  Tolerance :   5.0000e-07
  Last Orbital Gradient      ...    1.1120e-05  Tolerance :   1.0000e-05
  Last Orbital Rotation      ...    1.6681e-05  Tolerance :   1.0000e-05


----------------
ORBITAL ENERGIES
----------------

  NO   OCC          E(Eh)            E(eV) 
   0   2.0000     -76.409841     -2079.2175 
   1   2.0000     -18.705772      -509.0099 
   2   2.0000      -9.933449      -270.3029 
   3   2.0000      -9.932160      -270.2678 
   4   2.0000      -9.928248      -270.1614 
   5   2.0000      -9.928189      -270.1598 
   6   2.0000      -9.928002      -270.1547 
   7   2.0000      -9.927814      -270.1495 
   8   2.0000      -9.927554      -270.1425 
   9   2.0000      -9.927272      -270.1348 
  10   2.0000      -9.926192      -270.1054 
  11   2.0000      -9.925976      -270.0995 
  12   2.0000      -9.925120      -270.0762 
  13   2.0000      -9.925026      -270.0737 
  14   2.0000      -9.924726      -270.0655 
  15   2.0000      -9.922012      -269.9917 
  16   2.0000      -9.909613      -269.6543 
  17   2.0000      -6.369796      -173.3310 
  18   2.0000      -4.590939      -124.9258 
  19   2.0000      -4.590753      -124.9207 
  20   2.0000      -4.590704      -124.9194 
  21   2.0000      -0.846206       -23.0264 
  22   2.0000      -0.786332       -21.3972 
  23   2.0000      -0.784425       -21.3453 
  24   2.0000      -0.722614       -19.6633 
  25   2.0000      -0.695697       -18.9309 
  26   2.0000      -0.682285       -18.5659 
  27   2.0000      -0.681753       -18.5515 
  28   2.0000      -0.680701       -18.5228 
  29   2.0000      -0.633529       -17.2392 
  30   2.0000      -0.576729       -15.6936 
  31   2.0000      -0.555646       -15.1199 
  32   2.0000      -0.552559       -15.0359 
  33   2.0000      -0.548191       -14.9170 
  34   2.0000      -0.512805       -13.9541 
  35   2.0000      -0.497081       -13.5263 
  36   2.0000      -0.480441       -13.0735 
  37   2.0000      -0.458526       -12.4771 
  38   2.0000      -0.425688       -11.5836 
  39   2.0000      -0.422478       -11.4962 
  40   2.0000      -0.416366       -11.3299 
  41   2.0000      -0.412544       -11.2259 
  42   2.0000      -0.407302       -11.0833 
  43   2.0000      -0.397447       -10.8151 
  44   2.0000      -0.387060       -10.5324 
  45   2.0000      -0.384008       -10.4494 
  46   2.0000      -0.383039       -10.4230 
  47   2.0000      -0.374368       -10.1871 
  48   2.0000      -0.353799        -9.6274 
  49   2.0000      -0.344645        -9.3783 
  50   2.0000      -0.342312        -9.3148 
  51   2.0000      -0.322551        -8.7771 
  52   2.0000      -0.317880        -8.6500 
  53   2.0000      -0.316607        -8.6153 
  54   2.0000      -0.312649        -8.5076 
  55   2.0000      -0.304872        -8.2960 
  56   2.0000      -0.291539        -7.9332 
  57   2.0000      -0.252217        -6.8632 
  58   2.0000      -0.246463        -6.7066 
  59   2.0000      -0.241957        -6.5840 
  60   2.0000      -0.240887        -6.5549 
  61   2.0000      -0.233054        -6.3417 
  62   2.0000      -0.211818        -5.7639 
  63   2.0000      -0.207077        -5.6349 
  64   0.0000      -0.072713        -1.9786 
  65   0.0000      -0.059737        -1.6255 
  66   0.0000      -0.051518        -1.4019 
  67   0.0000      -0.050000        -1.3606 
  68   0.0000      -0.028755        -0.7825 
  69   0.0000       0.021595         0.5876 
  70   0.0000       0.036694         0.9985 
  71   0.0000       0.044565         1.2127 
  72   0.0000       0.053592         1.4583 
  73   0.0000       0.067007         1.8234 
  74   0.0000       0.073509         2.0003 
*Only the first 10 virtual orbitals were printed.

                    ********************************
                    * MULLIKEN POPULATION ANALYSIS *
                    ********************************

-----------------------
MULLIKEN ATOMIC CHARGES
-----------------------
   0 C :   -0.049300
   1 C :   -0.068158
   2 C :   -0.047507
   3 P :    0.501146
   4 O :   -0.467466
   5 C :   -0.075730
   6 C :   -0.004656
   7 C :    0.011992
   8 C :    0.015481
   9 C :    0.013059
  10 C :    0.006817
  11 C :   -0.068343
  12 C :   -0.001501
  13 C :    0.010326
  14 C :    0.015374
  15 C :    0.011866
  16 C :   -0.006483
  17 H :    0.021247
  18 H :    0.038471
  19 H :    0.040090
  20 H :    0.020427
  21 H :    0.076101
  22 H :   -0.012164
  23 H :   -0.002799
  24 H :    0.001855
  25 H :    0.003639
  26 H :    0.013492
  27 H :   -0.013489
  28 H :   -0.002234
  29 H :    0.001538
  30 H :    0.002955
  31 H :    0.013955
Sum of atomic charges:   -0.0000000

--------------------------------
MULLIKEN REDUCED ORBITAL CHARGES
--------------------------------
  0 C s       :     3.119703  s :     3.119703
      pz      :     0.931055  p :     2.905483
      px      :     0.965515
      py      :     1.008913
      dz2     :     0.008616  d :     0.024114
      dxz     :     0.006553
      dyz     :     0.002091
      dx2y2   :     0.003696
      dxy     :     0.003157

  1 C s       :     3.168330  s :     3.168330
      pz      :     0.963371  p :     2.866373
      px      :     0.945670
      py      :     0.957332
      dz2     :     0.010020  d :     0.033455
      dxz     :     0.008436
      dyz     :     0.002670
      dx2y2   :     0.005857
      dxy     :     0.006472

  2 C s       :     3.004194  s :     3.004194
      pz      :     0.996412  p :     3.016214
      px      :     1.009244
      py      :     1.010557
      dz2     :     0.007342  d :     0.027100
      dxz     :     0.004388
      dyz     :     0.003114
      dx2y2   :     0.004865
      dxy     :     0.007391

  3 P s       :     5.268974  s :     5.268974
      pz      :     2.840254  p :     8.744533
      px      :     2.955782
      py      :     2.948498
      dz2     :     0.090309  d :     0.485348
      dxz     :     0.131005
      dyz     :     0.138050
      dx2y2   :     0.058195
      dxy     :     0.067788

  4 O s       :     3.822952  s :     3.822952
      pz      :     1.342387  p :     4.632771
      px      :     1.645862
      py      :     1.644523
      dz2     :     0.004916  d :     0.011742
      dxz     :     0.003245
      dyz     :     0.003362
      dx2y2   :     0.000120
      dxy     :     0.000100

  5 C s       :     3.048121  s :     3.048121
      pz      :     0.977950  p :     2.994284
      px      :     1.007091
      py      :     1.009243
      dz2     :     0.008933  d :     0.033325
      dxz     :     0.006341
      dyz     :     0.008336
      dx2y2   :     0.003883
      dxy     :     0.005833

  6 C s       :     3.211383  s :     3.211383
      pz      :     0.920643  p :     2.760167
      px      :     0.963205
      py      :     0.876319
      dz2     :     0.006905  d :     0.033106
      dxz     :     0.005919
      dyz     :     0.009770
      dx2y2   :     0.005889
      dxy     :     0.004623

  7 C s       :     3.169905  s :     3.169905
      pz      :     0.866327  p :     2.785423
      px      :     0.950972
      py      :     0.968124
      dz2     :     0.007254  d :     0.032680
      dxz     :     0.005548
      dyz     :     0.007404
      dx2y2   :     0.006465
      dxy     :     0.006011

  8 C s       :     3.169612  s :     3.169612
      pz      :     0.959209  p :     2.781801
      px      :     0.925923
      py      :     0.896669
      dz2     :     0.009033  d :     0.033106
      dxz     :     0.006221
      dyz     :     0.008508
      dx2y2   :     0.003663
      dxy     :     0.005682

  9 C s       :     3.171593  s :     3.171593
      pz      :     0.910935  p :     2.782569
      px      :     0.971036
      py      :     0.900598
      dz2     :     0.007025  d :     0.032778
      dxz     :     0.005990
      dyz     :     0.009450
      dx2y2   :     0.005620
      dxy     :     0.004693

 10 C s       :     3.241757  s :     3.241757
      pz      :     0.879293  p :     2.718757
      px      :     0.907128
      py      :     0.932336
      dz2     :     0.007016  d :     0.032670
      dxz     :     0.005492
      dyz     :     0.007605
      dx2y2   :     0.006559
      dxy     :     0.005997

 11 C s       :     3.048612  s :     3.048612
      pz      :     0.971120  p :     2.986484
      px      :     0.990139
      py      :     1.025225
      dz2     :     0.009105  d :     0.033247
      dxz     :     0.010296
      dyz     :     0.005903
      dx2y2   :     0.004242
      dxy     :     0.003701

 12 C s       :     3.220185  s :     3.220185
      pz      :     0.916447  p :     2.748238
      px      :     0.859785
      py      :     0.972007
      dz2     :     0.007718  d :     0.033077
      dxz     :     0.012428
      dyz     :     0.004703
      dx2y2   :     0.004296
      dxy     :     0.003932

 13 C s       :     3.169510  s :     3.169510
      pz      :     0.845633  p :     2.787429
      px      :     0.962393
      py      :     0.979404
      dz2     :     0.008946  d :     0.032735
      dxz     :     0.009645
      dyz     :     0.002713
      dx2y2   :     0.005455
      dxy     :     0.005975

 14 C s       :     3.169007  s :     3.169007
      pz      :     0.953040  p :     2.782549
      px      :     0.865241
      py      :     0.964268
      dz2     :     0.009294  d :     0.033070
      dxz     :     0.010771
      dyz     :     0.005672
      dx2y2   :     0.004114
      dxy     :     0.003219

 15 C s       :     3.172460  s :     3.172460
      pz      :     0.911477  p :     2.782887
      px      :     0.890596
      py      :     0.980814
      dz2     :     0.007960  d :     0.032787
      dxz     :     0.012152
      dyz     :     0.004554
      dx2y2   :     0.004362
      dxy     :     0.003759

 16 C s       :     3.252393  s :     3.252393
      pz      :     0.860628  p :     2.721364
      px      :     0.921827
      py      :     0.938909
      dz2     :     0.008623  d :     0.032725
      dxz     :     0.009801
      dyz     :     0.002695
      dx2y2   :     0.005447
      dxy     :     0.006160

 17 H s       :     0.955399  s :     0.955399
      pz      :     0.013391  p :     0.023353
      px      :     0.004651
      py      :     0.005312

 18 H s       :     0.938291  s :     0.938291
      pz      :     0.005765  p :     0.023238
      px      :     0.011662
      py      :     0.005811

 19 H s       :     0.937521  s :     0.937521
      pz      :     0.013942  p :     0.022389
      px      :     0.003859
      py      :     0.004588

 20 H s       :     0.956533  s :     0.956533
      pz      :     0.013239  p :     0.023040
      px      :     0.004445
      py      :     0.005356

 21 H s       :     0.900570  s :     0.900570
      pz      :     0.005844  p :     0.023329
      px      :     0.008299
      py      :     0.009185

 22 H s       :     0.989358  s :     0.989358
      pz      :     0.008208  p :     0.022806
      px      :     0.004870
      py      :     0.009729

 23 H s       :     0.980388  s :     0.980388
      pz      :     0.011704  p :     0.022410
      px      :     0.006697
      py      :     0.004010

 24 H s       :     0.975835  s :     0.975835
      pz      :     0.004481  p :     0.022309
      px      :     0.008025
      py      :     0.009803

 25 H s       :     0.974007  s :     0.974007
      pz      :     0.008123  p :     0.022354
      px      :     0.004631
      py      :     0.009600

 26 H s       :     0.963822  s :     0.963822
      pz      :     0.012324  p :     0.022686
      px      :     0.006434
      py      :     0.003927

 27 H s       :     0.990766  s :     0.990766
      pz      :     0.007827  p :     0.022723
      px      :     0.009748
      py      :     0.005148

 28 H s       :     0.979832  s :     0.979832
      pz      :     0.013120  p :     0.022403
      px      :     0.003923
      py      :     0.005360

 29 H s       :     0.976153  s :     0.976153
      pz      :     0.004939  p :     0.022308
      px      :     0.012148
      py      :     0.005221

 30 H s       :     0.974714  s :     0.974714
      pz      :     0.007682  p :     0.022331
      px      :     0.009765
      py      :     0.004884

 31 H s       :     0.963162  s :     0.963162
      pz      :     0.013861  p :     0.022883
      px      :     0.004086
      py      :     0.004936



                     *******************************
                     * LOEWDIN POPULATION ANALYSIS *
                     *******************************

----------------------
LOEWDIN ATOMIC CHARGES
----------------------
   0 C :   -0.064981
   1 C :   -0.035853
   2 C :   -0.180272
   3 P :    0.882617
   4 O :   -0.506458
   5 C :   -0.184272
   6 C :   -0.027366
   7 C :   -0.026058
   8 C :   -0.015903
   9 C :   -0.023364
  10 C :   -0.004809
  11 C :   -0.187902
  12 C :   -0.028057
  13 C :   -0.026736
  14 C :   -0.017245
  15 C :   -0.024675
  16 C :   -0.010699
  17 H :    0.018948
  18 H :    0.028739
  19 H :    0.035766
  20 H :    0.026281
  21 H :    0.054816
  22 H :    0.024263
  23 H :    0.031973
  24 H :    0.032495
  25 H :    0.034103
  26 H :    0.036184
  27 H :    0.024624
  28 H :    0.031699
  29 H :    0.032189
  30 H :    0.033551
  31 H :    0.036403

-------------------------------
LOEWDIN REDUCED ORBITAL CHARGES
-------------------------------
  0 C s       :     2.888451  s :     2.888451
      pz      :     1.053281  p :     3.109405
      px      :     1.055271
      py      :     1.000854
      dz2     :     0.024137  d :     0.067125
      dxz     :     0.020101
      dyz     :     0.005001
      dx2y2   :     0.010227
      dxy     :     0.007659

  1 C s       :     2.881789  s :     2.881789
      pz      :     1.075513  p :     3.066658
      px      :     1.035950
      py      :     0.955195
      dz2     :     0.026980  d :     0.087406
      dxz     :     0.024842
      dyz     :     0.006092
      dx2y2   :     0.014541
      dxy     :     0.014952

  2 C s       :     2.887209  s :     2.887209
      pz      :     1.075207  p :     3.221498
      px      :     1.061723
      py      :     1.084568
      dz2     :     0.020557  d :     0.071565
      dxz     :     0.010388
      dyz     :     0.008124
      dx2y2   :     0.013443
      dxy     :     0.019054

  3 P s       :     4.934171  s :     4.934171
      pz      :     2.779124  p :     8.509118
      px      :     2.866120
      py      :     2.863875
      dz2     :     0.132692  d :     0.674093
      dxz     :     0.175903
      dyz     :     0.186526
      dx2y2   :     0.081450
      dxy     :     0.097521

  4 O s       :     3.663459  s :     3.663459
      pz      :     1.477271  p :     4.824696
      px      :     1.674934
      py      :     1.672491
      dz2     :     0.010097  d :     0.018303
      dxz     :     0.003758
      dyz     :     0.004188
      dx2y2   :     0.000144
      dxy     :     0.000116

  5 C s       :     2.909928  s :     2.909928
      pz      :     1.076433  p :     3.185080
      px      :     1.038528
      py      :     1.070119
      dz2     :     0.024123  d :     0.089264
      dxz     :     0.017176
      dyz     :     0.024017
      dx2y2   :     0.009689
      dxy     :     0.014259

  6 C s       :     2.864694  s :     2.864694
      pz      :     1.036481  p :     3.071870
      px      :     1.005597
      py      :     1.029792
      dz2     :     0.019556  d :     0.090803
      dxz     :     0.016976
      dyz     :     0.026779
      dx2y2   :     0.014061
      dxy     :     0.013431

  7 C s       :     2.863480  s :     2.863480
      pz      :     1.030654  p :     3.073933
      px      :     1.000466
      py      :     1.042813
      dz2     :     0.019508  d :     0.088645
      dxz     :     0.014047
      dyz     :     0.021916
      dx2y2   :     0.016159
      dxy     :     0.017015

  8 C s       :     2.864424  s :     2.864424
      pz      :     1.050315  p :     3.062021
      px      :     0.986845
      py      :     1.024860
      dz2     :     0.024777  d :     0.089459
      dxz     :     0.016802
      dyz     :     0.024662
      dx2y2   :     0.009064
      dxy     :     0.014154

  9 C s       :     2.863311  s :     2.863311
      pz      :     1.040211  p :     3.071085
      px      :     1.003106
      py      :     1.027767
      dz2     :     0.019926  d :     0.088967
      dxz     :     0.016901
      dyz     :     0.025374
      dx2y2   :     0.013371
      dxy     :     0.013396

 10 C s       :     2.867231  s :     2.867231
      pz      :     1.033694  p :     3.048463
      px      :     0.985396
      py      :     1.029373
      dz2     :     0.019291  d :     0.089115
      dxz     :     0.014066
      dyz     :     0.022246
      dx2y2   :     0.016445
      dxy     :     0.017066

 11 C s       :     2.911835  s :     2.911835
      pz      :     1.086133  p :     3.186540
      px      :     1.088659
      py      :     1.011748
      dz2     :     0.027204  d :     0.089527
      dxz     :     0.030454
      dyz     :     0.013233
      dx2y2   :     0.011174
      dxy     :     0.007463

 12 C s       :     2.864693  s :     2.864693
      pz      :     1.052809  p :     3.072624
      px      :     1.052686
      py      :     0.967129
      dz2     :     0.023231  d :     0.090740
      dxz     :     0.036358
      dyz     :     0.010693
      dx2y2   :     0.011790
      dxy     :     0.008668

 13 C s       :     2.863589  s :     2.863589
      pz      :     1.039114  p :     3.074304
      px      :     1.063962
      py      :     0.971228
      dz2     :     0.024456  d :     0.088844
      dxz     :     0.029414
      dyz     :     0.005412
      dx2y2   :     0.015960
      dxy     :     0.013603

 14 C s       :     2.864708  s :     2.864708
      pz      :     1.064567  p :     3.063145
      px      :     1.043318
      py      :     0.955259
      dz2     :     0.027433  d :     0.089393
      dxz     :     0.031755
      dyz     :     0.012832
      dx2y2   :     0.010778
      dxy     :     0.006594

 15 C s       :     2.863781  s :     2.863781
      pz      :     1.054412  p :     3.071851
      px      :     1.049652
      py      :     0.967786
      dz2     :     0.024132  d :     0.089043
      dxz     :     0.034612
      dyz     :     0.010248
      dx2y2   :     0.011897
      dxy     :     0.008153

 16 C s       :     2.868323  s :     2.868323
      pz      :     1.051952  p :     3.053253
      px      :     1.056999
      py      :     0.944302
      dz2     :     0.024043  d :     0.089123
      dxz     :     0.029464
      dyz     :     0.005398
      dx2y2   :     0.016253
      dxy     :     0.013966

 17 H s       :     0.911953  s :     0.911953
      pz      :     0.041467  p :     0.069099
      px      :     0.012252
      py      :     0.015380

 18 H s       :     0.902381  s :     0.902381
      pz      :     0.016139  p :     0.068880
      px      :     0.035485
      py      :     0.017256

 19 H s       :     0.894551  s :     0.894551
      pz      :     0.043607  p :     0.069682
      px      :     0.012249
      py      :     0.013826

 20 H s       :     0.901703  s :     0.901703
      pz      :     0.042768  p :     0.072016
      px      :     0.013289
      py      :     0.015958

 21 H s       :     0.873683  s :     0.873683
      pz      :     0.015027  p :     0.071501
      px      :     0.025687
      py      :     0.030788

 22 H s       :     0.906131  s :     0.906131
      pz      :     0.025574  p :     0.069606
      px      :     0.014437
      py      :     0.029595

 23 H s       :     0.899808  s :     0.899808
      pz      :     0.035849  p :     0.068219
      px      :     0.020063
      py      :     0.012307

 24 H s       :     0.899456  s :     0.899456
      pz      :     0.013939  p :     0.068050
      px      :     0.024147
      py      :     0.029964

 25 H s       :     0.897772  s :     0.897772
      pz      :     0.024907  p :     0.068125
      px      :     0.013848
      py      :     0.029370

 26 H s       :     0.893257  s :     0.893257
      pz      :     0.038372  p :     0.070559
      px      :     0.020066
      py      :     0.012121

 27 H s       :     0.905903  s :     0.905903
      pz      :     0.024700  p :     0.069474
      px      :     0.030115
      py      :     0.014659

 28 H s       :     0.900098  s :     0.900098
      pz      :     0.040289  p :     0.068202
      px      :     0.012308
      py      :     0.015605

 29 H s       :     0.899768  s :     0.899768
      pz      :     0.015506  p :     0.068043
      px      :     0.037332
      py      :     0.015205

 30 H s       :     0.898313  s :     0.898313
      pz      :     0.023744  p :     0.068136
      px      :     0.030117
      py      :     0.014276

 31 H s       :     0.892201  s :     0.892201
      pz      :     0.043705  p :     0.071396
      px      :     0.012963
      py      :     0.014728



                      *****************************
                      * MAYER POPULATION ANALYSIS *
                      *****************************

  NA   - Mulliken gross atomic population
  ZA   - Total nuclear charge
  QA   - Mulliken gross atomic charge
  VA   - Mayer's total valence
  BVA  - Mayer's bonded valence
  FA   - Mayer's free valence

  ATOM       NA         ZA         QA         VA         BVA        FA
  0 C      6.0493     6.0000    -0.0493     3.9448     3.9448    -0.0000
  1 C      6.0682     6.0000    -0.0682     4.0800     4.0800    -0.0000
  2 C      6.0475     6.0000    -0.0475     3.8199     3.8199    -0.0000
  3 P     14.4989    15.0000     0.5011     4.8203     4.8203    -0.0000
  4 O      8.4675     8.0000    -0.4675     2.1287     2.1287    -0.0000
  5 C      6.0757     6.0000    -0.0757     3.7018     3.7018    -0.0000
  6 C      6.0047     6.0000    -0.0047     3.8944     3.8944    -0.0000
  7 C      5.9880     6.0000     0.0120     3.8653     3.8653    -0.0000
  8 C      5.9845     6.0000     0.0155     3.8300     3.8300    -0.0000
  9 C      5.9869     6.0000     0.0131     3.8319     3.8319    -0.0000
 10 C      5.9932     6.0000     0.0068     3.9080     3.9080    -0.0000
 11 C      6.0683     6.0000    -0.0683     3.7125     3.7125    -0.0000
 12 C      6.0015     6.0000    -0.0015     3.8581     3.8581    -0.0000
 13 C      5.9897     6.0000     0.0103     3.8644     3.8644    -0.0000
 14 C      5.9846     6.0000     0.0154     3.8290     3.8290    -0.0000
 15 C      5.9881     6.0000     0.0119     3.8250     3.8250    -0.0000
 16 C      6.0065     6.0000    -0.0065     3.9048     3.9048    -0.0000
 17 H      0.9788     1.0000     0.0212     0.9843     0.9843    -0.0000
 18 H      0.9615     1.0000     0.0385     0.9767     0.9767     0.0000
 19 H      0.9599     1.0000     0.0401     1.0053     1.0053     0.0000
 20 H      0.9796     1.0000     0.0204     1.0019     1.0019    -0.0000
 21 H      0.9239     1.0000     0.0761     0.9907     0.9907    -0.0000
 22 H      1.0122     1.0000    -0.0122     0.9902     0.9902    -0.0000
 23 H      1.0028     1.0000    -0.0028     0.9787     0.9787     0.0000
 24 H      0.9981     1.0000     0.0019     0.9786     0.9786    -0.0000
 25 H      0.9964     1.0000     0.0036     0.9796     0.9796     0.0000
 26 H      0.9865     1.0000     0.0135     1.0106     1.0106    -0.0000
 27 H      1.0135     1.0000    -0.0135     0.9943     0.9943    -0.0000
 28 H      1.0022     1.0000    -0.0022     0.9786     0.9786    -0.0000
 29 H      0.9985     1.0000     0.0015     0.9785     0.9785    -0.0000
 30 H      0.9970     1.0000     0.0030     0.9794     0.9794    -0.0000
 31 H      0.9860     1.0000     0.0140     1.0161     1.0161    -0.0000

  Mayer bond orders larger than 0.100000
B(  0-C ,  1-C ) :   1.9892 B(  0-C , 17-H ) :   0.9514 B(  0-C , 18-H ) :   0.9471 
B(  1-C ,  2-C ) :   1.0475 B(  1-C , 19-H ) :   0.9525 B(  2-C ,  3-P ) :   0.9317 
B(  2-C , 20-H ) :   0.9014 B(  2-C , 21-H ) :   0.9024 B(  3-P ,  4-O ) :   1.8914 
B(  3-P ,  5-C ) :   0.8746 B(  3-P , 11-C ) :   0.8864 B(  5-C ,  6-C ) :   1.3530 
B(  5-C , 10-C ) :   1.3752 B(  6-C ,  7-C ) :   1.3985 B(  6-C , 22-H ) :   0.9730 
B(  7-C ,  8-C ) :   1.3824 B(  7-C , 23-H ) :   0.9793 B(  8-C ,  9-C ) :   1.3737 
B(  8-C , 24-H ) :   0.9807 B(  9-C , 10-C ) :   1.3838 B(  9-C , 25-H ) :   0.9832 
B( 10-C , 26-H ) :   0.9783 B( 11-C , 12-C ) :   1.3366 B( 11-C , 16-C ) :   1.3835 
B( 12-C , 13-C ) :   1.4031 B( 12-C , 27-H ) :   0.9755 B( 13-C , 14-C ) :   1.3779 
B( 13-C , 28-H ) :   0.9797 B( 14-C , 15-C ) :   1.3792 B( 14-C , 29-H ) :   0.9806 
B( 15-C , 16-C ) :   1.3696 B( 15-C , 30-H ) :   0.9833 B( 16-C , 31-H ) :   0.9801 


[...]

  8 C s       :     2.874356  s :     2.874356
      pz      :     1.057262  p :     3.060669
      px      :     0.987601
      py      :     1.015807
      dz2     :     0.026142  d :     0.085582
      dxz     :     0.017459
      dyz     :     0.024042
      dx2y2   :     0.006361
      dxy     :     0.011578

  9 C s       :     2.872763  s :     2.872763
      pz      :     1.045253  p :     3.066693
      px      :     1.000363
      py      :     1.021077
      dz2     :     0.021481  d :     0.085928
      dxz     :     0.017552
      dyz     :     0.024521
      dx2y2   :     0.010316
      dxy     :     0.012058

 10 C s       :     2.875568  s :     2.875568
      pz      :     1.046852  p :     3.051026
      px      :     0.984522
      py      :     1.019652
      dz2     :     0.021035  d :     0.086766
      dxz     :     0.014510
      dyz     :     0.021660
      dx2y2   :     0.013950
      dxy     :     0.015610

 11 C s       :     2.922089  s :     2.922089
      pz      :     1.082596  p :     3.177222
      px      :     1.083834
      py      :     1.010792
      dz2     :     0.025679  d :     0.086530
      dxz     :     0.030246
      dyz     :     0.012938
      dx2y2   :     0.010457
      dxy     :     0.007210

 12 C s       :     2.872805  s :     2.872805
      pz      :     1.051109  p :     3.072169
      px      :     1.050864
      py      :     0.970196
      dz2     :     0.022843  d :     0.087926
      dxz     :     0.034524
      dyz     :     0.010235
      dx2y2   :     0.011744
      dxy     :     0.008579

 13 C s       :     2.872614  s :     2.872614
      pz      :     1.036326  p :     3.070517
      px      :     1.062224
      py      :     0.971967
      dz2     :     0.023068  d :     0.085832
      dxz     :     0.028608
      dyz     :     0.005172
      dx2y2   :     0.015688
      dxy     :     0.013296

 14 C s       :     2.874638  s :     2.874638
      pz      :     1.059914  p :     3.061047
      px      :     1.041566
      py      :     0.959567
      dz2     :     0.026101  d :     0.085543
      dxz     :     0.030482
      dyz     :     0.012155
      dx2y2   :     0.010528
      dxy     :     0.006277

 15 C s       :     2.873017  s :     2.873017
      pz      :     1.051036  p :     3.067713
      px      :     1.048615
      py      :     0.968063
      dz2     :     0.023232  d :     0.085971
      dxz     :     0.033194
      dyz     :     0.009786
      dx2y2   :     0.011788
      dxy     :     0.007970

 16 C s       :     2.876454  s :     2.876454
      pz      :     1.051912  p :     3.055436
      px      :     1.057209
      py      :     0.946316
      dz2     :     0.022415  d :     0.086694
      dxz     :     0.029657
      dyz     :     0.005214
      dx2y2   :     0.015912
      dxy     :     0.013496

 17 H s       :     0.910550  s :     0.910550
      pz      :     0.039893  p :     0.066157
      px      :     0.010544
      py      :     0.015720

 18 H s       :     0.900975  s :     0.900975
      pz      :     0.016229  p :     0.066551
      px      :     0.034027
      py      :     0.016294

 19 H s       :     0.894658  s :     0.894658
      pz      :     0.041623  p :     0.066533
      px      :     0.010682
      py      :     0.014228

 20 H s       :     0.897403  s :     0.897403
      pz      :     0.042010  p :     0.068977
      px      :     0.011927
      py      :     0.015039

 21 H s       :     0.880290  s :     0.880290
      pz      :     0.013924  p :     0.068877
      px      :     0.026204
      py      :     0.028749

 22 H s       :     0.908119  s :     0.908119
      pz      :     0.025485  p :     0.067279
      px      :     0.015017
      py      :     0.026777

 23 H s       :     0.899767  s :     0.899767
      pz      :     0.037238  p :     0.065992
      px      :     0.016906
      py      :     0.011848

 24 H s       :     0.899097  s :     0.899097
      pz      :     0.012998  p :     0.065843
      px      :     0.024288
      py      :     0.028557

 25 H s       :     0.897956  s :     0.897956
      pz      :     0.025345  p :     0.065905
      px      :     0.014629
      py      :     0.025932

 26 H s       :     0.890967  s :     0.890967
      pz      :     0.040304  p :     0.070067
      px      :     0.017310
      py      :     0.012453

 27 H s       :     0.904875  s :     0.904875
      pz      :     0.023117  p :     0.067276
      px      :     0.030184
      py      :     0.013976

 28 H s       :     0.899614  s :     0.899614
      pz      :     0.039467  p :     0.065975
      px      :     0.011429
      py      :     0.015080

 29 H s       :     0.899159  s :     0.899159
      pz      :     0.014709  p :     0.065845
      px      :     0.036775
      py      :     0.014360

 30 H s       :     0.898130  s :     0.898130
      pz      :     0.022794  p :     0.065931
      px      :     0.029596
      py      :     0.013540

 31 H s       :     0.890764  s :     0.890764
      pz      :     0.043138  p :     0.070678
      px      :     0.013267
      py      :     0.014273



                      *****************************
                      * MAYER POPULATION ANALYSIS *
                      *****************************

  NA   - Mulliken gross atomic population
  ZA   - Total nuclear charge
  QA   - Mulliken gross atomic charge
  VA   - Mayer's total valence
  BVA  - Mayer's bonded valence
  FA   - Mayer's free valence

  ATOM       NA         ZA         QA         VA         BVA        FA
  0 C      6.0564     6.0000    -0.0564     3.9490     3.9490    -0.0000
  1 C      6.0594     6.0000    -0.0594     4.0745     4.0745    -0.0000
  2 C      6.0822     6.0000    -0.0822     3.8215     3.8215    -0.0000
  3 P     14.4664    15.0000     0.5336     4.7270     4.7270    -0.0000
  4 O      8.4549     8.0000    -0.4549     2.1439     2.1439    -0.0000
  5 C      6.1050     6.0000    -0.1050     3.7414     3.7414    -0.0000
  6 C      6.0091     6.0000    -0.0091     3.8946     3.8946    -0.0000
  7 C      6.0012     6.0000    -0.0012     3.8749     3.8749    -0.0000
  8 C      5.9911     6.0000     0.0089     3.8315     3.8315    -0.0000
  9 C      5.9972     6.0000     0.0028     3.8300     3.8300    -0.0000
 10 C      5.9942     6.0000     0.0058     3.8971     3.8971    -0.0000
 11 C      6.1001     6.0000    -0.1001     3.7466     3.7466    -0.0000
 12 C      6.0031     6.0000    -0.0031     3.8675     3.8675    -0.0000
 13 C      6.0010     6.0000    -0.0010     3.8695     3.8695    -0.0000
 14 C      5.9910     6.0000     0.0090     3.8305     3.8305    -0.0000
 15 C      5.9976     6.0000     0.0024     3.8272     3.8272    -0.0000
 16 C      6.0037     6.0000    -0.0037     3.8923     3.8923    -0.0000
 17 H      0.9724     1.0000     0.0276     0.9859     0.9859    -0.0000
 18 H      0.9550     1.0000     0.0450     0.9767     0.9767    -0.0000
 19 H      0.9562     1.0000     0.0438     0.9946     0.9946     0.0000
 20 H      0.9640     1.0000     0.0360     1.0008     1.0008    -0.0000
 21 H      0.9263     1.0000     0.0737     0.9860     0.9860    -0.0000
 22 H      1.0026     1.0000    -0.0026     0.9880     0.9880    -0.0000
 23 H      0.9954     1.0000     0.0046     0.9791     0.9791     0.0000
 24 H      0.9904     1.0000     0.0096     0.9789     0.9789    -0.0000
 25 H      0.9887     1.0000     0.0113     0.9800     0.9800     0.0000
 26 H      0.9765     1.0000     0.0235     1.0166     1.0166    -0.0000
 27 H      1.0098     1.0000    -0.0098     0.9980     0.9980    -0.0000
 28 H      0.9942     1.0000     0.0058     0.9790     0.9790     0.0000
 29 H      0.9902     1.0000     0.0098     0.9789     0.9789     0.0000
 30 H      0.9888     1.0000     0.0112     0.9800     0.9800    -0.0000
 31 H      0.9758     1.0000     0.0242     1.0193     1.0193     0.0000

  Mayer bond orders larger than 0.100000
B(  0-C ,  1-C ) :   1.9876 B(  0-C , 17-H ) :   0.9476 B(  0-C , 18-H ) :   0.9469 
B(  1-C ,  2-C ) :   1.0577 B(  1-C , 19-H ) :   0.9492 B(  2-C ,  3-P ) :   0.9012 
B(  2-C , 20-H ) :   0.9048 B(  2-C , 21-H ) :   0.9051 B(  3-P ,  4-O ) :   1.8819 
B(  3-P ,  5-C ) :   0.8567 B(  3-P , 11-C ) :   0.8636 B(  5-C ,  6-C ) :   1.3576 
B(  5-C , 10-C ) :   1.3923 B(  6-C ,  7-C ) :   1.4047 B(  6-C , 22-H ) :   0.9631 
B(  7-C ,  8-C ) :   1.3800 B(  7-C , 23-H ) :   0.9745 B(  8-C ,  9-C ) :   1.3817 
B(  8-C , 24-H ) :   0.9760 B(  9-C , 10-C ) :   1.3704 B(  9-C , 25-H ) :   0.9785 
B( 10-C , 26-H ) :   0.9698 B( 11-C , 12-C ) :   1.3507 B( 11-C , 16-C ) :   1.3940 
B( 12-C , 13-C ) :   1.4059 B( 12-C , 27-H ) :   0.9686 B( 13-C , 14-C ) :   1.3771 
B( 13-C , 28-H ) :   0.9744 B( 14-C , 15-C ) :   1.3851 B( 14-C , 29-H ) :   0.9757 
B( 15-C , 16-C ) :   1.3632 B( 15-C , 30-H ) :   0.9786 B( 16-C , 31-H ) :   0.9699 


-------
TIMINGS
-------

Total SCF time: 0 days 0 hours 0 min 5 sec 

Total time                  ....       5.207 sec
Sum of individual times     ....       5.129 sec  ( 98.5%)

SCF preparation             ....       0.114 sec  (  2.2%)
Fock matrix formation       ....       4.567 sec  ( 87.7%)
  Startup                   ....       0.030 sec  (  0.7% of F)
  Split-RI-J                ....       1.472 sec  ( 32.2% of F)
  XC integration            ....       2.960 sec  ( 64.8% of F)
    Basis function eval.    ....       0.892 sec  ( 30.1% of XC)
    Density eval.           ....       0.858 sec  ( 29.0% of XC)
    XC-Functional eval.     ....       0.084 sec  (  2.8% of XC)
    XC-Potential eval.      ....       0.587 sec  ( 19.8% of XC)
Diagonalization             ....       0.000 sec  (  0.0%)
Density matrix formation    ....       0.061 sec  (  1.2%)
Total Energy calculation    ....       0.026 sec  (  0.5%)
Population analysis         ....       0.075 sec  (  1.4%)
Orbital Transformation      ....       0.029 sec  (  0.6%)
Orbital Orthonormalization  ....       0.000 sec  (  0.0%)
DIIS solution               ....       0.036 sec  (  0.7%)
SOSCF solution              ....       0.221 sec  (  4.2%)
Finished LeanSCF after   5.3 sec

Maximum memory used throughout the entire LEANSCF-calculation: 32.9 MB


-------------------------------------------------------------------------------
                          DFT DISPERSION CORRECTION                            
                                                                               
                              DFTD3 V3.1  Rev 1                                
                          USING Becke-Johnson damping                          
-------------------------------------------------------------------------------
The BP86 functional is recognized
Active option DFTDOPT                   ...         4   

molecular C6(AA) [au] = 13588.156253 


            DFT-D V3
 parameters
 s6 scaling factor         :     1.0000 
 a1 scaling factor         :     0.3946 
 s8 scaling factor         :     3.2822 
 a2 scaling factor         :     4.8516 
 ad hoc parameters k1-k3   :    16.0000     1.3333    -4.0000 

 Edisp/kcal,au: -44.936994421015  -0.071611651274 
 E6   /kcal   : -16.317525600 
 E8   /kcal   : -28.619468821 
 % E8         :  63.687990685 

-------------------------   ----------------
Dispersion correction           -0.071611651
-------------------------   ----------------


-------------------------   --------------------
FINAL SINGLE POINT ENERGY      -996.730608131846
-------------------------   --------------------

                                *** OPTIMIZATION RUN DONE ***



           ************************************************************
           *        Program running with 6 parallel MPI-processes     *
           *              working on a common directory               *
           ************************************************************

------------------------------------------------------------------------------
                              ORCA PROPERTY CALCULATIONS
------------------------------------------------------------------------------

GBWName                                 ... data/geom_opt_PO_BP86/137699/137699.gbw
Number of atoms                         ...     32
Number of basis functions               ...    317
Max core memory                         ...   1024 MB

Electric properties:
Dipole moment                           ... YES
Quadrupole moment                       ...  NO
Static polarizability (Dipole/Dipole)   ...  NO
Static polarizability (Dipole/Quad.)    ...  NO
Static polarizability (Quad./Quad.)     ...  NO
Static polarizability (Velocity)        ...  NO

Atomic electric properties:
Dipole moment                           ...  NO
Quadrupole moment                       ...  NO
Static polarizability                   ...  NO

Choice of electric origin               ... Center of mass
Position of electric origin             ...     0.212327     0.054110    -0.434632

General magnetic properties:
Magnetizability                         ...  NO

EPR properties:
g-Tensor (aka g-matrix)                 ...  NO
Zero-Field splitting spin-orbit         ...  NO
Zero-field splitting spin-spin          ...  NO
Hyperfine couplings                     ...  NO (   0 nuclei)
Quadrupole couplings                    ...  NO (   0 nuclei)
Contact density                         ...  NO (   0 nuclei)

NMR properties:
Chemical shifts                         ...  NO (   0 nuclei)
Spin-rotation constants                 ...  NO (   0 nuclei)
Spin-spin couplings                     ...  NO (   0 nuclei,    0 pairs)

Choice of magnetic origin               ... GIAO
Position of magnetic origin             ...     0.000000     0.000000     0.000000

Properties with geometric perturbations:
SCF Hessian                             ...  NO
IR spectrum                             ...  NO
VCD spectrum                            ...  NO
X-ray spectroscopy properties:
SCF XES/XAS/RIXS spectra                ...  NO


-------------
DIPOLE MOMENT
-------------

Method             : SCF
Type of density    : Electron Density
Multiplicity       :   1
Irrep              :   0
Energy             :  -996.6589964805727959 Eh
Relativity type    : 
Basis              : AO
                                X                 Y                 Z
Electronic contribution:      3.662708428       1.947960768      -4.856810608
Nuclear contribution   :     -3.638484661      -1.650702071       6.220034706
                        -----------------------------------------
Total Dipole Moment    :      0.024223767       0.297258696       1.363224098
                        -----------------------------------------
Magnitude (a.u.)       :      1.395467472
Magnitude (Debye)      :      3.546996429



--------------------
Rotational spectrum 
--------------------
 
Rotational constants in cm-1:             0.019671             0.010544             0.008875 
Rotational constants in MHz :           589.732276           316.095063           266.060556 

Dipole components along the rotational axes: 
x,y,z [a.u.] :     0.042738     0.636402     1.241167 
x,y,z [Debye]:     0.108631     1.617605     3.154796 

 

Dipole moment calculation done in   0.0 sec 

Maximum memory used throughout the entire PROP-calculation: 16.5 MB

--------------------------------
SUGGESTED CITATIONS FOR THIS RUN
--------------------------------

Below you find a list of papers that are relevant to this ORCA run
We neither can nor want to force you to cite these papers, but we appreciate if you do
You receive ORCA, which is the product of decades of hard work by many enthusiastic individuals, for free
The only thing we kindly ask in return is that you cite our papers,
We deeply appreciate it, if you show your appreciation for ORCA by not just citing the generic ORCA reference.

Please note that relegating all ORCA citations to the supporting information does *not* help us.
SI sections are not indexed - citations you put there will not count into any citation statistics
But we need these citations in order to attract the funding resources that allow us to do what we are doing

Therefore, if you are a happy ORCA user, please consider citing a few of the papers listed below in the main body of your paper

In addition to the list printed below, the program has created the file data/geom_opt_PO_BP86/137699/137699.bibtex that contains the list in bibtex format
You can import this file easily into all common literature databanks and citation aid programs


List of essential papers. We consider these as the minimum necessary citations

  1. Neese,F.
     Software update: the ORCA program system, version 5.0
     WIRES Comput. Molec. Sci., 2022 12(1)e1606
     doi.org/10.1002/wcms.1606

List of papers to cite with high priority. The work reported in these papers was absolutely
necessary for this run to complete.
Our perspective: the developers of density functionals and basis sets usually get cited in chemistry papers
Good! But without the algorithms to do something with them, the functionals or basis sets would not do anything.
Hence, in our opinion, the algorithm design and method developments papers are equally worthy of getting cited

  1. Neese,F.
     An improvement of the resolution of the identity approximation for the formation of the Coulomb matrix
     J. Comp. Chem., 2003 24(14)1740-1747
     doi.org/10.1002/jcc.10318
  2. Neese,F.
     The SHARK Integral Generation and Digestion System
     J. Comp. Chem., 2022  1-16
     doi.org/10.1002/jcc.26942
  3. Grimme,S.; Antony,J.; Ehrlich,S.; Krieg,H.
     A consistent and accurate ab initio parametrization of density functional dispersion correction (DFT-D) for the 94 elements H-Pu
     J. Chem. Phys., 2010 132 154104-XXXX
     doi.org/10.1063/1.3382344
  4. Grimme,S.; Ehrlich,S.; Goerigk,L.
     Effect of the damping function in dispersion corrected density functional theory
     J. Comput. Chem., 2011 32(7)1456-1465
     doi.org/10.1002/jcc.21759

List of suggested additional citations. These are papers that are important in the 'surrounding' of 
of this run, or papers that preceded the highly important papers. If you like your results we are grateful for a citation.

  1. Neese,F.
     The ORCA program system
     WIRES Comput. Molec. Sci., 2012 2(1)73-78
     doi.org/10.1002/wcms.81
  2. Neese,F.
     Software update: the ORCA program system, version 4.0
     WIRES Comput. Molec. Sci., 2018 8(1)1-6
     doi.org/10.1002/wcms.1327
  3. Neese,F.; Wennmohs,F.; Becker,U.; Riplinger,C.
     The ORCA quantum chemistry program package
     J. Chem. Phys., 2020 152 Art. No. L224108
     doi.org/10.1063/5.0004608

List of optional additional citations

  1. Neese,F.
     Approximate second-order SCF convergence for spin unrestricted wavefunctions
     Chem. Phys. Lett., 2000 325(1-3)93-98
     doi.org/10.1016/s0009-2614(00)00662-x

Timings for individual modules:

Sum of individual times          ...      141.375 sec (=   2.356 min)
Startup calculation              ...       13.201 sec (=   0.220 min)   9.3 %
SCF iterations                   ...       83.415 sec (=   1.390 min)  59.0 %
Property calculations            ...        0.173 sec (=   0.003 min)   0.1 %
SCF Gradient evaluation          ...       44.442 sec (=   0.741 min)  31.4 %
Geometry relaxation              ...        0.144 sec (=   0.002 min)   0.1 %
                             ****ORCA TERMINATED NORMALLY****
TOTAL RUN TIME: 0 days 0 hours 2 minutes 23 seconds 473 msec
