
                                 *****************
                                 * O   R   C   A *
                                 *****************

                                            #,                                       
                                            ###                                      
                                            ####                                     
                                            #####                                    
                                            ######                                   
                                           ########,                                 
                                     ,,################,,,,,                         
                               ,,#################################,,                 
                          ,,##########################################,,             
                       ,#########################################, ''#####,          
                    ,#############################################,,   '####,        
                  ,##################################################,,,,####,       
                ,###########''''           ''''###############################       
              ,#####''   ,,,,##########,,,,          '''####'''          '####       
            ,##' ,,,,###########################,,,                        '##       
           ' ,,###''''                  '''############,,,                           
         ,,##''                                '''############,,,,        ,,,,,,###''
      ,#''                                            '''#######################'''  
     '                                                          ''''####''''         
             ,#######,   #######,   ,#######,      ##                                
            ,#'     '#,  ##    ##  ,#'     '#,    #''#        ,####,   ,####,        
            ##       ##  ##   ,#'  ##            #'  '#       #'       #'  '#        
            ##       ##  #######   ##           ,######,      #####,   #    #        
            '#,     ,#'  ##    ##  '#,     ,#' ,#      #,     #,   #   #,  ,#        
             '#######'   ##     ##  '#######'  #'      '#     '####' # '####'        



                #########################################################
                #                        -***-                          #
                #          Department of theory and spectroscopy        #
                #                                                       #
                #                      Frank Neese                      #
                #                                                       #
                #     Directorship, Architecture, Infrastructure        #
                #                    SHARK, DRIVERS                     #
                #        Core code/Algorithms in most modules           #
                #                                                       #
                #        Max Planck Institute fuer Kohlenforschung      #
                #                Kaiser Wilhelm Platz 1                 #
                #                 D-45470 Muelheim/Ruhr                 #
                #                      Germany                          #
                #                                                       #
                #                  All rights reserved                  #
                #                        -***-                          #
                #########################################################


                         Program Version 6.0.0  -   RELEASE   -


 With contributions from (in alphabetic order):
   Daniel Aravena         : Magnetic Suceptibility
   Michael Atanasov       : Ab Initio Ligand Field Theory (pilot matlab implementation)
   Alexander A. Auer      : GIAO ZORA, VPT2 properties, NMR spectrum
   Ute Becker             : All parallelization in ORCA, NUMFREQ, NUMCALC
   Giovanni Bistoni       : ED, misc. LED, open-shell LED, HFLD
   Martin Brehm           : Molecular dynamics
   Dmytro Bykov           : pre 5.0 version of the SCF Hessian
   Marcos Casanova-Páez   : Triplet and SCS-CIS(D). UHF-(DLPNO)-IP/EA/STEOM-CCSD. UHF-CVS-IP/STEOM-CCSD
   Vijay G. Chilkuri      : MRCI spin determinant printing, contributions to CSF-ICE
   Pauline Colinet        : FMM embedding
   Dipayan Datta          : RHF DLPNO-CCSD density
   Achintya Kumar Dutta   : EOM-CC, STEOM-CC
   Nicolas Foglia         : Exact transition moments, OPA infrastructure, MCD improvements
   Dmitry Ganyushin       : Spin-Orbit,Spin-Spin,Magnetic field MRCI
   Miquel Garcia          : C-PCM and meta-GGA Hessian, CCSD/C-PCM, Gaussian charge scheme
   Tiago L. C. Gouveia    : GS-ROHF, GS-ROCIS
   Yang Guo               : DLPNO-NEVPT2, F12-NEVPT2, CIM, IAO-localization
   Andreas Hansen         : Spin unrestricted coupled pair/coupled cluster methods
   Ingolf Harden          : AUTO-CI MPn and infrastructure 
   Benjamin Helmich-Paris : MC-RPA, TRAH-(SCF,CASSCF), AVAS, COSX integrals, SCF dyn. polar.
   Lee Huntington         : MR-EOM, pCC
   Robert Izsak           : Overlap fitted RIJCOSX, COSX-SCS-MP3, EOM
   Riya Kayal             : Wick's Theorem for AUTO-CI, AUTO-CI UHF-CCSDT
   Emily Kempfer          : AUTO-CI, RHF CISDT and CCSDT
   Christian Kollmar      : KDIIS, OOCD, Brueckner-CCSD(T), CCSD density, CASPT2, CASPT2-K, improved NEVPT2
   Axel Koslowski         : Symmetry handling
   Simone Kossmann        : Meta GGA functionals, TD-DFT gradient, OOMP2, (MP2 Hessian; deprecated post 5.0)
   Lucas Lang             : DCDCAS
   Marvin Lechner         : AUTO-CI (C++ implementation), FIC-MRCC
   Spencer Leger          : CASSCF response
   Dagmar Lenk            : GEPOL surface, SMD, ORCA-2-JSON
   Dimitrios Liakos       : Extrapolation schemes; Compound Job, initial MDCI parallelization
   Dimitrios Manganas     : Further ROCIS development; embedding schemes. LFT, Crystal Embedding
   Dimitrios Pantazis     : SARC Basis sets
   Anastasios Papadopoulos: AUTO-CI, single reference methods and gradients
   Taras Petrenko         : pre 6.0 DFT Hessian and TD-DFT gradient, (ASA, deprecated), ECA, 1-Electron XAS/XES, NRVS
   Peter Pinski           : DLPNO-MP2, DLPNO-MP2 Gradient
   Christoph Reimann      : Effective Core Potentials
   Marius Retegan         : Local ZFS, SOC
   Christoph Riplinger    : Optimizer, TS searches, QM/MM, DLPNO-CCSD(T), (RO)-DLPNO pert. Triples
   Michael Roemelt        : Original ROCIS implementation
   Masaaki Saitow         : Open-shell DLPNO-CCSD energy and density
   Barbara Sandhoefer     : DKH picture change effects
   Kantharuban Sivalingam : CASSCF convergence/infrastructure, NEVPT2 and variants, FIC-MRCI
   Bernardo de Souza      : ESD, SOC TD-DFT
   Georgi Stoychev        : AutoAux, RI-MP2 NMR, DLPNO-MP2 response, X2C
   Van Anh Tran           : RI-MP2 g-tensors
   Willem Van den Heuvel  : Paramagnetic NMR
   Zikuan Wang            : NOTCH, Electric field optimization 
   Frank Wennmohs         : Technical directorship and infrastructure
   Hang Xu                : AUTO-CI-Response properties 


 We gratefully acknowledge several colleagues who have allowed us to
 interface, adapt or use parts of their codes:
   Stefan Grimme, W. Hujo, H. Kruse, P. Pracht,  : VdW corrections, initial TS optimization,
                  C. Bannwarth, S. Ehlert,         DFT functionals, gCP, sTDA/sTD-DF
                  L. Wittmann, M. Mueller
   Ed Valeev, F. Pavosevic, A. Kumar             : LibInt (2-el integral package), F12 methods
   Garnet Chan, S. Sharma, J. Yang, R. Olivares  : DMRG
   Ulf Ekstrom                                   : XCFun DFT Library
   Mihaly Kallay                                 : mrcc  (arbitrary order and MRCC methods)
   Frank Weinhold                                : gennbo (NPA and NBO analysis)
   Simon Mueller                                 : openCOSMO-RS
   Christopher J. Cramer and Donald G. Truhlar   : smd solvation model
   Lars Goerigk                                  : TD-DFT with DH, B97 family of functionals
   V. Asgeirsson, H. Jonsson                     : NEB implementation
   FAccTs GmbH                                   : IRC, NEB, NEB-TS, DLPNO-Multilevel, CI-OPT
                                                   MM, QMMM, 2- and 3-layer-ONIOM, Crystal-QMMM,
                                                   LR-CPCM, SF, NACMEs, symmetry and pop. for TD-DFT,
                                                   nearIR, NL-DFT gradient (VV10), updates on ESD,
                                                   ML-optimized integration grids, MBIS, APM,
                                                   GOAT, DOCKER, SOLVATOR, interface openCOSMO-RS
   S Lehtola, MJT Oliveira, MAL Marques          : LibXC Library
   Liviu Ungur et al                             : ANISO software


 Your calculation uses the libint2 library for the computation of 2-el integrals
 For citations please refer to: http://libint.valeyev.net

 Your ORCA version has been built with support for libXC version: 6.2.2
 For citations please refer to: https://libxc.gitlab.io

 This ORCA versions uses:
   CBLAS   interface :  Fast vector & matrix operations
   LAPACKE interface :  Fast linear algebra routines
   Shared memory     :  Shared parallel matrices


Your calculation utilizes the atom-pairwise dispersion correction
with the Becke-Johnson damping scheme (D3BJ)


Warning: RI is on but no J-basis has been assigned. Assigning Def2/J (nothing to worry about!)
================================================================================

----- Orbital basis set information -----
Your calculation utilizes the basis: def2-SVP
   F. Weigend and R. Ahlrichs, Phys. Chem. Chem. Phys. 7, 3297 (2005).

----- AuxJ basis set information -----
Your calculation utilizes the auxiliary basis: def2/J
   F. Weigend, Phys. Chem. Chem. Phys. 8, 1057 (2006).

================================================================================
                                        WARNINGS
                       Please study these warnings very carefully!
================================================================================


WARNING: Geometry Optimization
  ===> : Switching off AutoStart
         For restart on a previous wavefunction, please use MOREAD

================================================================================
                                       INPUT FILE
================================================================================
NAME = data/geom_opt/73879/73879.inp
|  1> ! RIJONX B3LYP def2-SVP D3BJ TIGHTSCF Opt
|  2> %pal
|  3> nprocs 6
|  4> end
|  5> 
|  6> * xyz 0 1
|  7> C     -0.149955   -2.656516   -0.337071
|  8> P     -0.102260   -1.392385    0.992856
|  9> C      1.395801   -0.420100    0.604078
| 10> C      1.471385    0.935575    0.966587
| 11> C      2.614397    1.694367    0.698376
| 12> C      3.710958    1.106049    0.076497
| 13> C      3.666833   -0.241540   -0.268321
| 14> C      2.521830   -0.999205    0.000068
| 15> C     -1.446658   -0.284485    0.449519
| 16> C     -1.458283    0.340257   -0.806277
| 17> C     -2.513730    1.176782   -1.179031
| 18> C     -3.572797    1.397872   -0.302131
| 19> C     -3.576951    0.784024    0.947882
| 20> C     -2.521041   -0.051802    1.321005
| 21> H      0.013237   -2.231677   -1.331934
| 22> H     -1.121570   -3.160917   -0.341933
| 23> H      0.610563   -3.424320   -0.165693
| 24> H      0.634887    1.421641    1.465714
| 25> H      2.645366    2.743140    0.981568
| 26> H      4.601253    1.693811   -0.129814
| 27> H      4.526720   -0.709286   -0.740798
| 28> H      2.535962   -2.052631   -0.265303
| 29> H     -0.640000    0.191026   -1.507244
| 30> H     -2.505276    1.656728   -2.154109
| 31> H     -4.393245    2.048859   -0.592043
| 32> H     -4.401318    0.954522    1.635278
| 33> H     -2.546106   -0.519787    2.303137
| 34> **                         ****END OF INPUT****
================================================================================

                       *****************************
                       * Geometry Optimization Run *
                       *****************************

Geometry optimization settings:
Update method            Update   .... BFGS
Choice of coordinates    CoordSys .... (2022) Redundant Internals
Initial Hessian          InHess   .... Almloef's Model
Max. no of cycles        MaxIter  .... 81

Convergence Tolerances:
Energy Change            TolE     ....  5.0000e-06 Eh
Max. Gradient            TolMAXG  ....  3.0000e-04 Eh/bohr
RMS Gradient             TolRMSG  ....  1.0000e-04 Eh/bohr
Max. Displacement        TolMAXD  ....  4.0000e-03 bohr
RMS Displacement         TolRMSD  ....  2.0000e-03 bohr
Strict Convergence                .... False

------------------------------------------------------------------------------
                        ORCA OPTIMIZATION COORDINATE SETUP
------------------------------------------------------------------------------

The optimization will be done in redundant internal coordinates (2022)
Making redundant internal coordinates   ...  (2022 redundants) done
Evaluating the initial hessian          ...  (Almloef) done
Evaluating the coordinates              ...  done
Calculating the B-matrix                .... done
Calculating the G-matrix                .... done
Diagonalizing the G-matrix              .... done
Small eigenvalue found = 6.654e-03
Small eigenvalue found = 1.870e-02
Small eigenvalue found = 1.979e-02
The first mode is                       ....   59
The number of degrees of freedom        ....   75

    -----------------------------------------------------------------
                    Redundant Internal Coordinates


    -----------------------------------------------------------------
         Definition                    Initial Value    Approx d2E/dq
    -----------------------------------------------------------------
      1. B(P   1,C   0)                  1.8355         0.408779   
      2. B(C   2,P   1)                  1.8278         0.420561   
      3. B(C   3,C   2)                  1.4053         0.590561   
      4. B(C   4,C   3)                  1.3979         0.606881   
      5. B(C   5,C   4)                  1.3911         0.622163   
      6. B(C   6,C   5)                  1.3917         0.620895   
      7. B(C   7,C   2)                  1.4029         0.595875   
      8. B(C   7,C   6)                  1.3990         0.604540   
      9. B(C   8,P   1)                  1.8248         0.425073   
     10. B(C   9,C   8)                  1.4027         0.596399   
     11. B(C  10,C   9)                  1.3974         0.608071   
     12. B(C  11,C  10)                  1.3926         0.618757   
     13. B(C  12,C  11)                  1.3926         0.618837   
     14. B(C  13,C  12)                  1.3974         0.608004   
     15. B(C  13,C   8)                  1.4028         0.596034   
     16. B(H  14,C   0)                  1.0940         0.354826   
     17. B(H  15,C   0)                  1.0948         0.353870   
     18. B(H  16,C   0)                  1.0942         0.354582   
     19. B(H  17,C   3)                  1.0886         0.361916   
     20. B(H  18,C   4)                  1.0868         0.364391   
     21. B(H  19,C   5)                  1.0866         0.364654   
     22. B(H  20,C   6)                  1.0869         0.364178   
     23. B(H  21,C   7)                  1.0864         0.364855   
     24. B(H  22,C   9)                  1.0878         0.363082   
     25. B(H  23,C  10)                  1.0868         0.364320   
     26. B(H  24,C  11)                  1.0867         0.364461   
     27. B(H  25,C  12)                  1.0868         0.364340   
     28. B(H  26,C  13)                  1.0882         0.362463   
     29. A(P   1,C   0,H  16)          110.5931         0.348660   
     30. A(H  14,C   0,H  15)          107.8949         0.289373   
     31. A(P   1,C   0,H  15)          110.0966         0.348542   
     32. A(P   1,C   0,H  14)          112.8033         0.348701   
     33. A(H  14,C   0,H  16)          108.1341         0.289465   
     34. A(H  15,C   0,H  16)          107.1129         0.289342   
     35. A(C   0,P   1,C   2)          103.5059         0.427559   
     36. A(C   2,P   1,C   8)          102.5643         0.430567   
     37. A(C   0,P   1,C   8)          100.5595         0.428378   
     38. A(P   1,C   2,C   7)          121.9957         0.428832   
     39. A(C   3,C   2,C   7)          117.7810         0.427235   
     40. A(P   1,C   2,C   3)          120.1570         0.428143   
     41. A(C   2,C   3,H  17)          120.5078         0.350316   
     42. A(C   2,C   3,C   4)          121.2051         0.428639   
     43. A(C   4,C   3,H  17)          118.2872         0.351934   
     44. A(C   3,C   4,H  18)          119.8099         0.352340   
     45. A(C   5,C   4,H  18)          120.1414         0.353826   
     46. A(C   3,C   4,C   5)          120.0479         0.432671   
     47. A(C   6,C   5,H  19)          120.1799         0.353747   
     48. A(C   4,C   5,H  19)          120.1303         0.353869   
     49. A(C   4,C   5,C   6)          119.6870         0.434451   
     50. A(C   5,C   6,H  20)          119.9545         0.353669   
     51. A(C   7,C   6,H  20)          119.8561         0.352075   
     52. A(C   5,C   6,C   7)          120.1878         0.432212   
     53. A(C   6,C   7,H  21)          117.8805         0.352185   
     54. A(C   2,C   7,C   6)          121.0622         0.429031   
     55. A(C   2,C   7,H  21)          121.0547         0.351327   
     56. A(P   1,C   8,C   9)          122.8938         0.429721   
     57. A(C   9,C   8,C  13)          118.4221         0.428010   
     58. A(P   1,C   8,C  13)          118.6829         0.429674   
     59. A(C   8,C   9,C  10)          120.7779         0.429547   
     60. A(C  10,C   9,H  22)          118.5821         0.352242   
     61. A(C   8,C   9,H  22)          120.6374         0.351090   
     62. A(C   9,C  10,C  11)          120.0965         0.432396   
     63. A(C  11,C  10,H  23)          120.0483         0.353486   
     64. A(C   9,C  10,H  23)          119.8550         0.352445   
     65. A(C  10,C  11,C  12)          119.8335         0.433763   
     66. A(C  12,C  11,H  24)          120.0832         0.353516   
     67. A(C  10,C  11,H  24)          120.0832         0.353509   
     68. A(C  13,C  12,H  25)          119.8744         0.352442   
     69. A(C  11,C  12,H  25)          120.0553         0.353497   
     70. A(C  11,C  12,C  13)          120.0702         0.432398   
     71. A(C  12,C  13,H  26)          118.7374         0.352134   
     72. A(C   8,C  13,H  26)          120.4630         0.350952   
     73. A(C   8,C  13,C  12)          120.7996         0.429492   
     74. D(C   8,P   1,C   0,H  14)     58.9330         0.003765   
     75. D(C   2,P   1,C   0,H  15)   -167.4525         0.003765   
     76. D(C   2,P   1,C   0,H  14)    -46.8711         0.003765   
     77. D(C   8,P   1,C   0,H  15)    -61.6484         0.003765   
     78. D(C   2,P   1,C   0,H  16)     74.3706         0.003765   
     79. D(C   3,C   2,P   1,C   8)     46.7255         0.003699   
     80. D(C   7,C   2,P   1,C   8)   -136.3025         0.003699   
     81. D(C   3,C   2,P   1,C   0)    151.0032         0.003699   
     82. D(C   7,C   2,P   1,C   0)    -32.0248         0.003699   
     83. D(C   4,C   3,C   2,C   7)      1.9112         0.024003   
     84. D(H  17,C   3,C   2,P   1)     -1.0170         0.024003   
     85. D(H  17,C   3,C   2,C   7)   -178.1146         0.024003   
     86. D(C   4,C   3,C   2,P   1)    179.0088         0.024003   
     87. D(C   5,C   4,C   3,C   2)     -0.7950         0.025422   
     88. D(C   5,C   4,C   3,H  17)    179.2302         0.025422   
     89. D(H  18,C   4,C   3,H  17)     -0.4616         0.025422   
     90. D(H  18,C   4,C   3,C   2)    179.5131         0.025422   
     91. D(H  19,C   5,C   4,H  18)     -0.1183         0.026797   
     92. D(H  19,C   5,C   4,C   3)   -179.8091         0.026797   
     93. D(C   6,C   5,C   4,H  18)    179.2691         0.026797   
     94. D(C   6,C   5,C   4,C   3)     -0.4217         0.026797   
     95. D(H  20,C   6,C   5,H  19)      0.3068         0.026681   
     96. D(H  20,C   6,C   5,C   4)   -179.0803         0.026681   
     97. D(C   7,C   6,C   5,H  19)    179.8501         0.026681   
     98. D(C   7,C   6,C   5,C   4)      0.4629         0.026681   
     99. D(H  21,C   7,C   2,C   3)    177.5291         0.024460   
    100. D(C   2,C   7,C   6,C   5)      0.7126         0.025215   
    101. D(H  21,C   7,C   2,P   1)      0.4883         0.024460   
    102. D(C   6,C   7,C   2,C   3)     -1.8673         0.024460   
    103. D(C   2,C   7,C   6,H  20)   -179.7437         0.025215   
    104. D(C   6,C   7,C   2,P   1)   -178.9081         0.024460   
    105. D(H  21,C   7,C   6,H  20)      0.8412         0.025215   
    106. D(H  21,C   7,C   6,C   5)   -178.7025         0.025215   
    107. D(C  13,C   8,P   1,C   2)   -131.4850         0.003748   
    108. D(C  13,C   8,P   1,C   0)    121.9595         0.003748   
    109. D(C   9,C   8,P   1,C   2)     48.9046         0.003748   
    110. D(C   9,C   8,P   1,C   0)    -57.6509         0.003748   
    111. D(H  22,C   9,C   8,C  13)    179.5343         0.024505   
    112. D(H  22,C   9,C   8,P   1)     -0.8544         0.024505   
    113. D(C  10,C   9,C   8,C  13)      0.1347         0.024505   
    114. D(C  10,C   9,C   8,P   1)    179.7461         0.024505   
    115. D(H  23,C  10,C   9,H  22)      0.3176         0.025527   
    116. D(H  23,C  10,C   9,C   8)    179.7293         0.025527   
    117. D(C  11,C  10,C   9,H  22)   -179.5292         0.025527   
    118. D(C  11,C  10,C   9,C   8)     -0.1175         0.025527   
    119. D(H  24,C  11,C  10,H  23)      0.1229         0.026486   
    120. D(H  24,C  11,C  10,C   9)    179.9693         0.026486   
    121. D(C  12,C  11,C  10,H  23)   -179.7931         0.026486   
    122. D(C  12,C  11,C  10,C   9)      0.0533         0.026486   
    123. D(H  25,C  12,C  11,H  24)      0.0466         0.026494   
    124. D(H  25,C  12,C  11,C  10)    179.9625         0.026494   
    125. D(C  13,C  12,C  11,H  24)   -179.9260         0.026494   
    126. D(C  13,C  12,C  11,C  10)     -0.0100         0.026494   
    127. D(H  26,C  13,C  12,H  25)     -0.0129         0.025521   
    128. D(H  26,C  13,C  12,C  11)    179.9597         0.025521   
    129. D(C   8,C  13,C  12,H  25)   -179.9427         0.025521   
    130. D(C   8,C  13,C  12,C  11)      0.0298         0.025521   
    131. D(H  26,C  13,C   8,C   9)    179.9803         0.024473   
    132. D(H  26,C  13,C   8,P   1)      0.3523         0.024473   
    133. D(C  12,C  13,C   8,C   9)     -0.0910         0.024473   
    134. D(C  12,C  13,C   8,P   1)   -179.7191         0.024473   
    -----------------------------------------------------------------

Number of atoms                         .... 27
Number of degrees of freedom            .... 134


         *************************************************************
         *                GEOMETRY OPTIMIZATION CYCLE   1            *
         *************************************************************
---------------------------------
CARTESIAN COORDINATES (ANGSTROEM)
---------------------------------
  C     -0.149955   -2.656516   -0.337071
  P     -0.102260   -1.392385    0.992856
  C      1.395801   -0.420100    0.604078
  C      1.471385    0.935575    0.966587
  C      2.614397    1.694367    0.698376
  C      3.710958    1.106049    0.076497
  C      3.666833   -0.241540   -0.268321
  C      2.521830   -0.999205    0.000068
  C     -1.446658   -0.284485    0.449519
  C     -1.458283    0.340257   -0.806277
  C     -2.513730    1.176782   -1.179031
  C     -3.572797    1.397872   -0.302131
  C     -3.576951    0.784024    0.947882
  C     -2.521041   -0.051802    1.321005
  H      0.013237   -2.231677   -1.331934
  H     -1.121570   -3.160917   -0.341933
  H      0.610563   -3.424320   -0.165693
  H      0.634887    1.421641    1.465714
  H      2.645366    2.743140    0.981568
  H      4.601253    1.693811   -0.129814
  H      4.526720   -0.709286   -0.740798
  H      2.535962   -2.052631   -0.265303
  H     -0.640000    0.191026   -1.507244
  H     -2.505276    1.656728   -2.154109
  H     -4.393245    2.048859   -0.592043
  H     -4.401318    0.954522    1.635278
  H     -2.546106   -0.519787    2.303137

----------------------------
CARTESIAN COORDINATES (A.U.)
----------------------------
  NO LB      ZA    FRAG     MASS         X           Y           Z
   0 C     6.0000    0    12.011   -0.283374   -5.020088   -0.636972
   1 P    15.0000    0    30.974   -0.193243   -2.631226    1.876226
   2 C     6.0000    0    12.011    2.637682   -0.793874    1.141542
   3 C     6.0000    0    12.011    2.780515    1.767981    1.826585
   4 C     6.0000    0    12.011    4.940494    3.201890    1.319739
   5 C     6.0000    0    12.011    7.012694    2.090130    0.144558
   6 C     6.0000    0    12.011    6.929310   -0.456444   -0.507053
   7 C     6.0000    0    12.011    4.765568   -1.888224    0.000129
   8 C     6.0000    0    12.011   -2.733787   -0.537599    0.849468
   9 C     6.0000    0    12.011   -2.755755    0.642993   -1.523643
  10 C     6.0000    0    12.011   -4.750261    2.223796   -2.228046
  11 C     6.0000    0    12.011   -6.751608    2.641595   -0.570945
  12 C     6.0000    0    12.011   -6.759458    1.481591    1.791237
  13 C     6.0000    0    12.011   -4.764077   -0.097892    2.496338
  14 H     1.0000    0     1.008    0.025014   -4.217258   -2.516990
  15 H     1.0000    0     1.008   -2.119460   -5.973267   -0.646160
  16 H     1.0000    0     1.008    1.153797   -6.471027   -0.313114
  17 H     1.0000    0     1.008    1.199763    2.686512    2.769798
  18 H     1.0000    0     1.008    4.999017    5.183783    1.854895
  19 H     1.0000    0     1.008    8.695108    3.200839   -0.245313
  20 H     1.0000    0     1.008    8.554261   -1.340356   -1.399905
  21 H     1.0000    0     1.008    4.792274   -3.878910   -0.501350
  22 H     1.0000    0     1.008   -1.209425    0.360987   -2.848278
  23 H     1.0000    0     1.008   -4.734286    3.130762   -4.070676
  24 H     1.0000    0     1.008   -8.302030    3.871782   -1.118799
  25 H     1.0000    0     1.008   -8.317286    1.803785    3.090228
  26 H     1.0000    0     1.008   -4.811443   -0.982255    4.352298

--------------------------------
INTERNAL COORDINATES (ANGSTROEM)
--------------------------------
 C      0   0   0     0.000000000000     0.00000000     0.00000000
 P      1   0   0     1.835485718690     0.00000000     0.00000000
 C      2   1   0     1.827750862188   103.50587149     0.00000000
 C      3   2   1     1.405339966614   120.15700241   151.00320447
 C      4   3   2     1.397919479773   121.20507385   179.00878376
 C      5   4   3     1.391149735466   120.04792965   359.20495073
 C      6   5   4     1.391704919036   119.68697112   359.57830454
 C      7   6   5     1.398971328353   120.18779656     0.46293782
 C      2   1   3     1.824846154604   100.55945282   105.80412697
 C      9   2   1     1.402662219070   122.89381971   302.34913659
 C     10   9   2     1.397386127722   120.77787345   179.74606531
 C     11  10   9     1.392643999229   120.09651964   359.88254288
 C     12  11  10     1.392608747276   119.83353047     0.05334834
 C     13  12  11     1.397416116805   120.07024563     0.00000000
 H      1   2   3     1.094016541719   112.80334978   313.12885695
 H      1   2   3     1.094750983589   110.09655391   192.54749534
 H      1   2   3     1.094203376719   110.59313711    74.37055317
 H      4   3   2     1.088630709878   120.50776549   358.98297550
 H      5   4   3     1.086775778785   119.80990999   179.51312416
 H      6   5   4     1.086578844074   120.13031101   180.19088178
 H      7   6   5     1.086934445500   119.95449925   180.91968300
 H      8   7   6     1.086428929356   117.88045005   181.29752293
 H     10   9   2     1.087755346822   120.63737490   359.14564319
 H     11  10   9     1.086828753354   119.85498079   179.72932548
 H     12  11  10     1.086723498696   120.08321651   179.96934340
 H     13  12  11     1.086813590046   120.05533144   179.96254789
 H     14  13  12     1.088219407966   118.73737924   179.95968974

---------------------------
INTERNAL COORDINATES (A.U.)
---------------------------
 C      0   0   0     0.000000000000     0.00000000     0.00000000
 P      1   0   0     3.468565331048     0.00000000     0.00000000
 C      2   1   0     3.453948570574   103.50587149     0.00000000
 C      3   2   1     2.655707661954   120.15700241   151.00320447
 C      4   3   2     2.641684974045   121.20507385   179.00878376
 C      5   4   3     2.628892011307   120.04792965   359.20495073
 C      6   5   4     2.629941156210   119.68697112   359.57830454
 C      7   6   5     2.643672679796   120.18779656     0.46293782
 C      2   1   3     3.448459468741   100.55945282   105.80412697
 C      9   2   1     2.650647452440   122.89381971   302.34913659
 C     10   9   2     2.640677084735   120.77787345   179.74606531
 C     11  10   9     2.631715760592   120.09651964   359.88254288
 C     12  11  10     2.631649144054   119.83353047     0.05334834
 C     13  12  11     2.640733755888   120.07024563     0.00000000
 H      1   2   3     2.067391649828   112.80334978   313.12885695
 H      1   2   3     2.068779543825   110.09655391   192.54749534
 H      1   2   3     2.067744716811   110.59313711    74.37055317
 H      4   3   2     2.057213902645   120.50776549   358.98297550
 H      5   4   3     2.053708590883   119.80990999   179.51312416
 H      6   5   4     2.053336438213   120.13031101   180.19088178
 H      7   6   5     2.054008427520   119.95449925   180.91968300
 H      8   7   6     2.053053140452   117.88045005   181.29752293
 H     10   9   2     2.055559706201   120.63737490   359.14564319
 H     11  10   9     2.053808698309   119.85498079   179.72932548
 H     12  11  10     2.053609795831   120.08321651   179.96934340
 H     13  12  11     2.053780043811   120.05533144   179.96254789
 H     14  13  12     2.056436654674   118.73737924   179.95968974

---------------------
BASIS SET INFORMATION
---------------------
There are 3 groups of distinct atoms

 Group   1 Type C   : 7s4p1d contracted to 3s2p1d pattern {511/31/1}
 Group   2 Type P   : 10s7p1d contracted to 4s3p1d pattern {5311/511/1}
 Group   3 Type H   : 4s1p contracted to 2s1p pattern {31/1}

Atom   0C    basis set group =>   1
Atom   1P    basis set group =>   2
Atom   2C    basis set group =>   1
Atom   3C    basis set group =>   1
Atom   4C    basis set group =>   1
Atom   5C    basis set group =>   1
Atom   6C    basis set group =>   1
Atom   7C    basis set group =>   1
Atom   8C    basis set group =>   1
Atom   9C    basis set group =>   1
Atom  10C    basis set group =>   1
Atom  11C    basis set group =>   1
Atom  12C    basis set group =>   1
Atom  13C    basis set group =>   1
Atom  14H    basis set group =>   3
Atom  15H    basis set group =>   3
Atom  16H    basis set group =>   3
Atom  17H    basis set group =>   3
Atom  18H    basis set group =>   3
Atom  19H    basis set group =>   3
Atom  20H    basis set group =>   3
Atom  21H    basis set group =>   3
Atom  22H    basis set group =>   3
Atom  23H    basis set group =>   3
Atom  24H    basis set group =>   3
Atom  25H    basis set group =>   3
Atom  26H    basis set group =>   3
---------------------------------
AUXILIARY/J BASIS SET INFORMATION
---------------------------------
There are 3 groups of distinct atoms

 Group   1 Type C   : 12s5p4d2f1g contracted to 6s4p3d1f1g pattern {711111/2111/211/2/1}
 Group   2 Type P   : 14s5p5d2f1g contracted to 8s4p3d1f1g pattern {71111111/2111/311/2/1}
 Group   3 Type H   : 5s2p1d contracted to 3s1p1d pattern {311/2/1}

Atom   0C    basis set group =>   1
Atom   1P    basis set group =>   2
Atom   2C    basis set group =>   1
Atom   3C    basis set group =>   1
Atom   4C    basis set group =>   1
Atom   5C    basis set group =>   1
Atom   6C    basis set group =>   1
Atom   7C    basis set group =>   1
Atom   8C    basis set group =>   1
Atom   9C    basis set group =>   1
Atom  10C    basis set group =>   1
Atom  11C    basis set group =>   1
Atom  12C    basis set group =>   1
Atom  13C    basis set group =>   1
Atom  14H    basis set group =>   3
Atom  15H    basis set group =>   3
Atom  16H    basis set group =>   3
Atom  17H    basis set group =>   3
Atom  18H    basis set group =>   3
Atom  19H    basis set group =>   3
Atom  20H    basis set group =>   3
Atom  21H    basis set group =>   3
Atom  22H    basis set group =>   3
Atom  23H    basis set group =>   3
Atom  24H    basis set group =>   3
Atom  25H    basis set group =>   3
Atom  26H    basis set group =>   3


           ************************************************************
           *        Program running with 6 parallel MPI-processes     *
           *              working on a common directory               *
           ************************************************************
------------------------------------------------------------------------------
                             ORCA STARTUP CALCULATIONS
                           -- RI-GTO INTEGRALS CHOSEN --
------------------------------------------------------------------------------
------------------------------------------------------------------------------
                   ___                                                        
                  /   \      - P O W E R E D   B Y -                         
                 /     \                                                     
                 |  |  |   _    _      __       _____    __    __             
                 |  |  |  | |  | |    /  \     |  _  \  |  |  /  |          
                  \  \/   | |  | |   /    \    | | | |  |  | /  /          
                 / \  \   | |__| |  /  /\  \   | |_| |  |  |/  /          
                |  |  |   |  __  | /  /__\  \  |    /   |      \           
                |  |  |   | |  | | |   __   |  |    \   |  |\   \          
                \     /   | |  | | |  |  |  |  | |\  \  |  | \   \       
                 \___/    |_|  |_| |__|  |__|  |_| \__\ |__|  \__/        
                                                                              
                      - O R C A' S   B I G   F R I E N D -                    
                                      &                                       
                       - I N T E G R A L  F E E D E R -                       
                                                                              
 v1 FN, 2020, v2 2021, v3 2022-2024                                           
------------------------------------------------------------------------------


----------------------
SHARK INTEGRAL PACKAGE
----------------------

Number of atoms                             ...     27
Number of basis functions                   ...    265
Number of shells                            ...    125
Maximum angular momentum                    ...      2
Integral batch strategy                     ... SHARK/LIBINT Hybrid
RI-J (if used) integral strategy            ... SPLIT-RIJ (Revised 2003 algorithm where possible)
Printlevel                                  ...      1
Contraction scheme used                     ... SEGMENTED contraction
Prescreening option                         ... SCHWARTZ
   Thresh                                   ... 2.500e-11
   Tcut                                     ... 2.500e-12
   Tpresel                                  ... 2.500e-12 
Coulomb Range Separation                    ... NOT USED
Exchange Range Separation                   ... NOT USED
Multipole approximations                    ... NOT USED
Finite Nucleus Model                        ... NOT USED
CABS basis                                  ... NOT available
Auxiliary Coulomb fitting basis             ... AVAILABLE
   # of basis functions in Aux-J            ...    831
   # of shells in Aux-J                     ...    277
   Maximum angular momentum in Aux-J        ...      4
Auxiliary J/K fitting basis                 ... NOT available
Auxiliary Correlation fitting basis         ... NOT available
Auxiliary 'external' fitting basis          ... NOT available

Checking pre-screening integrals            ... done (  0.0 sec) Dimension = 125
Check shell pair data                       ... done (  0.0 sec)
Shell pair information
Shell pair cut-off parameter TPreSel        ...   2.5e-12
Total number of shell pairs                 ...      7875
Shell pairs after pre-screening             ...      6627
Total number of primitive shell pairs       ...     28911
Primitive shell pairs kept                  ...     16344
          la=0 lb=0:   2063 shell pairs
          la=1 lb=0:   2463 shell pairs
          la=1 lb=1:    762 shell pairs
          la=2 lb=0:    794 shell pairs
          la=2 lb=1:    468 shell pairs
          la=2 lb=2:     77 shell pairs

Calculating one electron integrals          ... done (  0.0 sec)
Calculating RI/J V-Matrix + Cholesky decomp.... done (  0.0 sec)
Calculating Nuclear repulsion               ... done (  0.0 sec) ENN=    906.449457970457 Eh

Diagonalization of the overlap matrix:
Smallest eigenvalue                        ... 2.725e-04
Time for diagonalization                   ...    0.008 sec
Threshold for overlap eigenvalues          ... 1.000e-07
Number of eigenvalues below threshold      ... 0
Time for construction of square roots      ...    0.006 sec
Total time needed                          ...    0.015 sec

-------------------
DFT GRID GENERATION
-------------------

General Integration Accuracy     IntAcc      ... 4.388
Radial Grid Type                 RadialGrid  ... OptM3 with GC (2021)
Angular Grid (max. ang.)         AngularGrid ... 4 (Lebedev-302)
Angular grid pruning method      GridPruning ... 4 (adaptive)
Weight generation scheme         WeightScheme... mBecke (2022)
Basis function cutoff            BFCut       ... 1.0000e-11
Integration weight cutoff        WCut        ... 1.0000e-14
Partially contracted basis set               ... off
Rotationally invariant grid construction     ... off
Angular grids for H and He will be reduced by one unit

Total number of grid points                  ...   126724
Total number of batches                      ...     1995
Average number of points per batch           ...       63
Average number of grid points per atom       ...     4693
Initializing property integral containers    ... done (  0.0 sec)

SHARK setup successfully completed in   0.9 seconds

Maximum memory used throughout the entire STARTUP-calculation: 33.2 MB


           ************************************************************
           *        Program running with 6 parallel MPI-processes     *
           *              working on a common directory               *
           ************************************************************
-------------------------------------------------------------------------------
                                 ORCA GUESS
                   Start orbitals & Density for SCF / CASSCF
-------------------------------------------------------------------------------

------------
SCF SETTINGS
------------
Hamiltonian:
 Density Functional     Method          .... DFT(GTOs)
 Exchange Functional    Exchange        .... B88
   X-Alpha parameter    XAlpha          ....  0.666667
   Becke's b parameter  XBeta           ....  0.004200
 Correlation Functional Correlation     .... LYP
 LDA part of GGA corr.  LDAOpt          .... VWN-5
 Gradients option       PostSCFGGA      .... off
 Hybrid DFT is turned on
   Fraction HF Exchange ScalHFX         ....  0.200000
   Scaling of DF-GGA-X  ScalDFX         ....  0.720000
   Scaling of DF-GGA-C  ScalDFC         ....  0.810000
   Scaling of DF-LDA-C  ScalLDAC        ....  1.000000
   Perturbative correction              ....  0.000000
   NL short-range parameter             ....  4.800000
 RI-approximation to the Coulomb term is turned on
   Number of AuxJ basis functions       .... 831
   RIJ-ON(X) (HFX calculated with O(N)) .... on


General Settings:
 Integral files         IntName         .... data/geom_opt/73879/73879
 Hartree-Fock type      HFTyp           .... RHF
 Total Charge           Charge          ....    0
 Multiplicity           Mult            ....    1
 Number of Electrons    NEL             ....  106
 Basis Dimension        Dim             ....  265
 Nuclear Repulsion      ENuc            ....    906.4494579705 Eh

Convergence Acceleration:
 AO-DIIS                CNVDIIS         .... on
   Start iteration      DIISMaxIt       ....    12
   Startup error        DIISStart       ....  0.200000
   # of expansion vecs  DIISMaxEq       ....     5
   Bias factor          DIISBfac        ....   1.050
   Max. coefficient     DIISMaxC        ....  10.000
 MO-DIIS                CNVKDIIS        .... off
 Trust-Rad. Augm. Hess. CNVTRAH         .... auto
   Auto Start mean grad. ratio tolernc. ....  1.125000
   Auto Start start iteration           ....    50
   Auto Start num. interpolation iter.  ....    10
   Max. Number of Micro iterations      ....    24
   Max. Number of Macro iterations      .... Maxiter - #DIIS iter
   Number of Davidson start vectors     ....     2
   Converg. threshold    (grad. norm)   ....   1.000e-05
   Grad. Scal. Fac. for Micro threshold ....   0.100
   Minimum threshold for Micro iter.    ....   1.000e-02
   NR start threshold (gradient norm)   ....   1.000e-04
   Initial trust radius                 ....   0.400
   Minimum AH scaling param. (alpha)    ....   1.000
   Maximum AH scaling param. (alpha)    .... 1000.000
   Quad. conv. algorithm                .... NR
   White noise on init. David. guess    .... on
   Maximum white noise                  ....   0.010
   Pseudo random numbers                .... off
   Inactive MOs                         .... canonical
   Orbital update algorithm             .... Taylor
   Preconditioner                       .... Diag
   Full preconditioner red. dimension   ....   250
   COSX micro iterations for RIJONX calc.... off
 SOSCF                  CNVSOSCF        .... on
   Start iteration      SOSCFMaxIt      ....   150
   Startup grad/error   SOSCFStart      ....  0.003300
   Hessian update       SOSCFHessUp     .... L-BFGS
 Level Shifting         CNVShift        .... on
   Level shift para.    LevelShift      ....    0.2500
   Turn off err/grad.   ShiftErr        ....    0.0010
 Zerner damping         CNVZerner       .... off
 Static damping         CNVDamp         .... on
   Fraction old density DampFac         ....    0.7000
   Max. Damping (<1)    DampMax         ....    0.9800
   Min. Damping (>=0)   DampMin         ....    0.0000
   Turn off err/grad.   DampErr         ....    0.1000

SCF Procedure:
 Maximum # iterations   MaxIter         ....   125
 SCF integral mode      SCFMode         .... Direct
   Integral package                     .... SHARK and LIBINT hybrid scheme
 Reset frequency        DirectResetFreq ....    20
 Integral Threshold     Thresh          ....  2.500e-11 Eh
 Primitive CutOff       TCut            ....  2.500e-12 Eh

Convergence Tolerance:
 Convergence Check Mode ConvCheckMode   .... Total+1el-Energy
 Convergence forced     ConvForced      .... 0
 Energy Change          TolE            ....  1.000e-08 Eh
 1-El. energy change                    ....  1.000e-05 Eh
 Orbital Gradient       TolG            ....  1.000e-05
 Orbital Rotation angle TolX            ....  1.000e-05
 DIIS Error             TolErr          ....  5.000e-07

------------------------------
INITIAL GUESS: MODEL POTENTIAL
------------------------------
Loading Hartree-Fock densities                     ... done
Calculating cut-offs                               ... done
Initializing the effective Hamiltonian             ... done
Setting up the integral package (SHARK)            ... done
Starting the Coulomb interaction                   ... done (   0.1 sec)
Making the grid                                    ... done (   0.2 sec)
Mapping shells                                     ... done
Starting the XC term evaluation                    ... done (   0.1 sec)
  promolecular density results
     # of electrons  =    106.000626621
     EX              =    -93.321669702
     EC              =     -3.624226863
     EX+EC           =    -96.945896565
Transforming the Hamiltonian                       ... done (   0.0 sec)
Diagonalizing the Hamiltonian                      ... done (   0.0 sec)
Back transforming the eigenvectors                 ... done (   0.0 sec)
Now organizing SCF variables                       ... done
                      ------------------
                      INITIAL GUESS DONE (   0.3 sec)
                      ------------------
             **** ENERGY FILE WAS UPDATED (data/geom_opt/73879/73879.en.tmp) ****
Finished Guess after   0.4 sec
Maximum memory used throughout the entire GUESS-calculation: 18.3 MB


           ************************************************************
           *        Program running with 6 parallel MPI-processes     *
           *              working on a common directory               *
           ************************************************************

-------------------------------------------------------------------------------------------
                                      ORCA LEAN-SCF
                              memory conserving SCF solver
-------------------------------------------------------------------------------------------

----------------------------------------D-I-I-S--------------------------------------------
Iteration    Energy (Eh)           Delta-E    RMSDP     MaxDP     DIISErr   Damp  Time(sec)
-------------------------------------------------------------------------------------------
               ***  Starting incremental Fock matrix formation  ***
    1    -843.4028428454039386     0.00e+00  2.85e-03  8.71e-02  1.76e-01  0.700   2.0
    2    -843.5474487296662573    -1.45e-01  2.04e-03  5.34e-02  9.14e-02  0.700   1.9
                               ***Turning on AO-DIIS***
    3    -843.6097839724345704    -6.23e-02  9.75e-04  3.37e-02  3.43e-02  0.700   1.9
    4    -843.6456503213628366    -3.59e-02  1.89e-03  7.88e-02  1.71e-02  0.000   1.8
    5    -843.7224455112375381    -7.68e-02  2.42e-04  1.02e-02  5.22e-03  0.000   1.9
                              *** Initializing SOSCF ***
---------------------------------------S-O-S-C-F--------------------------------------
Iteration    Energy (Eh)           Delta-E    RMSDP     MaxDP     MaxGrad    Time(sec)
--------------------------------------------------------------------------------------
    6    -843.7229054535923751    -4.60e-04  8.57e-05  2.07e-03  1.51e-03     1.7
               *** Restarting incremental Fock matrix formation ***
    7    -843.7229379485543177    -3.25e-05  5.83e-05  1.54e-03  1.74e-04     2.0
    8    -843.7229379470218191     1.53e-09  2.05e-05  5.70e-04  2.99e-04     1.5
                 **** Energy Check signals convergence ****

               *****************************************************
               *                     SUCCESS                       *
               *           SCF CONVERGED AFTER   8 CYCLES          *
               *****************************************************

             **** ENERGY FILE WAS UPDATED (data/geom_opt/73879/73879.en.tmp) ****

----------------
TOTAL SCF ENERGY
----------------

Total Energy       :       -843.72293794702182 Eh          -22958.86835 eV

Components:
Nuclear Repulsion  :        906.44945797045693 Eh           24665.74373 eV
Electronic Energy  :      -1750.17239591747875 Eh          -47624.61208 eV
One Electron Energy:      -2949.45950606607630 Eh          -80258.87344 eV
Two Electron Energy:       1199.28711014859755 Eh           32634.26136 eV

Virial components:
Potential Energy   :      -1681.17449523384039 Eh          -45747.08375 eV
Kinetic Energy     :        837.45155728681857 Eh           22788.21540 eV
Virial Ratio       :          2.00748864887245

DFT components:
N(Alpha)           :       52.999952204230 electrons
N(Beta)            :       52.999952204230 electrons
N(Total)           :      105.999904408460 electrons
E(X)               :      -75.033118343948 Eh       
E(C)               :       -4.275560280537 Eh       
E(XC)              :      -79.308678624485 Eh       

---------------
SCF CONVERGENCE
---------------

  Last Energy change         ...   -1.5325e-09  Tolerance :   1.0000e-08
  Last MAX-Density change    ...    5.7030e-04  Tolerance :   1.0000e-07
  Last RMS-Density change    ...    2.0516e-05  Tolerance :   5.0000e-09
  Last DIIS Error            ...    1.5108e-03  Tolerance :   5.0000e-07
  Last Orbital Gradient      ...    2.9895e-04  Tolerance :   1.0000e-05
  Last Orbital Rotation      ...    5.4158e-04  Tolerance :   1.0000e-05


----------------
ORBITAL ENERGIES
----------------

  NO   OCC          E(Eh)            E(eV) 
   0   2.0000     -77.042033     -2096.4203 
   1   2.0000     -10.192743      -277.3586 
   2   2.0000     -10.191377      -277.3215 
   3   2.0000     -10.190552      -277.2990 
   4   2.0000     -10.189971      -277.2832 
   5   2.0000     -10.188736      -277.2496 
   6   2.0000     -10.188447      -277.2417 
   7   2.0000     -10.188246      -277.2363 
   8   2.0000     -10.187325      -277.2112 
   9   2.0000     -10.186001      -277.1752 
  10   2.0000     -10.185909      -277.1727 
  11   2.0000     -10.185461      -277.1605 
  12   2.0000     -10.183696      -277.1125 
  13   2.0000     -10.181199      -277.0445 
  14   2.0000      -6.539668      -177.9534 
  15   2.0000      -4.705199      -128.0350 
  16   2.0000      -4.704927      -128.0276 
  17   2.0000      -4.702010      -127.9482 
  18   2.0000      -0.850346       -23.1391 
  19   2.0000      -0.843122       -22.9425 
  20   2.0000      -0.764533       -20.8040 
  21   2.0000      -0.738836       -20.1048 
  22   2.0000      -0.735682       -20.0189 
  23   2.0000      -0.732458       -19.9312 
  24   2.0000      -0.705429       -19.1957 
  25   2.0000      -0.621936       -16.9237 
  26   2.0000      -0.600516       -16.3409 
  27   2.0000      -0.595964       -16.2170 
  28   2.0000      -0.590248       -16.0615 
  29   2.0000      -0.550596       -14.9825 
  30   2.0000      -0.516036       -14.0421 
  31   2.0000      -0.494935       -13.4679 
  32   2.0000      -0.456013       -12.4088 
  33   2.0000      -0.453176       -12.3316 
  34   2.0000      -0.447651       -12.1812 
  35   2.0000      -0.441387       -12.0108 
  36   2.0000      -0.424830       -11.5602 
  37   2.0000      -0.423446       -11.5226 
  38   2.0000      -0.415869       -11.3164 
  39   2.0000      -0.411827       -11.2064 
  40   2.0000      -0.390075       -10.6145 
  41   2.0000      -0.383244       -10.4286 
  42   2.0000      -0.370118       -10.0714 
  43   2.0000      -0.364869        -9.9286 
  44   2.0000      -0.347908        -9.4671 
  45   2.0000      -0.345755        -9.4085 
  46   2.0000      -0.332511        -9.0481 
  47   2.0000      -0.320628        -8.7247 
  48   2.0000      -0.271976        -7.4008 
  49   2.0000      -0.257564        -7.0087 
  50   2.0000      -0.256490        -6.9794 
  51   2.0000      -0.250090        -6.8053 
  52   2.0000      -0.209501        -5.7008 
  53   0.0000      -0.023245        -0.6325 
  54   0.0000      -0.014573        -0.3966 
  55   0.0000      -0.010681        -0.2906 
  56   0.0000      -0.002245        -0.0611 
  57   0.0000       0.058111         1.5813 
  58   0.0000       0.063421         1.7258 
  59   0.0000       0.069617         1.8944 
  60   0.0000       0.093186         2.5357 
  61   0.0000       0.097072         2.6415 
  62   0.0000       0.102056         2.7771 
  63   0.0000       0.106397         2.8952 
*Only the first 10 virtual orbitals were printed.

                    ********************************
                    * MULLIKEN POPULATION ANALYSIS *
                    ********************************

-----------------------
MULLIKEN ATOMIC CHARGES
-----------------------
   0 C :   -0.129003
   1 P :    0.249735
   2 C :   -0.094289
   3 C :    0.005516
   4 C :    0.025133
   5 C :    0.020035
   6 C :    0.030016
   7 C :   -0.013312
   8 C :   -0.135225
   9 C :    0.027442
  10 C :    0.025520
  11 C :    0.028357
  12 C :    0.022018
  13 C :    0.018150
  14 H :    0.033298
  15 H :    0.047224
  16 H :    0.048017
  17 H :   -0.017273
  18 H :   -0.021230
  19 H :   -0.022418
  20 H :   -0.023438
  21 H :   -0.032819
  22 H :   -0.013414
  23 H :   -0.020372
  24 H :   -0.017799
  25 H :   -0.018609
  26 H :   -0.021262
Sum of atomic charges:   -0.0000000

--------------------------------
MULLIKEN REDUCED ORBITAL CHARGES
--------------------------------
  0 C s       :     3.043345  s :     3.043345
      pz      :     1.018691  p :     3.062686
      px      :     1.025854
      py      :     1.018142
      dz2     :     0.007574  d :     0.022972
      dxz     :     0.001050
      dyz     :     0.005145
      dx2y2   :     0.002487
      dxy     :     0.006715

  1 P s       :     5.724520  s :     5.724520
      pz      :     3.290658  p :     8.846981
      px      :     2.742463
      py      :     2.813860
      dz2     :     0.025382  d :     0.178763
      dxz     :     0.025500
      dyz     :     0.041087
      dx2y2   :     0.030284
      dxy     :     0.056511

  2 C s       :     3.048978  s :     3.048978
      pz      :     0.989371  p :     3.008831
      px      :     1.014643
      py      :     1.004817
      dz2     :     0.004523  d :     0.036481
      dxz     :     0.005421
      dyz     :     0.006637
      dx2y2   :     0.009406
      dxy     :     0.010494

  3 C s       :     3.213102  s :     3.213102
      pz      :     0.952114  p :     2.746629
      px      :     0.861252
      py      :     0.933263
      dz2     :     0.002904  d :     0.034753
      dxz     :     0.004816
      dyz     :     0.006138
      dx2y2   :     0.010004
      dxy     :     0.010891

  4 C s       :     3.157620  s :     3.157620
      pz      :     0.974097  p :     2.781839
      px      :     0.967078
      py      :     0.840664
      dz2     :     0.004031  d :     0.035409
      dxz     :     0.006444
      dyz     :     0.004109
      dx2y2   :     0.011560
      dxy     :     0.009265

  5 C s       :     3.156939  s :     3.156939
      pz      :     0.981387  p :     2.787655
      px      :     0.878429
      py      :     0.927838
      dz2     :     0.004202  d :     0.035371
      dxz     :     0.004105
      dyz     :     0.006161
      dx2y2   :     0.009602
      dxy     :     0.011301

  6 C s       :     3.155397  s :     3.155397
      pz      :     0.955567  p :     2.779236
      px      :     0.883223
      py      :     0.940446
      dz2     :     0.002854  d :     0.035351
      dxz     :     0.004683
      dyz     :     0.006475
      dx2y2   :     0.010386
      dxy     :     0.010953

  7 C s       :     3.212869  s :     3.212869
      pz      :     0.988641  p :     2.765559
      px      :     0.938125
      py      :     0.838792
      dz2     :     0.003831  d :     0.034883
      dxz     :     0.006290
      dyz     :     0.003868
      dx2y2   :     0.011871
      dxy     :     0.009023

  8 C s       :     3.076843  s :     3.076843
      pz      :     1.000040  p :     3.021683
      px      :     1.009375
      py      :     1.012268
      dz2     :     0.009180  d :     0.036699
      dxz     :     0.009724
      dyz     :     0.007512
      dx2y2   :     0.004525
      dxy     :     0.005759

  9 C s       :     3.212395  s :     3.212395
      pz      :     0.921142  p :     2.724963
      px      :     0.865370
      py      :     0.938451
      dz2     :     0.007641  d :     0.035200
      dxz     :     0.010192
      dyz     :     0.006331
      dx2y2   :     0.005972
      dxy     :     0.005063

 10 C s       :     3.159143  s :     3.159143
      pz      :     0.859151  p :     2.780223
      px      :     0.969493
      py      :     0.951580
      dz2     :     0.007846  d :     0.035113
      dxz     :     0.008209
      dyz     :     0.005898
      dx2y2   :     0.006761
      dxy     :     0.006399

 11 C s       :     3.158054  s :     3.158054
      pz      :     0.957078  p :     2.778152
      px      :     0.895261
      py      :     0.925813
      dz2     :     0.009517  d :     0.035437
      dxz     :     0.009257
      dyz     :     0.006752
      dx2y2   :     0.003967
      dxy     :     0.005945

 12 C s       :     3.159911  s :     3.159911
      pz      :     0.914913  p :     2.783098
      px      :     0.894803
      py      :     0.973383
      dz2     :     0.007733  d :     0.034972
      dxz     :     0.009943
      dyz     :     0.006448
      dx2y2   :     0.005833
      dxy     :     0.005015

 13 C s       :     3.225876  s :     3.225876
      pz      :     0.863553  p :     2.720853
      px      :     0.938241
      py      :     0.919059
      dz2     :     0.007879  d :     0.035121
      dxz     :     0.008118
      dyz     :     0.005729
      dx2y2   :     0.006818
      dxy     :     0.006577

 14 H s       :     0.942799  s :     0.942799
      pz      :     0.012466  p :     0.023903
      px      :     0.005142
      py      :     0.006296

 15 H s       :     0.928833  s :     0.928833
      pz      :     0.004727  p :     0.023943
      px      :     0.012382
      py      :     0.006833

 16 H s       :     0.927940  s :     0.927940
      pz      :     0.005014  p :     0.024043
      px      :     0.009423
      py      :     0.009606

 17 H s       :     0.994017  s :     0.994017
      pz      :     0.006816  p :     0.023255
      px      :     0.010662
      py      :     0.005778

 18 H s       :     0.998236  s :     0.998236
      pz      :     0.005239  p :     0.022994
      px      :     0.003604
      py      :     0.014151

 19 H s       :     0.999389  s :     0.999389
      pz      :     0.004934  p :     0.023029
      px      :     0.011268
      py      :     0.006827

 20 H s       :     1.000421  s :     1.000421
      pz      :     0.006657  p :     0.023017
      px      :     0.010774
      py      :     0.005586

 21 H s       :     1.009632  s :     1.009632
      pz      :     0.005366  p :     0.023188
      px      :     0.003738
      py      :     0.014083

 22 H s       :     0.990308  s :     0.990308
      pz      :     0.008209  p :     0.023106
      px      :     0.010448
      py      :     0.004449

 23 H s       :     0.997377  s :     0.997377
      pz      :     0.012835  p :     0.022995
      px      :     0.003699
      py      :     0.006461

 24 H s       :     0.994849  s :     0.994849
      pz      :     0.004401  p :     0.022950
      px      :     0.010253
      py      :     0.008296

 25 H s       :     0.995606  s :     0.995606
      pz      :     0.008187  p :     0.023003
      px      :     0.010312
      py      :     0.004504

 26 H s       :     0.998165  s :     0.998165
      pz      :     0.013021  p :     0.023097
      px      :     0.003660
      py      :     0.006416



                     *******************************
                     * LOEWDIN POPULATION ANALYSIS *
                     *******************************

----------------------
LOEWDIN ATOMIC CHARGES
----------------------
   0 C :   -0.206344
   1 P :    0.495427
   2 C :   -0.174755
   3 C :   -0.028985
   4 C :   -0.022978
   5 C :   -0.029528
   6 C :   -0.023580
   7 C :   -0.039818
   8 C :   -0.180555
   9 C :   -0.018246
  10 C :   -0.025132
  11 C :   -0.017952
  12 C :   -0.025775
  13 C :   -0.026394
  14 H :    0.018743
  15 H :    0.033424
  16 H :    0.025634
  17 H :    0.024528
  18 H :    0.025846
  19 H :    0.024400
  20 H :    0.025014
  21 H :    0.020258
  22 H :    0.024990
  23 H :    0.025929
  24 H :    0.026239
  25 H :    0.026249
  26 H :    0.023359

-------------------------------
LOEWDIN REDUCED ORBITAL CHARGES
-------------------------------
  0 C s       :     2.892571  s :     2.892571
      pz      :     1.090942  p :     3.255520
      px      :     1.081737
      py      :     1.082841
      dz2     :     0.019193  d :     0.058253
      dxz     :     0.002261
      dyz     :     0.013602
      dx2y2   :     0.006136
      dxy     :     0.017062

  1 P s       :     5.257219  s :     5.257219
      pz      :     3.349707  p :     9.004880
      px      :     2.787980
      py      :     2.867193
      dz2     :     0.034548  d :     0.242474
      dxz     :     0.031718
      dyz     :     0.056050
      dx2y2   :     0.040785
      dxy     :     0.079374

  2 C s       :     2.913526  s :     2.913526
      pz      :     1.003376  p :     3.169885
      px      :     1.084759
      py      :     1.081750
      dz2     :     0.009501  d :     0.091344
      dxz     :     0.012867
      dyz     :     0.015716
      dx2y2   :     0.025977
      dxy     :     0.027283

  3 C s       :     2.862596  s :     2.862596
      pz      :     0.986147  p :     3.075491
      px      :     1.038084
      py      :     1.051260
      dz2     :     0.006763  d :     0.090898
      dxz     :     0.011075
      dyz     :     0.014485
      dx2y2   :     0.027662
      dxy     :     0.030913

  4 C s       :     2.859732  s :     2.859732
      pz      :     0.985440  p :     3.071603
      px      :     1.053421
      py      :     1.032742
      dz2     :     0.009030  d :     0.091642
      dxz     :     0.016050
      dyz     :     0.009481
      dx2y2   :     0.030979
      dxy     :     0.026103

  5 C s       :     2.858412  s :     2.858412
      pz      :     0.990625  p :     3.079263
      px      :     1.034148
      py      :     1.054490
      dz2     :     0.009407  d :     0.091854
      dxz     :     0.010035
      dyz     :     0.015054
      dx2y2   :     0.026917
      dxy     :     0.030441

  6 C s       :     2.860012  s :     2.860012
      pz      :     0.981213  p :     3.072072
      px      :     1.032313
      py      :     1.058545
      dz2     :     0.006598  d :     0.091497
      dxz     :     0.010649
      dyz     :     0.015253
      dx2y2   :     0.028606
      dxy     :     0.030390

  7 C s       :     2.861140  s :     2.861140
      pz      :     0.995172  p :     3.087113
      px      :     1.055383
      py      :     1.036559
      dz2     :     0.008514  d :     0.091564
      dxz     :     0.015667
      dyz     :     0.008937
      dx2y2   :     0.032790
      dxy     :     0.025655

  8 C s       :     2.912234  s :     2.912234
      pz      :     1.079803  p :     3.175828
      px      :     1.064200
      py      :     1.031825
      dz2     :     0.023825  d :     0.092492
      dxz     :     0.026384
      dyz     :     0.019252
      dx2y2   :     0.010181
      dxy     :     0.012851

  9 C s       :     2.864681  s :     2.864681
      pz      :     1.040241  p :     3.061460
      px      :     1.025395
      py      :     0.995824
      dz2     :     0.020478  d :     0.092105
      dxz     :     0.026922
      dyz     :     0.017282
      dx2y2   :     0.013720
      dxy     :     0.013704

 10 C s       :     2.860528  s :     2.860528
      pz      :     1.028516  p :     3.073504
      px      :     1.044756
      py      :     1.000232
      dz2     :     0.020342  d :     0.091100
      dxz     :     0.022772
      dyz     :     0.014459
      dx2y2   :     0.016311
      dxy     :     0.017215

 11 C s       :     2.860295  s :     2.860295
      pz      :     1.051874  p :     3.065930
      px      :     1.025223
      py      :     0.988834
      dz2     :     0.025303  d :     0.091727
      dxz     :     0.025490
      dyz     :     0.017287
      dx2y2   :     0.009261
      dxy     :     0.014387

 12 C s       :     2.860559  s :     2.860559
      pz      :     1.041450  p :     3.074452
      px      :     1.026808
      py      :     1.006194
      dz2     :     0.020753  d :     0.090764
      dxz     :     0.025949
      dyz     :     0.017159
      dx2y2   :     0.013489
      dxy     :     0.013414

 13 C s       :     2.867730  s :     2.867730
      pz      :     1.029729  p :     3.066854
      px      :     1.043411
      py      :     0.993713
      dz2     :     0.020797  d :     0.091810
      dxz     :     0.022298
      dyz     :     0.014232
      dx2y2   :     0.016640
      dxy     :     0.017843

 14 H s       :     0.911005  s :     0.911005
      pz      :     0.039535  p :     0.070252
      px      :     0.013074
      py      :     0.017643

 15 H s       :     0.898034  s :     0.898034
      pz      :     0.013317  p :     0.068542
      px      :     0.035034
      py      :     0.020191

 16 H s       :     0.905347  s :     0.905347
      pz      :     0.014062  p :     0.069019
      px      :     0.026310
      py      :     0.028647

 17 H s       :     0.906983  s :     0.906983
      pz      :     0.020208  p :     0.068489
      px      :     0.030642
      py      :     0.017639

 18 H s       :     0.906736  s :     0.906736
      pz      :     0.015801  p :     0.067418
      px      :     0.011648
      py      :     0.039968

 19 H s       :     0.907969  s :     0.907969
      pz      :     0.015062  p :     0.067630
      px      :     0.032173
      py      :     0.020395

 20 H s       :     0.907545  s :     0.907545
      pz      :     0.019557  p :     0.067441
      px      :     0.030831
      py      :     0.017053

 21 H s       :     0.910981  s :     0.910981
      pz      :     0.016275  p :     0.068760
      px      :     0.011861
      py      :     0.040624

 22 H s       :     0.906822  s :     0.906822
      pz      :     0.024450  p :     0.068188
      px      :     0.030120
      py      :     0.013618

 23 H s       :     0.906394  s :     0.906394
      pz      :     0.036509  p :     0.067677
      px      :     0.011989
      py      :     0.019178

 24 H s       :     0.906296  s :     0.906296
      pz      :     0.013923  p :     0.067465
      px      :     0.029474
      py      :     0.024067

 25 H s       :     0.906134  s :     0.906134
      pz      :     0.023975  p :     0.067617
      px      :     0.029698
      py      :     0.013944

 26 H s       :     0.908121  s :     0.908121
      pz      :     0.037798  p :     0.068520
      px      :     0.011622
      py      :     0.019100



                      *****************************
                      * MAYER POPULATION ANALYSIS *
                      *****************************

  NA   - Mulliken gross atomic population
  ZA   - Total nuclear charge
  QA   - Mulliken gross atomic charge
  VA   - Mayer's total valence
  BVA  - Mayer's bonded valence
  FA   - Mayer's free valence

  ATOM       NA         ZA         QA         VA         BVA        FA
  0 C      6.1290     6.0000    -0.1290     3.9126     3.9126    -0.0000
  1 P     14.7503    15.0000     0.2497     3.0092     3.0092    -0.0000
  2 C      6.0943     6.0000    -0.0943     3.7519     3.7519     0.0000
  3 C      5.9945     6.0000     0.0055     3.8985     3.8985    -0.0000
  4 C      5.9749     6.0000     0.0251     3.8619     3.8619    -0.0000
  5 C      5.9800     6.0000     0.0200     3.8333     3.8333    -0.0000
  6 C      5.9700     6.0000     0.0300     3.8576     3.8576     0.0000
  7 C      6.0133     6.0000    -0.0133     3.9033     3.9033     0.0000
  8 C      6.1352     6.0000    -0.1352     3.7779     3.7779    -0.0000
  9 C      5.9726     6.0000     0.0274     3.8671     3.8671    -0.0000
 10 C      5.9745     6.0000     0.0255     3.8477     3.8477    -0.0000
 11 C      5.9716     6.0000     0.0284     3.8285     3.8285     0.0000
 12 C      5.9780     6.0000     0.0220     3.8430     3.8430    -0.0000
 13 C      5.9818     6.0000     0.0182     3.8686     3.8686    -0.0000
 14 H      0.9667     1.0000     0.0333     0.9970     0.9970     0.0000
 15 H      0.9528     1.0000     0.0472     0.9900     0.9900    -0.0000
 16 H      0.9520     1.0000     0.0480     0.9853     0.9853    -0.0000
 17 H      1.0173     1.0000    -0.0173     0.9902     0.9902    -0.0000
 18 H      1.0212     1.0000    -0.0212     0.9768     0.9768    -0.0000
 19 H      1.0224     1.0000    -0.0224     0.9768     0.9768    -0.0000
 20 H      1.0234     1.0000    -0.0234     0.9764     0.9764     0.0000
 21 H      1.0328     1.0000    -0.0328     0.9906     0.9906     0.0000
 22 H      1.0134     1.0000    -0.0134     0.9896     0.9896    -0.0000
 23 H      1.0204     1.0000    -0.0204     0.9772     0.9772    -0.0000
 24 H      1.0178     1.0000    -0.0178     0.9770     0.9770     0.0000
 25 H      1.0186     1.0000    -0.0186     0.9772     0.9772     0.0000
 26 H      1.0213     1.0000    -0.0213     0.9954     0.9954    -0.0000

  Mayer bond orders larger than 0.100000
B(  0-C ,  1-P ) :   1.0031 B(  0-C , 14-H ) :   0.9483 B(  0-C , 15-H ) :   0.9617 
B(  0-C , 16-H ) :   0.9593 B(  1-P ,  2-C ) :   0.9189 B(  1-P ,  8-C ) :   0.9352 
B(  2-C ,  3-C ) :   1.3706 B(  2-C ,  7-C ) :   1.3737 B(  3-C ,  4-C ) :   1.4146 
B(  3-C , 17-H ) :   0.9825 B(  4-C ,  5-C ) :   1.3750 B(  4-C , 18-H ) :   0.9858 
B(  5-C ,  6-C ) :   1.3873 B(  5-C , 19-H ) :   0.9859 B(  6-C ,  7-C ) :   1.3993 
B(  6-C , 20-H ) :   0.9837 B(  7-C , 21-H ) :   0.9830 B(  8-C ,  9-C ) :   1.3551 
B(  8-C , 13-C ) :   1.3852 B(  9-C , 10-C ) :   1.4071 B(  9-C , 22-H ) :   0.9822 
B( 10-C , 11-C ) :   1.3720 B( 10-C , 23-H ) :   0.9854 B( 11-C , 12-C ) :   1.3903 
B( 11-C , 24-H ) :   0.9862 B( 12-C , 13-C ) :   1.3815 B( 12-C , 25-H ) :   0.9870 
B( 13-C , 26-H ) :   0.9897 

-------
TIMINGS
-------

Total SCF time: 0 days 0 hours 0 min 14 sec 

Total time                  ....      14.777 sec
Sum of individual times     ....      14.738 sec  ( 99.7%)

SCF preparation             ....       0.095 sec  (  0.6%)
Fock matrix formation       ....      14.254 sec  ( 96.5%)
  Startup                   ....       0.021 sec  (  0.1% of F)
  Exchange formation        ....      10.855 sec  ( 76.2% of F)
  Split-RI-J                ....       1.041 sec  (  7.3% of F)
  XC integration            ....       2.255 sec  ( 15.8% of F)
    Basis function eval.    ....       0.604 sec  ( 26.8% of XC)
    Density eval.           ....       0.556 sec  ( 24.7% of XC)
    XC-Functional eval.     ....       0.069 sec  (  3.1% of XC)
    XC-Potential eval.      ....       0.660 sec  ( 29.3% of XC)
Diagonalization             ....       0.000 sec  (  0.0%)
Density matrix formation    ....       0.047 sec  (  0.3%)
Total Energy calculation    ....       0.021 sec  (  0.1%)
Population analysis         ....       0.045 sec  (  0.3%)
Orbital Transformation      ....       0.038 sec  (  0.3%)
Orbital Orthonormalization  ....       0.000 sec  (  0.0%)
DIIS solution               ....       0.186 sec  (  1.3%)
SOSCF solution              ....       0.052 sec  (  0.4%)
Finished LeanSCF after  14.8 sec

Maximum memory used throughout the entire LEANSCF-calculation: 25.8 MB


-------------------------------------------------------------------------------
                          DFT DISPERSION CORRECTION                            
                                                                               
                              DFTD3 V3.1  Rev 1                                
                          USING Becke-Johnson damping                          
-------------------------------------------------------------------------------
The B3LYP functional is recognized
Active option DFTDOPT                   ...         4   

molecular C6(AA) [au] = 9884.713732 


            DFT-D V3
 parameters
 s6 scaling factor         :     1.0000 
 a1 scaling factor         :     0.3981 
 s8 scaling factor         :     1.9889 
 a2 scaling factor         :     4.4211 
 ad hoc parameters k1-k3   :    16.0000     1.3333    -4.0000 

 Edisp/kcal,au: -38.738810619740  -0.061734217711 
 E6   /kcal   : -17.476771242 
 E8   /kcal   : -21.262039378 
 % E8         :  54.885627715 

-------------------------   ----------------
Dispersion correction           -0.061734218
-------------------------   ----------------


-------------------------   --------------------
FINAL SINGLE POINT ENERGY      -843.784672164733
-------------------------   --------------------



           ************************************************************
           *        Program running with 6 parallel MPI-processes     *
           *              working on a common directory               *
           ************************************************************
------------------------------------------------------------------------------
                         ORCA SCF GRADIENT CALCULATION
------------------------------------------------------------------------------

Nuc. rep. gradient        (SHARK) ... done (  0.0 sec)
HCore & Overlap gradient  (SHARK) ... done (  0.1 sec)
Split-RIJ-J gradient      (SHARK) ... done (  0.6 sec)
O(N)X-gradient            (SHARK) ... done (  5.6 sec)
XC gradient                       ... done (  2.3 sec)
Dispersion correction             ... done (  0.1 sec)

-------------------
DISPERSION GRADIENT
-------------------

   1   C   :   -0.000098599   -0.000887626   -0.000175613
   2   P   :   -0.000113815   -0.000769484    0.000597692
   3   C   :    0.000652651    0.000057092    0.000320933
   4   C   :    0.000639914    0.000093761    0.000255212
   5   C   :    0.000351746    0.000457088    0.000099709
   6   C   :    0.000232173    0.000137095   -0.000016003
   7   C   :    0.000526308    0.000016450   -0.000140463
   8   C   :    0.000482288    0.000142664    0.000152793
   9   C   :   -0.000647984    0.000063831    0.000110620
  10   C   :   -0.000710693    0.000249262   -0.000209364
  11   C   :   -0.000345003    0.000323812   -0.000395247
  12   C   :   -0.000227850    0.000139017   -0.000063063
  13   C   :   -0.000466941    0.000172814    0.000150445
  14   C   :   -0.000289156    0.000012109    0.000075103
  15   H   :   -0.000053390   -0.000409975   -0.000307364
  16   H   :   -0.000059357   -0.000409130   -0.000097767
  17   H   :   -0.000049712   -0.000383180   -0.000070545
  18   H   :    0.000189297    0.000381348    0.000282075
  19   H   :    0.000045165    0.000287836    0.000077681
  20   H   :    0.000234686    0.000152917   -0.000052587
  21   H   :    0.000248951   -0.000107111   -0.000123475
  22   H   :    0.000315717   -0.000229075   -0.000095315
  23   H   :   -0.000158903    0.000184720   -0.000510416
  24   H   :   -0.000035921    0.000143337   -0.000268757
  25   H   :   -0.000218037    0.000169120   -0.000075573
  26   H   :   -0.000230880    0.000052747    0.000174432
  27   H   :   -0.000212656   -0.000041439    0.000304858

Difference to translation invariance:
           :   -0.0000000000   -0.0000000000   -0.0000000000

Difference to rotation invariance:
           :   -0.0000000000    0.0000000000   -0.0000000000

Norm of the Dispersion gradient    ...    0.0027682075
RMS gradient                       ...    0.0003075786
MAX gradient                       ...    0.0008876258

------------------
CARTESIAN GRADIENT
------------------

   1   C   :   -0.003583978    0.002687152    0.007443939
   2   P   :    0.001577968    0.007445320   -0.019318398
   3   C   :   -0.002343622   -0.003073369    0.006395462
   4   C   :   -0.002361707   -0.003764261   -0.000320012
   5   C   :    0.005663537    0.004691072   -0.002252165
   6   C   :   -0.002876808   -0.000326035    0.001320986
   7   C   :    0.003898828    0.001782271   -0.002897065
   8   C   :   -0.004478909   -0.001576501    0.001416137
   9   C   :    0.004209000   -0.005699583    0.001968955
  10   C   :    0.003917100   -0.003962955    0.001829604
  11   C   :   -0.004404472    0.003384691   -0.000675203
  12   C   :    0.001316101   -0.000162880   -0.001529524
  13   C   :   -0.002028487    0.001565161    0.000569299
  14   C   :    0.002027600   -0.001883709    0.001045949
  15   H   :   -0.001072339   -0.002359269    0.005331940
  16   H   :    0.004209018   -0.000015462   -0.002996000
  17   H   :   -0.003415051    0.002769929   -0.001791923
  18   H   :    0.004202025    0.000033249   -0.000268881
  19   H   :    0.000356459   -0.004182746   -0.001261765
  20   H   :   -0.003735185   -0.002472361    0.001222113
  21   H   :   -0.003041329    0.002376238    0.002026928
  22   H   :    0.002291507    0.003976661    0.001775526
  23   H   :   -0.004093645    0.001419096    0.001115404
  24   H   :   -0.000231881   -0.001803512    0.004165967
  25   H   :    0.003375857   -0.002806514    0.001219775
  26   H   :    0.003140672   -0.000565516   -0.002855885
  27   H   :   -0.002518259    0.002523832   -0.002681163

Difference to translation invariance:
           :   -0.0000000000    0.0000000000   -0.0000000000

Difference to rotation invariance:
           :   -0.0003053773   -0.0000288612   -0.0001709764

Norm of the Cartesian gradient     ...    0.0335887791
RMS gradient                       ...    0.0037320866
MAX gradient                       ...    0.0193183984

-------
TIMINGS
-------

Total SCF gradient time     ....        8.586 sec

Densities                   ....       0.001 sec  (  0.0%)
One electron gradient       ....       0.131 sec  (  1.5%)
Two electron gradient       ....       5.572 sec  ( 64.9%)
RI-J Coulomb gradient       ....       0.564 sec  (  6.6%)
[...]
      dxz     :     0.015883
      dyz     :     0.018956
      dx2y2   :     0.020514
      dxy     :     0.021585

  3 C s       :     2.864935  s :     2.864935
      pz      :     0.997082  p :     3.071607
      px      :     1.029064
      py      :     1.045461
      dz2     :     0.009199  d :     0.091034
      dxz     :     0.015078
      dyz     :     0.016585
      dx2y2   :     0.023751
      dxy     :     0.026421

  4 C s       :     2.862975  s :     2.862975
      pz      :     1.003141  p :     3.070253
      px      :     1.041787
      py      :     1.025325
      dz2     :     0.011935  d :     0.090537
      dxz     :     0.017935
      dyz     :     0.014126
      dx2y2   :     0.024740
      dxy     :     0.021801

  5 C s       :     2.863456  s :     2.863456
      pz      :     1.008165  p :     3.073976
      px      :     1.022454
      py      :     1.043358
      dz2     :     0.013318  d :     0.089844
      dxz     :     0.013082
      dyz     :     0.018092
      dx2y2   :     0.020988
      dxy     :     0.024364

  6 C s       :     2.863162  s :     2.863162
      pz      :     0.995983  p :     3.071085
      px      :     1.027397
      py      :     1.047706
      dz2     :     0.009053  d :     0.090522
      dxz     :     0.014622
      dyz     :     0.016924
      dx2y2   :     0.024323
      dxy     :     0.025599

  7 C s       :     2.864356  s :     2.864356
      pz      :     1.008862  p :     3.086521
      px      :     1.046474
      py      :     1.031185
      dz2     :     0.011664  d :     0.091273
      dxz     :     0.018264
      dyz     :     0.014368
      dx2y2   :     0.025671
      dxy     :     0.021306

  8 C s       :     2.917688  s :     2.917688
      pz      :     1.066567  p :     3.165654
      px      :     1.069939
      py      :     1.029148
      dz2     :     0.020506  d :     0.090575
      dxz     :     0.025366
      dyz     :     0.016432
      dx2y2   :     0.013572
      dxy     :     0.014700

  9 C s       :     2.866632  s :     2.866632
      pz      :     1.029674  p :     3.065908
      px      :     1.036638
      py      :     0.999595
      dz2     :     0.018828  d :     0.091434
      dxz     :     0.025165
      dyz     :     0.016250
      dx2y2   :     0.016898
      dxy     :     0.014292

 10 C s       :     2.863573  s :     2.863573
      pz      :     1.018662  p :     3.071870
      px      :     1.055415
      py      :     0.997792
      dz2     :     0.016650  d :     0.090200
      dxz     :     0.023284
      dyz     :     0.012463
      dx2y2   :     0.019174
      dxy     :     0.018629

 11 C s       :     2.864439  s :     2.864439
      pz      :     1.037258  p :     3.066852
      px      :     1.037344
      py      :     0.992250
      dz2     :     0.020773  d :     0.089899
      dxz     :     0.025264
      dyz     :     0.014738
      dx2y2   :     0.012867
      dxy     :     0.016256

 12 C s       :     2.863664  s :     2.863664
      pz      :     1.034416  p :     3.073247
      px      :     1.032715
      py      :     1.006116
      dz2     :     0.018820  d :     0.089959
      dxz     :     0.024884
      dyz     :     0.015800
      dx2y2   :     0.016498
      dxy     :     0.013956

 13 C s       :     2.868742  s :     2.868742
      pz      :     1.021137  p :     3.072226
      px      :     1.057430
      py      :     0.993659
      dz2     :     0.017282  d :     0.091331
      dxz     :     0.023337
      dyz     :     0.012456
      dx2y2   :     0.019175
      dxy     :     0.019081

 14 H s       :     0.910094  s :     0.910094
      pz      :     0.040958  p :     0.068948
      px      :     0.012025
      py      :     0.015965

 15 H s       :     0.900309  s :     0.900309
      pz      :     0.013107  p :     0.067826
      px      :     0.034531
      py      :     0.020187

 16 H s       :     0.905621  s :     0.905621
      pz      :     0.013617  p :     0.067984
      px      :     0.026987
      py      :     0.027380

 17 H s       :     0.907672  s :     0.907672
      pz      :     0.025393  p :     0.067161
      px      :     0.025821
      py      :     0.015946

 18 H s       :     0.906283  s :     0.906283
      pz      :     0.017487  p :     0.066390
      px      :     0.012140
      py      :     0.036763

 19 H s       :     0.907048  s :     0.907048
      pz      :     0.014632  p :     0.066610
      px      :     0.031962
      py      :     0.020017

 20 H s       :     0.907294  s :     0.907294
      pz      :     0.025092  p :     0.066437
      px      :     0.025443
      py      :     0.015902

 21 H s       :     0.909081  s :     0.909081
      pz      :     0.018382  p :     0.068324
      px      :     0.012491
      py      :     0.037450

 22 H s       :     0.904447  s :     0.904447
      pz      :     0.019414  p :     0.068153
      px      :     0.035871
      py      :     0.012868

 23 H s       :     0.906534  s :     0.906534
      pz      :     0.034158  p :     0.066532
      px      :     0.011567
      py      :     0.020807

 24 H s       :     0.906585  s :     0.906585
      pz      :     0.015387  p :     0.066478
      px      :     0.028798
      py      :     0.022292

 25 H s       :     0.906364  s :     0.906364
      pz      :     0.019714  p :     0.066526
      px      :     0.033884
      py      :     0.012928

 26 H s       :     0.909504  s :     0.909504
      pz      :     0.035270  p :     0.067503
      px      :     0.011230
      py      :     0.021003



                      *****************************
                      * MAYER POPULATION ANALYSIS *
                      *****************************

  NA   - Mulliken gross atomic population
  ZA   - Total nuclear charge
  QA   - Mulliken gross atomic charge
  VA   - Mayer's total valence
  BVA  - Mayer's bonded valence
  FA   - Mayer's free valence

  ATOM       NA         ZA         QA         VA         BVA        FA
  0 C      6.1367     6.0000    -0.1367     3.9169     3.9169    -0.0000
  1 P     14.7426    15.0000     0.2574     2.9969     2.9969    -0.0000
  2 C      6.1312     6.0000    -0.1312     3.7756     3.7756    -0.0000
  3 C      5.9788     6.0000     0.0212     3.8858     3.8858    -0.0000
  4 C      5.9800     6.0000     0.0200     3.8620     3.8620    -0.0000
  5 C      5.9798     6.0000     0.0202     3.8294     3.8294    -0.0000
  6 C      5.9730     6.0000     0.0270     3.8433     3.8433    -0.0000
  7 C      6.0113     6.0000    -0.0113     3.8998     3.8998    -0.0000
  8 C      6.1459     6.0000    -0.1459     3.8065     3.8065     0.0000
  9 C      5.9712     6.0000     0.0288     3.8732     3.8732     0.0000
 10 C      5.9760     6.0000     0.0240     3.8391     3.8391    -0.0000
 11 C      5.9759     6.0000     0.0241     3.8283     3.8283    -0.0000
 12 C      5.9800     6.0000     0.0200     3.8440     3.8440    -0.0000
 13 C      5.9841     6.0000     0.0159     3.8680     3.8680    -0.0000
 14 H      0.9595     1.0000     0.0405     0.9947     0.9947    -0.0000
 15 H      0.9545     1.0000     0.0455     0.9883     0.9883    -0.0000
 16 H      0.9486     1.0000     0.0514     0.9821     0.9821    -0.0000
 17 H      1.0162     1.0000    -0.0162     0.9898     0.9898    -0.0000
 18 H      1.0164     1.0000    -0.0164     0.9774     0.9774     0.0000
 19 H      1.0171     1.0000    -0.0171     0.9774     0.9774    -0.0000
 20 H      1.0198     1.0000    -0.0198     0.9770     0.9770    -0.0000
 21 H      1.0260     1.0000    -0.0260     0.9951     0.9951     0.0000
 22 H      1.0070     1.0000    -0.0070     0.9908     0.9908     0.0000
 23 H      1.0175     1.0000    -0.0175     0.9776     0.9776    -0.0000
 24 H      1.0152     1.0000    -0.0152     0.9773     0.9773    -0.0000
 25 H      1.0160     1.0000    -0.0160     0.9776     0.9776    -0.0000
 26 H      1.0201     1.0000    -0.0201     0.9925     0.9925    -0.0000

  Mayer bond orders larger than 0.100000
B(  0-C ,  1-P ) :   1.0073 B(  0-C , 14-H ) :   0.9481 B(  0-C , 15-H ) :   0.9613 
B(  0-C , 16-H ) :   0.9592 B(  1-P ,  2-C ) :   0.9169 B(  1-P ,  8-C ) :   0.9273 
B(  2-C ,  3-C ) :   1.3652 B(  2-C ,  7-C ) :   1.3904 B(  3-C ,  4-C ) :   1.4232 
B(  3-C , 17-H ) :   0.9805 B(  4-C ,  5-C ) :   1.3662 B(  4-C , 18-H ) :   0.9845 
B(  5-C ,  6-C ) :   1.3943 B(  5-C , 19-H ) :   0.9844 B(  6-C ,  7-C ) :   1.3816 
B(  6-C , 20-H ) :   0.9819 B(  7-C , 21-H ) :   0.9798 B(  8-C ,  9-C ) :   1.3737 
B(  8-C , 13-C ) :   1.3918 B(  9-C , 10-C ) :   1.4024 B(  9-C , 22-H ) :   0.9773 
B( 10-C , 11-C ) :   1.3707 B( 10-C , 23-H ) :   0.9837 B( 11-C , 12-C ) :   1.3914 
B( 11-C , 24-H ) :   0.9844 B( 12-C , 13-C ) :   1.3819 B( 12-C , 25-H ) :   0.9852 
B( 13-C , 26-H ) :   0.9848 

-------
TIMINGS
-------

Total SCF time: 0 days 0 hours 0 min 6 sec 

Total time                  ....       6.785 sec
Sum of individual times     ....       6.729 sec  ( 99.2%)

SCF preparation             ....       0.094 sec  (  1.4%)
Fock matrix formation       ....       6.432 sec  ( 94.8%)
  Startup                   ....       0.011 sec  (  0.2% of F)
  Exchange formation        ....       4.757 sec  ( 74.0% of F)
  Split-RI-J                ....       0.517 sec  (  8.0% of F)
  XC integration            ....       1.108 sec  ( 17.2% of F)
    Basis function eval.    ....       0.313 sec  ( 28.2% of XC)
    Density eval.           ....       0.293 sec  ( 26.4% of XC)
    XC-Functional eval.     ....       0.032 sec  (  2.9% of XC)
    XC-Potential eval.      ....       0.295 sec  ( 26.6% of XC)
Diagonalization             ....       0.000 sec  (  0.0%)
Density matrix formation    ....       0.022 sec  (  0.3%)
Total Energy calculation    ....       0.011 sec  (  0.2%)
Population analysis         ....       0.059 sec  (  0.9%)
Orbital Transformation      ....       0.019 sec  (  0.3%)
Orbital Orthonormalization  ....       0.000 sec  (  0.0%)
DIIS solution               ....       0.025 sec  (  0.4%)
SOSCF solution              ....       0.067 sec  (  1.0%)
Finished LeanSCF after   6.8 sec

Maximum memory used throughout the entire LEANSCF-calculation: 26.9 MB


-------------------------------------------------------------------------------
                          DFT DISPERSION CORRECTION                            
                                                                               
                              DFTD3 V3.1  Rev 1                                
                          USING Becke-Johnson damping                          
-------------------------------------------------------------------------------
The B3LYP functional is recognized
Active option DFTDOPT                   ...         4   

molecular C6(AA) [au] = 9894.939123 


            DFT-D V3
 parameters
 s6 scaling factor         :     1.0000 
 a1 scaling factor         :     0.3981 
 s8 scaling factor         :     1.9889 
 a2 scaling factor         :     4.4211 
 ad hoc parameters k1-k3   :    16.0000     1.3333    -4.0000 

 Edisp/kcal,au: -38.759873232614  -0.061767783117 
 E6   /kcal   : -17.491612362 
 E8   /kcal   : -21.268260871 
 % E8         :  54.871853536 

-------------------------   ----------------
Dispersion correction           -0.061767783
-------------------------   ----------------


-------------------------   --------------------
FINAL SINGLE POINT ENERGY      -843.787129933542
-------------------------   --------------------

                                *** OPTIMIZATION RUN DONE ***



           ************************************************************
           *        Program running with 6 parallel MPI-processes     *
           *              working on a common directory               *
           ************************************************************

------------------------------------------------------------------------------
                              ORCA PROPERTY CALCULATIONS
------------------------------------------------------------------------------

GBWName                                 ... data/geom_opt/73879/73879.gbw
Number of atoms                         ...     27
Number of basis functions               ...    265
Max core memory                         ...   1024 MB

Electric properties:
Dipole moment                           ... YES
Quadrupole moment                       ...  NO
Static polarizability (Dipole/Dipole)   ...  NO
Static polarizability (Dipole/Quad.)    ...  NO
Static polarizability (Quad./Quad.)     ...  NO
Static polarizability (Velocity)        ...  NO

Atomic electric properties:
Dipole moment                           ...  NO
Quadrupole moment                       ...  NO
Static polarizability                   ...  NO

Choice of electric origin               ... Center of mass
Position of electric origin             ...    -0.004124    -0.068838     0.551343

General magnetic properties:
Magnetizability                         ...  NO

EPR properties:
g-Tensor (aka g-matrix)                 ...  NO
Zero-Field splitting spin-orbit         ...  NO
Zero-field splitting spin-spin          ...  NO
Hyperfine couplings                     ...  NO (   0 nuclei)
Quadrupole couplings                    ...  NO (   0 nuclei)
Contact density                         ...  NO (   0 nuclei)

NMR properties:
Chemical shifts                         ...  NO (   0 nuclei)
Spin-rotation constants                 ...  NO (   0 nuclei)
Spin-spin couplings                     ...  NO (   0 nuclei,    0 pairs)

Choice of magnetic origin               ... GIAO
Position of magnetic origin             ...     0.000000     0.000000     0.000000

Properties with geometric perturbations:
SCF Hessian                             ...  NO
IR spectrum                             ...  NO
VCD spectrum                            ...  NO
X-ray spectroscopy properties:
SCF XES/XAS/RIXS spectra                ...  NO


-------------
DIPOLE MOMENT
-------------

Method             : SCF
Type of density    : Electron Density
Multiplicity       :   1
Irrep              :   0
Energy             :  -843.7253621504247576 Eh
Relativity type    : 
Basis              : AO
                                X                 Y                 Z
Electronic contribution:     -0.071145595       0.018598984       4.572243181
Nuclear contribution   :     -0.002019173       0.090368749      -5.035932110
                        -----------------------------------------
Total Dipole Moment    :     -0.073164768       0.108967733      -0.463688929
                        -----------------------------------------
Magnitude (a.u.)       :      0.481907120
Magnitude (Debye)      :      1.224910555



--------------------
Rotational spectrum 
--------------------
 
Rotational constants in cm-1:             0.037915             0.013225             0.011510 
Rotational constants in MHz :          1136.662080           396.488361           345.072392 

Dipole components along the rotational axes: 
x,y,z [a.u.] :    -0.079038     0.204987    -0.428915 
x,y,z [Debye]:    -0.200898     0.521035    -1.090215 

 

Dipole moment calculation done in   0.0 sec 

Maximum memory used throughout the entire PROP-calculation: 13.2 MB

--------------------------------
SUGGESTED CITATIONS FOR THIS RUN
--------------------------------

Below you find a list of papers that are relevant to this ORCA run
We neither can nor want to force you to cite these papers, but we appreciate if you do
You receive ORCA, which is the product of decades of hard work by many enthusiastic individuals, for free
The only thing we kindly ask in return is that you cite our papers,
We deeply appreciate it, if you show your appreciation for ORCA by not just citing the generic ORCA reference.

Please note that relegating all ORCA citations to the supporting information does *not* help us.
SI sections are not indexed - citations you put there will not count into any citation statistics
But we need these citations in order to attract the funding resources that allow us to do what we are doing

Therefore, if you are a happy ORCA user, please consider citing a few of the papers listed below in the main body of your paper

In addition to the list printed below, the program has created the file data/geom_opt/73879/73879.bibtex that contains the list in bibtex format
You can import this file easily into all common literature databanks and citation aid programs


List of essential papers. We consider these as the minimum necessary citations

  1. Neese,F.
     Software update: the ORCA program system, version 5.0
     WIRES Comput. Molec. Sci., 2022 12(1)e1606
     doi.org/10.1002/wcms.1606

List of papers to cite with high priority. The work reported in these papers was absolutely
necessary for this run to complete.
Our perspective: the developers of density functionals and basis sets usually get cited in chemistry papers
Good! But without the algorithms to do something with them, the functionals or basis sets would not do anything.
Hence, in our opinion, the algorithm design and method developments papers are equally worthy of getting cited

  1. Neese,F.
     An improvement of the resolution of the identity approximation for the formation of the Coulomb matrix
     J. Comp. Chem., 2003 24(14)1740-1747
     doi.org/10.1002/jcc.10318
  2. Neese,F.
     The SHARK Integral Generation and Digestion System
     J. Comp. Chem., 2022  1-16
     doi.org/10.1002/jcc.26942
  3. Grimme,S.; Antony,J.; Ehrlich,S.; Krieg,H.
     A consistent and accurate ab initio parametrization of density functional dispersion correction (DFT-D) for the 94 elements H-Pu
     J. Chem. Phys., 2010 132 154104-XXXX
     doi.org/10.1063/1.3382344
  4. Grimme,S.; Ehrlich,S.; Goerigk,L.
     Effect of the damping function in dispersion corrected density functional theory
     J. Comput. Chem., 2011 32(7)1456-1465
     doi.org/10.1002/jcc.21759

List of suggested additional citations. These are papers that are important in the 'surrounding' of 
of this run, or papers that preceded the highly important papers. If you like your results we are grateful for a citation.

  1. Neese,F.
     The ORCA program system
     WIRES Comput. Molec. Sci., 2012 2(1)73-78
     doi.org/10.1002/wcms.81
  2. Neese,F.
     Software update: the ORCA program system, version 4.0
     WIRES Comput. Molec. Sci., 2018 8(1)1-6
     doi.org/10.1002/wcms.1327
  3. Neese,F.; Wennmohs,F.; Becker,U.; Riplinger,C.
     The ORCA quantum chemistry program package
     J. Chem. Phys., 2020 152 Art. No. L224108
     doi.org/10.1063/5.0004608

List of optional additional citations

  1. Neese,F.
     Approximate second-order SCF convergence for spin unrestricted wavefunctions
     Chem. Phys. Lett., 2000 325(1-3)93-98
     doi.org/10.1016/s0009-2614(00)00662-x

Timings for individual modules:

Sum of individual times          ...      228.430 sec (=   3.807 min)
Startup calculation              ...        9.268 sec (=   0.154 min)   4.1 %
SCF iterations                   ...      140.766 sec (=   2.346 min)  61.6 %
Property calculations            ...        0.146 sec (=   0.002 min)   0.1 %
SCF Gradient evaluation          ...       78.149 sec (=   1.302 min)  34.2 %
Geometry relaxation              ...        0.101 sec (=   0.002 min)   0.0 %
                             ****ORCA TERMINATED NORMALLY****
TOTAL RUN TIME: 0 days 0 hours 3 minutes 50 seconds 228 msec
