
                                 *****************
                                 * O   R   C   A *
                                 *****************

                                            #,                                       
                                            ###                                      
                                            ####                                     
                                            #####                                    
                                            ######                                   
                                           ########,                                 
                                     ,,################,,,,,                         
                               ,,#################################,,                 
                          ,,##########################################,,             
                       ,#########################################, ''#####,          
                    ,#############################################,,   '####,        
                  ,##################################################,,,,####,       
                ,###########''''           ''''###############################       
              ,#####''   ,,,,##########,,,,          '''####'''          '####       
            ,##' ,,,,###########################,,,                        '##       
           ' ,,###''''                  '''############,,,                           
         ,,##''                                '''############,,,,        ,,,,,,###''
      ,#''                                            '''#######################'''  
     '                                                          ''''####''''         
             ,#######,   #######,   ,#######,      ##                                
            ,#'     '#,  ##    ##  ,#'     '#,    #''#        ,####,   ,####,        
            ##       ##  ##   ,#'  ##            #'  '#       #'       #'  '#        
            ##       ##  #######   ##           ,######,      #####,   #    #        
            '#,     ,#'  ##    ##  '#,     ,#' ,#      #,     #,   #   #,  ,#        
             '#######'   ##     ##  '#######'  #'      '#     '####' # '####'        



                #########################################################
                #                        -***-                          #
                #          Department of theory and spectroscopy        #
                #                                                       #
                #                      Frank Neese                      #
                #                                                       #
                #     Directorship, Architecture, Infrastructure        #
                #                    SHARK, DRIVERS                     #
                #        Core code/Algorithms in most modules           #
                #                                                       #
                #        Max Planck Institute fuer Kohlenforschung      #
                #                Kaiser Wilhelm Platz 1                 #
                #                 D-45470 Muelheim/Ruhr                 #
                #                      Germany                          #
                #                                                       #
                #                  All rights reserved                  #
                #                        -***-                          #
                #########################################################


                         Program Version 6.0.0  -   RELEASE   -


 With contributions from (in alphabetic order):
   Daniel Aravena         : Magnetic Suceptibility
   Michael Atanasov       : Ab Initio Ligand Field Theory (pilot matlab implementation)
   Alexander A. Auer      : GIAO ZORA, VPT2 properties, NMR spectrum
   Ute Becker             : All parallelization in ORCA, NUMFREQ, NUMCALC
   Giovanni Bistoni       : ED, misc. LED, open-shell LED, HFLD
   Martin Brehm           : Molecular dynamics
   Dmytro Bykov           : pre 5.0 version of the SCF Hessian
   Marcos Casanova-Páez   : Triplet and SCS-CIS(D). UHF-(DLPNO)-IP/EA/STEOM-CCSD. UHF-CVS-IP/STEOM-CCSD
   Vijay G. Chilkuri      : MRCI spin determinant printing, contributions to CSF-ICE
   Pauline Colinet        : FMM embedding
   Dipayan Datta          : RHF DLPNO-CCSD density
   Achintya Kumar Dutta   : EOM-CC, STEOM-CC
   Nicolas Foglia         : Exact transition moments, OPA infrastructure, MCD improvements
   Dmitry Ganyushin       : Spin-Orbit,Spin-Spin,Magnetic field MRCI
   Miquel Garcia          : C-PCM and meta-GGA Hessian, CCSD/C-PCM, Gaussian charge scheme
   Tiago L. C. Gouveia    : GS-ROHF, GS-ROCIS
   Yang Guo               : DLPNO-NEVPT2, F12-NEVPT2, CIM, IAO-localization
   Andreas Hansen         : Spin unrestricted coupled pair/coupled cluster methods
   Ingolf Harden          : AUTO-CI MPn and infrastructure 
   Benjamin Helmich-Paris : MC-RPA, TRAH-(SCF,CASSCF), AVAS, COSX integrals, SCF dyn. polar.
   Lee Huntington         : MR-EOM, pCC
   Robert Izsak           : Overlap fitted RIJCOSX, COSX-SCS-MP3, EOM
   Riya Kayal             : Wick's Theorem for AUTO-CI, AUTO-CI UHF-CCSDT
   Emily Kempfer          : AUTO-CI, RHF CISDT and CCSDT
   Christian Kollmar      : KDIIS, OOCD, Brueckner-CCSD(T), CCSD density, CASPT2, CASPT2-K, improved NEVPT2
   Axel Koslowski         : Symmetry handling
   Simone Kossmann        : Meta GGA functionals, TD-DFT gradient, OOMP2, (MP2 Hessian; deprecated post 5.0)
   Lucas Lang             : DCDCAS
   Marvin Lechner         : AUTO-CI (C++ implementation), FIC-MRCC
   Spencer Leger          : CASSCF response
   Dagmar Lenk            : GEPOL surface, SMD, ORCA-2-JSON
   Dimitrios Liakos       : Extrapolation schemes; Compound Job, initial MDCI parallelization
   Dimitrios Manganas     : Further ROCIS development; embedding schemes. LFT, Crystal Embedding
   Dimitrios Pantazis     : SARC Basis sets
   Anastasios Papadopoulos: AUTO-CI, single reference methods and gradients
   Taras Petrenko         : pre 6.0 DFT Hessian and TD-DFT gradient, (ASA, deprecated), ECA, 1-Electron XAS/XES, NRVS
   Peter Pinski           : DLPNO-MP2, DLPNO-MP2 Gradient
   Christoph Reimann      : Effective Core Potentials
   Marius Retegan         : Local ZFS, SOC
   Christoph Riplinger    : Optimizer, TS searches, QM/MM, DLPNO-CCSD(T), (RO)-DLPNO pert. Triples
   Michael Roemelt        : Original ROCIS implementation
   Masaaki Saitow         : Open-shell DLPNO-CCSD energy and density
   Barbara Sandhoefer     : DKH picture change effects
   Kantharuban Sivalingam : CASSCF convergence/infrastructure, NEVPT2 and variants, FIC-MRCI
   Bernardo de Souza      : ESD, SOC TD-DFT
   Georgi Stoychev        : AutoAux, RI-MP2 NMR, DLPNO-MP2 response, X2C
   Van Anh Tran           : RI-MP2 g-tensors
   Willem Van den Heuvel  : Paramagnetic NMR
   Zikuan Wang            : NOTCH, Electric field optimization 
   Frank Wennmohs         : Technical directorship and infrastructure
   Hang Xu                : AUTO-CI-Response properties 


 We gratefully acknowledge several colleagues who have allowed us to
 interface, adapt or use parts of their codes:
   Stefan Grimme, W. Hujo, H. Kruse, P. Pracht,  : VdW corrections, initial TS optimization,
                  C. Bannwarth, S. Ehlert,         DFT functionals, gCP, sTDA/sTD-DF
                  L. Wittmann, M. Mueller
   Ed Valeev, F. Pavosevic, A. Kumar             : LibInt (2-el integral package), F12 methods
   Garnet Chan, S. Sharma, J. Yang, R. Olivares  : DMRG
   Ulf Ekstrom                                   : XCFun DFT Library
   Mihaly Kallay                                 : mrcc  (arbitrary order and MRCC methods)
   Frank Weinhold                                : gennbo (NPA and NBO analysis)
   Simon Mueller                                 : openCOSMO-RS
   Christopher J. Cramer and Donald G. Truhlar   : smd solvation model
   Lars Goerigk                                  : TD-DFT with DH, B97 family of functionals
   V. Asgeirsson, H. Jonsson                     : NEB implementation
   FAccTs GmbH                                   : IRC, NEB, NEB-TS, DLPNO-Multilevel, CI-OPT
                                                   MM, QMMM, 2- and 3-layer-ONIOM, Crystal-QMMM,
                                                   LR-CPCM, SF, NACMEs, symmetry and pop. for TD-DFT,
                                                   nearIR, NL-DFT gradient (VV10), updates on ESD,
                                                   ML-optimized integration grids, MBIS, APM,
                                                   GOAT, DOCKER, SOLVATOR, interface openCOSMO-RS
   S Lehtola, MJT Oliveira, MAL Marques          : LibXC Library
   Liviu Ungur et al                             : ANISO software


 Your calculation uses the libint2 library for the computation of 2-el integrals
 For citations please refer to: http://libint.valeyev.net

 Your ORCA version has been built with support for libXC version: 6.2.2
 For citations please refer to: https://libxc.gitlab.io

 This ORCA versions uses:
   CBLAS   interface :  Fast vector & matrix operations
   LAPACKE interface :  Fast linear algebra routines
   Shared memory     :  Shared parallel matrices


Your calculation utilizes the atom-pairwise dispersion correction
with the Becke-Johnson damping scheme (D3BJ)


Warning: RI is on but no J-basis has been assigned. Assigning Def2/J (nothing to worry about!)
================================================================================

----- Orbital basis set information -----
Your calculation utilizes the basis: def2-SVP
   F. Weigend and R. Ahlrichs, Phys. Chem. Chem. Phys. 7, 3297 (2005).

----- AuxJ basis set information -----
Your calculation utilizes the auxiliary basis: def2/J
   F. Weigend, Phys. Chem. Chem. Phys. 8, 1057 (2006).

================================================================================
                                        WARNINGS
                       Please study these warnings very carefully!
================================================================================


WARNING: Geometry Optimization
  ===> : Switching off AutoStart
         For restart on a previous wavefunction, please use MOREAD

================================================================================
                                       INPUT FILE
================================================================================
NAME = data/geom_opt_PO_BP86/80271/80271.inp
|  1> ! RI BP86 def2-SVP D3BJ TIGHTSCF Opt
|  2> %pal
|  3> nprocs 6
|  4> end
|  5> 
|  6> * xyz 0 1
|  7> C     -1.471724    2.679438    1.560316
|  8> C     -0.664099    2.782809    0.295168
|  9> C     -0.609157    4.020342   -0.367919
| 10> C      0.137511    4.175493   -1.534035
| 11> C      0.845885    3.097926   -2.050633
| 12> C      0.811231    1.865019   -1.398910
| 13> C      0.065769    1.685803   -0.217252
| 14> P      0.034838    0.059538    0.607744
| 15> O      0.121360    0.207477    2.117714
| 16> C      1.431988   -0.917215   -0.040506
| 17> C      1.217940   -1.869242   -1.056369
| 18> C      2.271582   -2.624417   -1.571684
| 19> C      3.558806   -2.443838   -1.081516
| 20> C      3.794354   -1.505476   -0.078815
| 21> C      2.746745   -0.728551    0.443768
| 22> C      3.057522    0.255852    1.538258
| 23> C     -1.505922   -0.782618    0.114646
| 24> C     -2.227627   -0.335206   -1.009237
| 25> C     -3.405719   -0.966424   -1.408817
| 26> C     -3.885919   -2.055813   -0.692953
| 27> C     -3.186749   -2.517457    0.420355
| 28> C     -1.992743   -1.900533    0.830169
| 29> C     -1.290771   -2.430802    2.050657
| 30> H     -2.158933    3.526772    1.661194
| 31> H     -0.809952    2.679959    2.431390
| 32> H     -2.088618    1.776581    1.561715
| 33> H     -1.151894    4.877665    0.026042
| 34> H      0.168494    5.139481   -2.035092
| 35> H      1.431752    3.216843   -2.958610
| 36> H      1.380325    1.044413   -1.828657
| 37> H      0.222978   -2.039079   -1.460282
| 38> H      2.084319   -3.357943   -2.351858
| 39> H      4.380710   -3.035955   -1.475419
| 40> H      4.808154   -1.382868    0.297956
| 41> H      2.578534    1.220421    1.348820
| 42> H      4.134016    0.449485    1.602104
| 43> H      2.730808   -0.139033    2.504713
| 44> H     -1.882768    0.516679   -1.590017
| 45> H     -3.950727   -0.602161   -2.276043
| 46> H     -4.807535   -2.545153   -0.997022
| 47> H     -3.582004   -3.367702    0.973194
| 48> H     -0.215679   -2.528038    1.876202
| 49> H     -1.655533   -3.429818    2.313950
| 50> H     -1.471546   -1.772655    2.905571
| 51> **                         ****END OF INPUT****
================================================================================

                       *****************************
                       * Geometry Optimization Run *
                       *****************************

Geometry optimization settings:
Update method            Update   .... BFGS
Choice of coordinates    CoordSys .... (2022) Redundant Internals
Initial Hessian          InHess   .... Almloef's Model
Max. no of cycles        MaxIter  .... 132

Convergence Tolerances:
Energy Change            TolE     ....  5.0000e-06 Eh
Max. Gradient            TolMAXG  ....  3.0000e-04 Eh/bohr
RMS Gradient             TolRMSG  ....  1.0000e-04 Eh/bohr
Max. Displacement        TolMAXD  ....  4.0000e-03 bohr
RMS Displacement         TolRMSD  ....  2.0000e-03 bohr
Strict Convergence                .... False

------------------------------------------------------------------------------
                        ORCA OPTIMIZATION COORDINATE SETUP
------------------------------------------------------------------------------

The optimization will be done in redundant internal coordinates (2022)
Making redundant internal coordinates   ...  (2022 redundants) done
Evaluating the initial hessian          ...  (Almloef) done
Evaluating the coordinates              ...  done
Calculating the B-matrix                .... done
Calculating the G-matrix                .... done
Diagonalizing the G-matrix              .... done
Small eigenvalue found = 4.489e-03
Small eigenvalue found = 4.731e-03
Small eigenvalue found = 7.192e-03
Small eigenvalue found = 1.218e-02
Small eigenvalue found = 1.399e-02
Small eigenvalue found = 2.032e-02
Small eigenvalue found = 2.462e-02
The first mode is                       ....  100
The number of degrees of freedom        ....  126

    -----------------------------------------------------------------
                    Redundant Internal Coordinates


    -----------------------------------------------------------------
         Definition                    Initial Value    Approx d2E/dq
    -----------------------------------------------------------------
      1. B(C   1,C   0)                  1.5045         0.410250   
      2. B(C   2,C   1)                  1.4051         0.591171   
      3. B(C   3,C   2)                  1.3933         0.617165   
      4. B(C   4,C   3)                  1.3892         0.626684   
      5. B(C   5,C   4)                  1.3950         0.613442   
      6. B(C   6,C   5)                  1.4086         0.583535   
      7. B(C   6,C   1)                  1.4138         0.572583   
      8. B(P   7,C   6)                  1.8238         0.426681   
      9. B(O   8,P   7)                  1.5197         1.168147   
     10. B(C   9,P   7)                  1.8238         0.426685   
     11. B(C  10,C   9)                  1.4086         0.583534   
     12. B(C  11,C  10)                  1.3950         0.613445   
     13. B(C  12,C  11)                  1.3892         0.626683   
     14. B(C  13,C  12)                  1.3933         0.617162   
     15. B(C  14,C   9)                  1.4138         0.572585   
     16. B(C  14,C  13)                  1.4051         0.591171   
     17. B(C  15,C  14)                  1.5045         0.410252   
     18. B(C  16,P   7)                  1.8238         0.426681   
     19. B(C  17,C  16)                  1.4086         0.583534   
     20. B(C  18,C  17)                  1.3950         0.613444   
     21. B(C  19,C  18)                  1.3892         0.626681   
     22. B(C  20,C  19)                  1.3933         0.617167   
     23. B(C  21,C  20)                  1.4051         0.591169   
     24. B(C  21,C  16)                  1.4138         0.572585   
     25. B(C  22,C  21)                  1.5045         0.410252   
     26. B(H  23,C   0)                  1.0956         0.352727   
     27. B(H  24,C   0)                  1.0939         0.354921   
     28. B(H  25,C   0)                  1.0935         0.355518   
     29. B(H  26,C   2)                  1.0885         0.362127   
     30. B(H  27,C   3)                  1.0869         0.364262   
     31. B(H  28,C   4)                  1.0871         0.363946   
     32. B(H  29,C   5)                  1.0872         0.363860   
     33. B(H  30,C  10)                  1.0872         0.363863   
     34. B(H  31,C  11)                  1.0871         0.363949   
     35. B(H  32,C  12)                  1.0869         0.364263   
     36. B(H  33,C  13)                  1.0885         0.362122   
     37. B(H  34,C  15)                  1.0935         0.355519   
     38. B(H  35,C  15)                  1.0956         0.352726   
     39. B(H  36,C  15)                  1.0939         0.354921   
     40. B(H  37,C  17)                  1.0872         0.363862   
     41. B(H  38,C  18)                  1.0871         0.363947   
     42. B(H  39,C  19)                  1.0869         0.364264   
     43. B(H  40,C  20)                  1.0885         0.362125   
     44. B(H  41,C  22)                  1.0935         0.355518   
     45. B(H  42,C  22)                  1.0956         0.352727   
     46. B(H  43,C  22)                  1.0939         0.354919   
     47. A(H  23,C   0,H  24)          107.8034         0.289239   
     48. A(H  24,C   0,H  25)          109.9168         0.289596   
     49. A(C   1,C   0,H  23)          111.1607         0.328237   
     50. A(C   1,C   0,H  25)          111.1398         0.328664   
     51. A(H  23,C   0,H  25)          106.5339         0.289315   
     52. A(C   1,C   0,H  24)          110.1708         0.328573   
     53. A(C   2,C   1,C   6)          119.4850         0.424275   
     54. A(C   0,C   1,C   6)          121.9113         0.397667   
     55. A(C   0,C   1,C   2)          118.5779         0.399907   
     56. A(C   1,C   2,H  26)          120.2266         0.350412   
     57. A(C   3,C   2,H  26)          118.8430         0.352970   
     58. A(C   1,C   2,C   3)          120.9303         0.430013   
     59. A(C   2,C   3,H  27)          119.9910         0.353322   
     60. A(C   2,C   3,C   4)          119.8751         0.434546   
     61. A(C   4,C   3,H  27)          120.1333         0.354239   
     62. A(C   3,C   4,H  28)          120.0367         0.354187   
     63. A(C   5,C   4,H  28)          120.0180         0.352908   
     64. A(C   3,C   4,C   5)          119.9442         0.434073   
     65. A(C   6,C   5,H  29)          120.8370         0.349926   
     66. A(C   4,C   5,H  29)          117.9972         0.352894   
     67. A(C   4,C   5,C   6)          121.1656         0.428546   
     68. A(C   5,C   6,P   7)          120.1253         0.428334   
     69. A(C   1,C   6,P   7)          121.2781         0.426881   
     70. A(C   1,C   6,C   5)          118.5908         0.423290   
     71. A(C   9,P   7,C  16)          107.6844         0.431980   
     72. A(O   8,P   7,C  16)          111.2041         0.516875   
     73. A(C   6,P   7,C   9)          107.6843         0.431980   
     74. A(C   6,P   7,C  16)          107.6840         0.431979   
     75. A(C   6,P   7,O   8)          111.2040         0.516875   
     76. A(O   8,P   7,C   9)          111.2040         0.516876   
     77. A(P   7,C   9,C  10)          120.1252         0.428334   
     78. A(C  10,C   9,C  14)          118.5907         0.423290   
     79. A(P   7,C   9,C  14)          121.2782         0.426882   
     80. A(C  11,C  10,H  30)          117.9973         0.352895   
     81. A(C   9,C  10,H  30)          120.8368         0.349926   
     82. A(C   9,C  10,C  11)          121.1657         0.428546   
     83. A(C  12,C  11,H  31)          120.0365         0.354188   
     84. A(C  10,C  11,H  31)          120.0182         0.352909   
     85. A(C  10,C  11,C  12)          119.9443         0.434073   
     86. A(C  13,C  12,H  32)          119.9911         0.353322   
     87. A(C  11,C  12,H  32)          120.1334         0.354239   
     88. A(C  11,C  12,C  13)          119.8750         0.434545   
     89. A(C  14,C  13,H  33)          120.2264         0.350411   
     90. A(C  12,C  13,H  33)          118.8431         0.352969   
     91. A(C  12,C  13,C  14)          120.9304         0.430013   
     92. A(C  13,C  14,C  15)          118.5778         0.399907   
     93. A(C   9,C  14,C  15)          121.9115         0.397667   
     94. A(C   9,C  14,C  13)          119.4850         0.424275   
     95. A(C  14,C  15,H  36)          110.1706         0.328573   
     96. A(H  34,C  15,H  35)          106.5341         0.289315   
     97. A(C  14,C  15,H  35)          111.1607         0.328237   
     98. A(C  14,C  15,H  34)          111.1402         0.328665   
     99. A(H  35,C  15,H  36)          107.8035         0.289239   
    100. A(H  34,C  15,H  36)          109.9163         0.289597   
    101. A(P   7,C  16,C  21)          121.2783         0.426882   
    102. A(P   7,C  16,C  17)          120.1251         0.428333   
    103. A(C  17,C  16,C  21)          118.5908         0.423290   
    104. A(C  16,C  17,C  18)          121.1655         0.428546   
    105. A(C  18,C  17,H  37)          117.9972         0.352895   
    106. A(C  16,C  17,H  37)          120.8370         0.349926   
    107. A(C  17,C  18,C  19)          119.9444         0.434073   
    108. A(C  19,C  18,H  38)          120.0365         0.354187   
    109. A(C  17,C  18,H  38)          120.0181         0.352909   
    110. A(C  18,C  19,C  20)          119.8751         0.434546   
    111. A(C  20,C  19,H  39)          119.9911         0.353322   
    112. A(C  18,C  19,H  39)          120.1333         0.354239   
    113. A(C  21,C  20,H  40)          120.2264         0.350412   
    114. A(C  19,C  20,H  40)          118.8433         0.352970   
    115. A(C  19,C  20,C  21)          120.9303         0.430013   
    116. A(C  20,C  21,C  22)          118.5777         0.399907   
    117. A(C  16,C  21,C  22)          121.9114         0.397667   
    118. A(C  16,C  21,C  20)          119.4851         0.424275   
    119. A(H  42,C  22,H  43)          107.8036         0.289239   
    120. A(H  41,C  22,H  43)          109.9164         0.289596   
    121. A(C  21,C  22,H  43)          110.1707         0.328573   
    122. A(H  41,C  22,H  42)          106.5338         0.289315   
    123. A(C  21,C  22,H  42)          111.1606         0.328237   
    124. A(C  21,C  22,H  41)          111.1401         0.328664   
    125. D(C   6,C   1,C   0,H  23)   -165.5157         0.012465   
    126. D(C   2,C   1,C   0,H  24)   -103.0951         0.012465   
    127. D(C   2,C   1,C   0,H  23)     16.3426         0.012465   
    128. D(C   2,C   1,C   0,H  25)    134.8224         0.012465   
    129. D(C   6,C   1,C   0,H  24)     75.0466         0.012465   
    130. D(C   3,C   2,C   1,C   0)    179.1920         0.024055   
    131. D(C   3,C   2,C   1,C   6)      1.0041         0.024055   
    132. D(H  26,C   2,C   1,C   0)     -0.7057         0.024055   
    133. D(H  26,C   2,C   1,C   6)   -178.8936         0.024055   
    134. D(H  27,C   3,C   2,H  26)     -0.1617         0.026342   
    135. D(C   4,C   3,C   2,C   1)     -0.3389         0.026342   
    136. D(H  27,C   3,C   2,C   1)    179.9391         0.026342   
    137. D(C   4,C   3,C   2,H  26)    179.5602         0.026342   
    138. D(C   5,C   4,C   3,C   2)     -0.1920         0.027212   
    139. D(C   5,C   4,C   3,H  27)    179.5296         0.027212   
    140. D(H  28,C   4,C   3,C   2)   -179.8126         0.027212   
    141. D(H  28,C   4,C   3,H  27)     -0.0911         0.027212   
    142. D(H  29,C   5,C   4,C   3)   -179.7653         0.026007   
    143. D(H  29,C   5,C   4,H  28)     -0.1446         0.026007   
    144. D(C   6,C   5,C   4,H  28)    179.6691         0.026007   
    145. D(C   6,C   5,C   4,C   3)      0.0484         0.026007   
    146. D(C   5,C   6,C   1,C   0)   -179.2470         0.022499   
    147. D(P   7,C   6,C   5,H  29)     -0.4472         0.023408   
    148. D(P   7,C   6,C   5,C   4)    179.7444         0.023408   
    149. D(C   1,C   6,C   5,H  29)   -179.5805         0.023408   
    150. D(C   1,C   6,C   5,C   4)      0.6111         0.023408   
    151. D(P   7,C   6,C   1,C   2)    179.7555         0.022499   
    152. D(P   7,C   6,C   1,C   0)      1.6301         0.022499   
    153. D(C   5,C   6,C   1,C   2)     -1.1217         0.022499   
    154. D(O   8,P   7,C   6,C   1)    -41.7914         0.003974   
    155. D(O   8,P   7,C   6,C   5)    139.0991         0.003974   
    156. D(C  16,P   7,C   6,C   1)     80.2743         0.003974   
    157. D(C   9,P   7,C   6,C   5)     17.0334         0.003974   
    158. D(C   9,P   7,C   6,C   1)   -163.8571         0.003974   
    159. D(C  14,C   9,P   7,O   8)    -41.7899         0.003974   
    160. D(C  14,C   9,P   7,C   6)     80.2758         0.003974   
    161. D(C  10,C   9,P   7,C  16)     17.0346         0.003974   
    162. D(C  10,C   9,P   7,O   8)    139.1005         0.003974   
    163. D(C  10,C   9,P   7,C   6)    -98.8338         0.003974   
    164. D(H  30,C  10,C   9,C  14)   -179.5787         0.023408   
    165. D(H  30,C  10,C   9,P   7)     -0.4454         0.023408   
    166. D(C  11,C  10,C   9,C  14)      0.6123         0.023408   
    167. D(C  11,C  10,C   9,P   7)    179.7457         0.023408   
    168. D(H  31,C  11,C  10,H  30)     -0.1449         0.026007   
    169. D(H  31,C  11,C  10,C   9)    179.6693         0.026007   
    170. D(C  12,C  11,C  10,H  30)   -179.7655         0.026007   
    171. D(C  12,C  11,C  10,C   9)      0.0487         0.026007   
    172. D(H  32,C  12,C  11,H  31)     -0.0912         0.027212   
    173. D(H  32,C  12,C  11,C  10)    179.5294         0.027212   
    174. D(C  13,C  12,C  11,H  31)   -179.8142         0.027212   
    175. D(C  13,C  12,C  11,C  10)     -0.1936         0.027212   
    176. D(H  33,C  13,C  12,H  32)     -0.1615         0.026342   
    177. D(H  33,C  13,C  12,C  11)    179.5618         0.026342   
    178. D(C  14,C  13,C  12,H  32)    179.9390         0.026342   
    179. D(C  14,C  13,C  12,C  11)     -0.3376         0.026342   
    180. D(C  15,C  14,C  13,C  12)    179.1921         0.024055   
    181. D(C   9,C  14,C  13,H  33)   -178.8936         0.024055   
    182. D(C   9,C  14,C  13,C  12)      1.0044         0.024055   
    183. D(C  15,C  14,C   9,C  10)   -179.2483         0.022499   
    184. D(C  15,C  14,C   9,P   7)      1.6287         0.022499   
    185. D(C  13,C  14,C   9,C  10)     -1.1232         0.022499   
    186. D(C  15,C  14,C  13,H  33)     -0.7059         0.024055   
    187. D(C  13,C  14,C   9,P   7)    179.7539         0.022499   
    188. D(H  36,C  15,C  14,C   9)     75.0495         0.012465   
    189. D(H  35,C  15,C  14,C  13)     16.3456         0.012465   
    190. D(H  35,C  15,C  14,C   9)   -165.5129         0.012465   
    191. D(H  34,C  15,C  14,C  13)    134.8260         0.012465   
    192. D(H  34,C  15,C  14,C   9)    -47.0325         0.012465   
    193. D(C  21,C  16,P   7,O   8)    -41.7891         0.003974   
    194. D(C  21,C  16,P   7,C   6)   -163.8547         0.003974   
    195. D(C  17,C  16,P   7,C   9)    -98.8338         0.003974   
    196. D(C  17,C  16,P   7,O   8)    139.1004         0.003974   
    197. D(C  17,C  16,P   7,C   6)     17.0348         0.003974   
    198. D(H  37,C  17,C  16,C  21)   -179.5803         0.023408   
    199. D(H  37,C  17,C  16,P   7)     -0.4461         0.023408   
    200. D(C  18,C  17,C  16,C  21)      0.6117         0.023408   
    201. D(C  18,C  17,C  16,P   7)    179.7459         0.023408   
    202. D(H  38,C  18,C  17,H  37)     -0.1445         0.026007   
    203. D(H  38,C  18,C  17,C  16)    179.6688         0.026007   
    204. D(C  19,C  18,C  17,H  37)   -179.7647         0.026007   
    205. D(C  19,C  18,C  17,C  16)      0.0486         0.026007   
    206. D(H  39,C  19,C  18,H  38)     -0.0910         0.027212   
    207. D(H  39,C  19,C  18,C  17)    179.5292         0.027212   
    208. D(C  20,C  19,C  18,H  38)   -179.8129         0.027212   
    209. D(C  20,C  19,C  18,C  17)     -0.1927         0.027212   
    210. D(H  40,C  20,C  19,H  39)     -0.1621         0.026342   
    211. D(H  40,C  20,C  19,C  18)    179.5603         0.026342   
    212. D(C  21,C  20,C  19,H  39)    179.9392         0.026342   
    213. D(C  21,C  20,C  19,C  18)     -0.3385         0.026342   
    214. D(C  22,C  21,C  20,H  40)     -0.7055         0.024055   
    215. D(C  22,C  21,C  20,C  19)    179.1918         0.024055   
    216. D(C  16,C  21,C  20,H  40)   -178.8928         0.024055   
    217. D(C  16,C  21,C  20,C  19)      1.0045         0.024055   
    218. D(C  22,C  21,C  16,C  17)   -179.2473         0.022499   
    219. D(C  22,C  21,C  16,P   7)      1.6290         0.022499   
    220. D(C  20,C  21,C  16,C  17)     -1.1225         0.022499   
    221. D(C  20,C  21,C  16,P   7)    179.7537         0.022499   
    222. D(H  43,C  22,C  21,C  16)     75.0487         0.012465   
    223. D(H  42,C  22,C  21,C  20)     16.3454         0.012465   
    224. D(H  42,C  22,C  21,C  16)   -165.5134         0.012465   
    225. D(H  41,C  22,C  21,C  20)    134.8254         0.012465   
    226. D(H  41,C  22,C  21,C  16)    -47.0335         0.012465   
    -----------------------------------------------------------------

Number of atoms                         .... 44
Number of degrees of freedom            .... 226


         *************************************************************
         *                GEOMETRY OPTIMIZATION CYCLE   1            *
         *************************************************************
---------------------------------
CARTESIAN COORDINATES (ANGSTROEM)
---------------------------------
  C     -1.471724    2.679438    1.560316
  C     -0.664099    2.782809    0.295168
  C     -0.609157    4.020342   -0.367919
  C      0.137511    4.175493   -1.534035
  C      0.845885    3.097926   -2.050633
  C      0.811231    1.865019   -1.398910
  C      0.065769    1.685803   -0.217252
  P      0.034838    0.059538    0.607744
  O      0.121360    0.207477    2.117714
  C      1.431988   -0.917215   -0.040506
  C      1.217940   -1.869242   -1.056369
  C      2.271582   -2.624417   -1.571684
  C      3.558806   -2.443838   -1.081516
  C      3.794354   -1.505476   -0.078815
  C      2.746745   -0.728551    0.443768
  C      3.057522    0.255852    1.538258
  C     -1.505922   -0.782618    0.114646
  C     -2.227627   -0.335206   -1.009237
  C     -3.405719   -0.966424   -1.408817
  C     -3.885919   -2.055813   -0.692953
  C     -3.186749   -2.517457    0.420355
  C     -1.992743   -1.900533    0.830169
  C     -1.290771   -2.430802    2.050657
  H     -2.158933    3.526772    1.661194
  H     -0.809952    2.679959    2.431390
  H     -2.088618    1.776581    1.561715
  H     -1.151894    4.877665    0.026042
  H      0.168494    5.139481   -2.035092
  H      1.431752    3.216843   -2.958610
  H      1.380325    1.044413   -1.828657
  H      0.222978   -2.039079   -1.460282
  H      2.084319   -3.357943   -2.351858
  H      4.380710   -3.035955   -1.475419
  H      4.808154   -1.382868    0.297956
  H      2.578534    1.220421    1.348820
  H      4.134016    0.449485    1.602104
  H      2.730808   -0.139033    2.504713
  H     -1.882768    0.516679   -1.590017
  H     -3.950727   -0.602161   -2.276043
  H     -4.807535   -2.545153   -0.997022
  H     -3.582004   -3.367702    0.973194
  H     -0.215679   -2.528038    1.876202
  H     -1.655533   -3.429818    2.313950
  H     -1.471546   -1.772655    2.905571

----------------------------
CARTESIAN COORDINATES (A.U.)
----------------------------
  NO LB      ZA    FRAG     MASS         X           Y           Z
   0 C     6.0000    0    12.011   -2.781155    5.063404    2.948570
   1 C     6.0000    0    12.011   -1.254965    5.258747    0.557787
   2 C     6.0000    0    12.011   -1.151140    7.597345   -0.695266
   3 C     6.0000    0    12.011    0.259858    7.890538   -2.898906
   4 C     6.0000    0    12.011    1.598491    5.854232   -3.875135
   5 C     6.0000    0    12.011    1.533004    3.524375   -2.643557
   6 C     6.0000    0    12.011    0.124285    3.185706   -0.410547
   7 P    15.0000    0    30.974    0.065834    0.112511    1.148470
   8 O     8.0000    0    15.999    0.229337    0.392075    4.001899
   9 C     6.0000    0    12.011    2.706065   -1.733285   -0.076545
  10 C     6.0000    0    12.011    2.301573   -3.532355   -1.996248
  11 C     6.0000    0    12.011    4.292668   -4.959429   -2.970052
  12 C     6.0000    0    12.011    6.725169   -4.618185   -2.043769
  13 C     6.0000    0    12.011    7.170290   -2.844937   -0.148939
  14 C     6.0000    0    12.011    5.190596   -1.376762    0.838600
  15 C     6.0000    0    12.011    5.777879    0.483490    2.906886
  16 C     6.0000    0    12.011   -2.845780   -1.478934    0.216650
  17 C     6.0000    0    12.011   -4.209605   -0.633448   -1.907182
  18 C     6.0000    0    12.011   -6.435876   -1.826277   -2.662278
  19 C     6.0000    0    12.011   -7.343323   -3.884924   -1.309491
  20 C     6.0000    0    12.011   -6.022083   -4.757304    0.794356
  21 C     6.0000    0    12.011   -3.765739   -3.591487    1.568792
  22 C     6.0000    0    12.011   -2.439204   -4.593550    3.875180
  23 H     1.0000    0     1.008   -4.079792    6.664633    3.139202
  24 H     1.0000    0     1.008   -1.530587    5.064389    4.594661
  25 H     1.0000    0     1.008   -3.946916    3.357252    2.951214
  26 H     1.0000    0     1.008   -2.176764    9.217451    0.049212
  27 H     1.0000    0     1.008    0.318408    9.712212   -3.845767
  28 H     1.0000    0     1.008    2.705619    6.078952   -5.590963
  29 H     1.0000    0     1.008    2.608436    1.973655   -3.455661
  30 H     1.0000    0     1.008    0.421367   -3.853301   -2.759533
  31 H     1.0000    0     1.008    3.938792   -6.345593   -4.444368
  32 H     1.0000    0     1.008    8.278342   -5.737124   -2.788138
  33 H     1.0000    0     1.008    9.086094   -2.613242    0.563055
  34 H     1.0000    0     1.008    4.872723    2.306261    2.548900
  35 H     1.0000    0     1.008    7.812158    0.849404    3.027538
  36 H     1.0000    0     1.008    5.160479   -0.262734    4.733222
  37 H     1.0000    0     1.008   -3.557916    0.976382   -3.004697
  38 H     1.0000    0     1.008   -7.465792   -1.137919   -4.301098
  39 H     1.0000    0     1.008   -9.084925   -4.809642   -1.884099
  40 H     1.0000    0     1.008   -6.769007   -6.364034    1.839070
  41 H     1.0000    0     1.008   -0.407574   -4.777299    3.545508
  42 H     1.0000    0     1.008   -3.128504   -6.481417    4.372732
  43 H     1.0000    0     1.008   -2.780819   -3.349832    5.490733

--------------------------------
INTERNAL COORDINATES (ANGSTROEM)
--------------------------------
 C      0   0   0     0.000000000000     0.00000000     0.00000000
 C      1   0   0     1.504507615856     0.00000000     0.00000000
 C      2   1   0     1.405059044675   118.57788288     0.00000000
 C      3   2   1     1.393345420375   120.93028650   179.19203947
 C      4   3   2     1.389178842687   119.87514300   359.66109938
 C      5   4   3     1.394992272055   119.94423898   359.80799064
 C      6   5   4     1.408597741395   121.16555433     0.04837473
 P      7   6   5     1.823818241219   120.12525263   179.74436993
 O      8   7   6     1.519664898951   111.20396929   139.09909643
 C      8   7   6     1.823815398556   107.68432040    17.03339010
 C     10   8   7     1.408598448743   120.12522428   261.16618077
 C     11  10   8     1.394991144780   121.16566276   179.74569069
 C     12  11  10     1.389179279158   119.94427215     0.04870604
 C     13  12  11     1.393346833616   119.87495113   359.80639719
 C     14  13  12     1.405058740550   120.93042673   359.66240633
 C     15  14  13     1.504506553737   118.57777703   179.19210955
 C      8   7   6     1.823818451365   107.68396229   261.16470901
 C     17   8   7     1.408598098273   120.12509181    17.03484328
 C     18  17   8     1.394991433805   121.16549653   179.74587467
 C     19  18  17     1.389180225823   119.94435154     0.04855870
 C     20  19  18     1.393344384745   119.87505911   359.80730794
 C     21  20  19     1.405059808125   120.93025381   359.66149706
 C     22  21  20     1.504506849200   118.57774072   179.19184828
 H      1   2   3     1.095631091253   111.16072407    16.34259556
 H      1   2   3     1.093943492554   110.17078361   256.90488872
 H      1   2   3     1.093485677495   111.13982612   134.82242752
 H      3   2   1     1.088472069931   120.22660385   359.29428865
 H      4   3   2     1.086872084324   119.99100873   179.93911741
 H      5   4   3     1.087107918795   120.03669039   180.18736011
 H      6   5   4     1.087172788512   117.99717737   180.23466492
 H     11  10   8     1.087170501615   120.83675595   359.55464922
 H     12  11  10     1.087105925897   120.01815589   179.66934355
 H     13  12  11     1.086870875640   120.13341859   179.52936988
 H     14  13  12     1.088475791235   118.84305879   179.56182881
 H     16  15  14     1.093485077973   111.14022646   134.82595458
 H     16  15  14     1.095631955741   111.16065830    16.34559862
 H     16  15  14     1.093943082635   110.17058741   256.90793764
 H     18  17   8     1.087171187765   120.83702907   359.55385440
 H     19  18  17     1.087107257040   120.01805035   179.66882246
 H     20  19  18     1.086870573627   120.13329779   179.52924239
 H     21  20  19     1.088473258730   118.84328414   179.56027751
 H     23  22  21     1.093486257429   111.14009802   134.82536368
 H     23  22  21     1.095631091540   111.16064017    16.34542250
 H     23  22  21     1.093944706843   110.17070707   256.90755316

---------------------------
INTERNAL COORDINATES (A.U.)
---------------------------
 C      0   0   0     0.000000000000     0.00000000     0.00000000
 C      1   0   0     2.843107360367     0.00000000     0.00000000
 C      2   1   0     2.655176796424   118.57788288     0.00000000
 C      3   2   1     2.633041254463   120.93028650   179.19203947
 C      4   3   2     2.625167563716   119.87514300   359.66109938
 C      5   4   3     2.636153353121   119.94423898   359.80799064
 C      6   5   4     2.661863964097   121.16555433     0.04837473
 P      7   6   5     3.446516993953   120.12525263   179.74436993
 O      8   7   6     2.871750474351   111.20396929   139.09909643
 C      8   7   6     3.446511622099   107.68432040    17.03339010
 C     10   8   7     2.661865300791   120.12522428   261.16618077
 C     11  10   8     2.636151222879   121.16566276   179.74569069
 C     12  11  10     2.625168388526   119.94427215     0.04870604
 C     13  12  11     2.633043925101   119.87495113   359.80639719
 C     14  13  12     2.655176221711   120.93042673   359.66240633
 C     15  14  13     2.843105353253   118.57777703   179.19210955
 C      8   7   6     3.446517391073   107.68396229   261.16470901
 C     17   8   7     2.661864638498   120.12509181    17.03484328
 C     18  17   8     2.636151769057   121.16549653   179.74587467
 C     19  18  17     2.625170177464   119.94435154     0.04855870
 C     20  19  18     2.633039297405   119.87505911   359.80730794
 C     21  20  19     2.655178239136   120.93025381   359.66149706
 C     22  21  20     2.843105911596   118.57774072   179.19184828
 H      1   2   3     2.070442706278   111.16072407    16.34259556
 H      1   2   3     2.067253606912   110.17078361   256.90488872
 H      1   2   3     2.066388461830   111.13982612   134.82242752
 H      3   2   1     2.056914116591   120.22660385   359.29428865
 H      4   3   2     2.053890581976   119.99100873   179.93911741
 H      5   4   3     2.054336244540   120.03669039   180.18736011
 H      6   5   4     2.054458830539   117.99717737   180.23466492
 H     11  10   8     2.054454508930   120.83675595   359.55464922
 H     12  11  10     2.054332478509   120.01815589   179.66934355
 H     13  12  11     2.053888297894   120.13341859   179.52936988
 H     14  13  12     2.056921148838   118.84305879   179.56182881
 H     16  15  14     2.066387328898   111.14022646   134.82595458
 H     16  15  14     2.070444339923   111.16065830    16.34559862
 H     16  15  14     2.067252832279   110.17058741   256.90793764
 H     18  17   8     2.054455805565   120.83702907   359.55385440
 H     19  18  17     2.054334994004   120.01805035   179.66882246
 H     20  19  18     2.053887727174   120.13329779   179.52924239
 H     21  20  19     2.056916363097   118.84328414   179.56027751
 H     23  22  21     2.066389557746   111.14009802   134.82536368
 H     23  22  21     2.070442706820   111.16064017    16.34542250
 H     23  22  21     2.067255901586   110.17070707   256.90755316

---------------------
BASIS SET INFORMATION
---------------------
There are 4 groups of distinct atoms

 Group   1 Type C   : 7s4p1d contracted to 3s2p1d pattern {511/31/1}
 Group   2 Type P   : 10s7p1d contracted to 4s3p1d pattern {5311/511/1}
 Group   3 Type O   : 7s4p1d contracted to 3s2p1d pattern {511/31/1}
 Group   4 Type H   : 4s1p contracted to 2s1p pattern {31/1}

Atom   0C    basis set group =>   1
Atom   1C    basis set group =>   1
Atom   2C    basis set group =>   1
Atom   3C    basis set group =>   1
Atom   4C    basis set group =>   1
Atom   5C    basis set group =>   1
Atom   6C    basis set group =>   1
Atom   7P    basis set group =>   2
Atom   8O    basis set group =>   3
Atom   9C    basis set group =>   1
Atom  10C    basis set group =>   1
Atom  11C    basis set group =>   1
Atom  12C    basis set group =>   1
Atom  13C    basis set group =>   1
Atom  14C    basis set group =>   1
Atom  15C    basis set group =>   1
Atom  16C    basis set group =>   1
Atom  17C    basis set group =>   1
Atom  18C    basis set group =>   1
Atom  19C    basis set group =>   1
Atom  20C    basis set group =>   1
Atom  21C    basis set group =>   1
Atom  22C    basis set group =>   1
Atom  23H    basis set group =>   4
Atom  24H    basis set group =>   4
Atom  25H    basis set group =>   4
Atom  26H    basis set group =>   4
Atom  27H    basis set group =>   4
Atom  28H    basis set group =>   4
Atom  29H    basis set group =>   4
Atom  30H    basis set group =>   4
Atom  31H    basis set group =>   4
Atom  32H    basis set group =>   4
Atom  33H    basis set group =>   4
Atom  34H    basis set group =>   4
Atom  35H    basis set group =>   4
Atom  36H    basis set group =>   4
Atom  37H    basis set group =>   4
Atom  38H    basis set group =>   4
Atom  39H    basis set group =>   4
Atom  40H    basis set group =>   4
Atom  41H    basis set group =>   4
Atom  42H    basis set group =>   4
Atom  43H    basis set group =>   4
---------------------------------
AUXILIARY/J BASIS SET INFORMATION
---------------------------------
There are 4 groups of distinct atoms

 Group   1 Type C   : 12s5p4d2f1g contracted to 6s4p3d1f1g pattern {711111/2111/211/2/1}
 Group   2 Type P   : 14s5p5d2f1g contracted to 8s4p3d1f1g pattern {71111111/2111/311/2/1}
 Group   3 Type O   : 12s5p4d2f1g contracted to 6s4p3d1f1g pattern {711111/2111/211/2/1}
 Group   4 Type H   : 5s2p1d contracted to 3s1p1d pattern {311/2/1}

Atom   0C    basis set group =>   1
Atom   1C    basis set group =>   1
Atom   2C    basis set group =>   1
Atom   3C    basis set group =>   1
Atom   4C    basis set group =>   1
Atom   5C    basis set group =>   1
Atom   6C    basis set group =>   1
Atom   7P    basis set group =>   2
Atom   8O    basis set group =>   3
Atom   9C    basis set group =>   1
Atom  10C    basis set group =>   1
Atom  11C    basis set group =>   1
Atom  12C    basis set group =>   1
Atom  13C    basis set group =>   1
Atom  14C    basis set group =>   1
Atom  15C    basis set group =>   1
Atom  16C    basis set group =>   1
Atom  17C    basis set group =>   1
Atom  18C    basis set group =>   1
Atom  19C    basis set group =>   1
Atom  20C    basis set group =>   1
Atom  21C    basis set group =>   1
Atom  22C    basis set group =>   1
Atom  23H    basis set group =>   4
Atom  24H    basis set group =>   4
Atom  25H    basis set group =>   4
Atom  26H    basis set group =>   4
Atom  27H    basis set group =>   4
Atom  28H    basis set group =>   4
Atom  29H    basis set group =>   4
Atom  30H    basis set group =>   4
Atom  31H    basis set group =>   4
Atom  32H    basis set group =>   4
Atom  33H    basis set group =>   4
Atom  34H    basis set group =>   4
Atom  35H    basis set group =>   4
Atom  36H    basis set group =>   4
Atom  37H    basis set group =>   4
Atom  38H    basis set group =>   4
Atom  39H    basis set group =>   4
Atom  40H    basis set group =>   4
Atom  41H    basis set group =>   4
Atom  42H    basis set group =>   4
Atom  43H    basis set group =>   4


           ************************************************************
           *        Program running with 6 parallel MPI-processes     *
           *              working on a common directory               *
           ************************************************************
------------------------------------------------------------------------------
                             ORCA STARTUP CALCULATIONS
                           -- RI-GTO INTEGRALS CHOSEN --
------------------------------------------------------------------------------
------------------------------------------------------------------------------
                   ___                                                        
                  /   \      - P O W E R E D   B Y -                         
                 /     \                                                     
                 |  |  |   _    _      __       _____    __    __             
                 |  |  |  | |  | |    /  \     |  _  \  |  |  /  |          
                  \  \/   | |  | |   /    \    | | | |  |  | /  /          
                 / \  \   | |__| |  /  /\  \   | |_| |  |  |/  /          
                |  |  |   |  __  | /  /__\  \  |    /   |      \           
                |  |  |   | |  | | |   __   |  |    \   |  |\   \          
                \     /   | |  | | |  |  |  |  | |\  \  |  | \   \       
                 \___/    |_|  |_| |__|  |__|  |_| \__\ |__|  \__/        
                                                                              
                      - O R C A' S   B I G   F R I E N D -                    
                                      &                                       
                       - I N T E G R A L  F E E D E R -                       
                                                                              
 v1 FN, 2020, v2 2021, v3 2022-2024                                           
------------------------------------------------------------------------------


----------------------
SHARK INTEGRAL PACKAGE
----------------------

Number of atoms                             ...     44
Number of basis functions                   ...    431
Number of shells                            ...    203
Maximum angular momentum                    ...      2
Integral batch strategy                     ... SHARK/LIBINT Hybrid
RI-J (if used) integral strategy            ... SPLIT-RIJ (Revised 2003 algorithm where possible)
Printlevel                                  ...      1
Contraction scheme used                     ... SEGMENTED contraction
Prescreening option                         ... SCHWARTZ
   Thresh                                   ... 2.500e-11
   Tcut                                     ... 2.500e-12
   Tpresel                                  ... 2.500e-12 
Coulomb Range Separation                    ... NOT USED
Exchange Range Separation                   ... NOT USED
Multipole approximations                    ... NOT USED
Finite Nucleus Model                        ... NOT USED
CABS basis                                  ... NOT available
Auxiliary Coulomb fitting basis             ... AVAILABLE
   # of basis functions in Aux-J            ...   1360
   # of shells in Aux-J                     ...    452
   Maximum angular momentum in Aux-J        ...      4
Auxiliary J/K fitting basis                 ... NOT available
Auxiliary Correlation fitting basis         ... NOT available
Auxiliary 'external' fitting basis          ... NOT available

Checking pre-screening integrals            ... done (  0.0 sec) Dimension = 203
Check shell pair data                       ... done (  0.0 sec)
Shell pair information
Shell pair cut-off parameter TPreSel        ...   2.5e-12
Total number of shell pairs                 ...     20706
Shell pairs after pre-screening             ...     16023
Total number of primitive shell pairs       ...     75450
Primitive shell pairs kept                  ...     36871
          la=0 lb=0:   5058 shell pairs
          la=1 lb=0:   6005 shell pairs
          la=1 lb=1:   1829 shell pairs
          la=2 lb=0:   1852 shell pairs
          la=2 lb=1:   1120 shell pairs
          la=2 lb=2:    159 shell pairs

Calculating one electron integrals          ... done (  0.0 sec)
Calculating RI/J V-Matrix + Cholesky decomp.... done (  0.1 sec)
Calculating Nuclear repulsion               ... done (  0.0 sec) ENN=   2063.744529860470 Eh

Diagonalization of the overlap matrix:
Smallest eigenvalue                        ... 2.511e-04
Time for diagonalization                   ...    0.026 sec
Threshold for overlap eigenvalues          ... 1.000e-07
Number of eigenvalues below threshold      ... 0
Time for construction of square roots      ...    0.015 sec
Total time needed                          ...    0.044 sec

-------------------
DFT GRID GENERATION
-------------------

General Integration Accuracy     IntAcc      ... 4.388
Radial Grid Type                 RadialGrid  ... OptM3 with GC (2021)
Angular Grid (max. ang.)         AngularGrid ... 4 (Lebedev-302)
Angular grid pruning method      GridPruning ... 4 (adaptive)
Weight generation scheme         WeightScheme... mBecke (2022)
Basis function cutoff            BFCut       ... 1.0000e-11
Integration weight cutoff        WCut        ... 1.0000e-14
Partially contracted basis set               ... off
Rotationally invariant grid construction     ... off
Angular grids for H and He will be reduced by one unit

Total number of grid points                  ...   204951
Total number of batches                      ...     3228
Average number of points per batch           ...       63
Average number of grid points per atom       ...     4658
Initializing property integral containers    ... done (  0.0 sec)

SHARK setup successfully completed in   1.6 seconds

Maximum memory used throughout the entire STARTUP-calculation: 58.1 MB


           ************************************************************
           *        Program running with 6 parallel MPI-processes     *
           *              working on a common directory               *
           ************************************************************
-------------------------------------------------------------------------------
                                 ORCA GUESS
                   Start orbitals & Density for SCF / CASSCF
-------------------------------------------------------------------------------

------------
SCF SETTINGS
------------
Hamiltonian:
 Density Functional     Method          .... DFT(GTOs)
 Exchange Functional    Exchange        .... B88
   X-Alpha parameter    XAlpha          ....  0.666667
   Becke's b parameter  XBeta           ....  0.004200
 Correlation Functional Correlation     .... P86
 LDA part of GGA corr.  LDAOpt          .... PW91-LDA
 Gradients option       PostSCFGGA      .... off
   NL short-range parameter             ....  4.400000
 RI-approximation to the Coulomb term is turned on
   Number of AuxJ basis functions       .... 1360


General Settings:
 Integral files         IntName         .... data/geom_opt_PO_BP86/80271/80271
 Hartree-Fock type      HFTyp           .... RHF
 Total Charge           Charge          ....    0
 Multiplicity           Mult            ....    1
 Number of Electrons    NEL             ....  170
 Basis Dimension        Dim             ....  431
 Nuclear Repulsion      ENuc            ....   2063.7445298605 Eh

Convergence Acceleration:
 AO-DIIS                CNVDIIS         .... on
   Start iteration      DIISMaxIt       ....    12
   Startup error        DIISStart       ....  0.200000
   # of expansion vecs  DIISMaxEq       ....     5
   Bias factor          DIISBfac        ....   1.050
   Max. coefficient     DIISMaxC        ....  10.000
 MO-DIIS                CNVKDIIS        .... off
 Trust-Rad. Augm. Hess. CNVTRAH         .... auto
   Auto Start mean grad. ratio tolernc. ....  1.125000
   Auto Start start iteration           ....    50
   Auto Start num. interpolation iter.  ....    10
   Max. Number of Micro iterations      ....    24
   Max. Number of Macro iterations      .... Maxiter - #DIIS iter
   Number of Davidson start vectors     ....     2
   Converg. threshold    (grad. norm)   ....   1.000e-05
   Grad. Scal. Fac. for Micro threshold ....   0.100
   Minimum threshold for Micro iter.    ....   1.000e-02
   NR start threshold (gradient norm)   ....   1.000e-04
   Initial trust radius                 ....   0.400
   Minimum AH scaling param. (alpha)    ....   1.000
   Maximum AH scaling param. (alpha)    .... 1000.000
   Quad. conv. algorithm                .... NR
   White noise on init. David. guess    .... on
   Maximum white noise                  ....   0.010
   Pseudo random numbers                .... off
   Inactive MOs                         .... canonical
   Orbital update algorithm             .... Taylor
   Preconditioner                       .... Diag
   Full preconditioner red. dimension   ....   250
 SOSCF                  CNVSOSCF        .... on
   Start iteration      SOSCFMaxIt      ....   150
   Startup grad/error   SOSCFStart      ....  0.003300
   Hessian update       SOSCFHessUp     .... L-BFGS
 Level Shifting         CNVShift        .... on
   Level shift para.    LevelShift      ....    0.2500
   Turn off err/grad.   ShiftErr        ....    0.0010
 Zerner damping         CNVZerner       .... off
 Static damping         CNVDamp         .... on
   Fraction old density DampFac         ....    0.7000
   Max. Damping (<1)    DampMax         ....    0.9800
   Min. Damping (>=0)   DampMin         ....    0.0000
   Turn off err/grad.   DampErr         ....    0.1000

SCF Procedure:
 Maximum # iterations   MaxIter         ....   125
 SCF integral mode      SCFMode         .... Direct
   Integral package                     .... SHARK and LIBINT hybrid scheme
 Reset frequency        DirectResetFreq ....    20
 Integral Threshold     Thresh          ....  2.500e-11 Eh
 Primitive CutOff       TCut            ....  2.500e-12 Eh

Convergence Tolerance:
 Convergence Check Mode ConvCheckMode   .... Total+1el-Energy
 Convergence forced     ConvForced      .... 0
 Energy Change          TolE            ....  1.000e-08 Eh
 1-El. energy change                    ....  1.000e-05 Eh
 Orbital Gradient       TolG            ....  1.000e-05
 Orbital Rotation angle TolX            ....  1.000e-05
 DIIS Error             TolErr          ....  5.000e-07

------------------------------
INITIAL GUESS: MODEL POTENTIAL
------------------------------
Loading Hartree-Fock densities                     ... done
Calculating cut-offs                               ... done
Initializing the effective Hamiltonian             ... done
Setting up the integral package (SHARK)            ... done
Starting the Coulomb interaction                   ... done (   0.2 sec)
Making the grid                                    ... done (   0.3 sec)
Mapping shells                                     ... done
Starting the XC term evaluation                    ... done (   0.2 sec)
  promolecular density results
     # of electrons  =    169.990958230
     EX              =   -145.065817278
     EC              =     -6.283943210
     EX+EC           =   -151.349760488
Transforming the Hamiltonian                       ... done (   0.0 sec)
Diagonalizing the Hamiltonian                      ... done (   0.0 sec)
Back transforming the eigenvectors                 ... done (   0.0 sec)
Now organizing SCF variables                       ... done
                      ------------------
                      INITIAL GUESS DONE (   0.8 sec)
                      ------------------
             **** ENERGY FILE WAS UPDATED (data/geom_opt_PO_BP86/80271/80271.en.tmp) ****
Finished Guess after   0.9 sec
Maximum memory used throughout the entire GUESS-calculation: 33.5 MB


           ************************************************************
           *        Program running with 6 parallel MPI-processes     *
           *              working on a common directory               *
           ************************************************************

-------------------------------------------------------------------------------------------
                                      ORCA LEAN-SCF
                              memory conserving SCF solver
-------------------------------------------------------------------------------------------

----------------------------------------D-I-I-S--------------------------------------------
Iteration    Energy (Eh)           Delta-E    RMSDP     MaxDP     DIISErr   Damp  Time(sec)
-------------------------------------------------------------------------------------------
               ***  Starting incremental Fock matrix formation  ***
    1    -1228.2420329954429690     0.00e+00  2.70e-03  1.69e-01  3.28e-01  0.700   1.8
    2    -1228.5021425137997539    -2.60e-01  1.59e-03  5.71e-02  7.34e-02  0.700   1.4
                               ***Turning on AO-DIIS***
    3    -1228.5863811459175849    -8.42e-02  6.28e-04  2.33e-02  3.29e-02  0.700   1.5
    4    -1228.6433527854601380    -5.70e-02  1.07e-03  5.30e-02  1.53e-02  0.000   1.4
    5    -1228.7685603596019064    -1.25e-01  2.71e-04  1.29e-02  1.15e-02  0.000   1.3
                              *** Initializing SOSCF ***
---------------------------------------S-O-S-C-F--------------------------------------
Iteration    Energy (Eh)           Delta-E    RMSDP     MaxDP     MaxGrad    Time(sec)
--------------------------------------------------------------------------------------
    6    -1228.7700643544185368    -1.50e-03  9.91e-05  5.46e-03  3.00e-03     1.4
               *** Restarting incremental Fock matrix formation ***
    7    -1228.7701410271988607    -7.67e-05  9.31e-05  2.68e-03  4.78e-04     1.3
    8    -1228.7700743987402348     6.66e-05  5.98e-05  2.05e-03  1.40e-03     1.2
    9    -1228.7701573477211241    -8.29e-05  2.60e-05  1.24e-03  1.85e-04     1.2
   10    -1228.7701507330484674     6.61e-06  1.84e-05  1.04e-03  3.48e-04     1.1
   11    -1228.7701589106845859    -8.18e-06  1.21e-05  6.08e-04  5.10e-05     1.2
   12    -1228.7701578594687817     1.05e-06  7.87e-06  3.38e-04  1.04e-04     1.8
   13    -1228.7701592211237767    -1.36e-06  3.41e-06  9.83e-05  1.66e-05     1.1
   14    -1228.7701590894052970     1.32e-07  2.30e-06  5.53e-05  3.63e-05     1.1
   15    -1228.7701592190269366    -1.30e-07  1.30e-06  4.01e-05  8.81e-06     1.2
   16    -1228.7701592082657953     1.08e-08  8.62e-07  2.76e-05  1.42e-05     1.2
   17    -1228.7701592415946834    -3.33e-08  1.78e-07  1.57e-05  6.93e-07     1.1
                  *** Gradient check signals convergence ***

               *****************************************************
               *                     SUCCESS                       *
               *           SCF CONVERGED AFTER  17 CYCLES          *
               *****************************************************

             **** ENERGY FILE WAS UPDATED (data/geom_opt_PO_BP86/80271/80271.en.tmp) ****

----------------
TOTAL SCF ENERGY
----------------

Total Energy       :      -1228.77015924159468 Eh          -33436.53591 eV

Components:
Nuclear Repulsion  :       2063.74452986046981 Eh           56157.34364 eV
Electronic Energy  :      -3292.51468910206449 Eh          -89593.87956 eV
One Electron Energy:      -5776.47280837385551 Eh         -157185.81629 eV
Two Electron Energy:       2483.95811927179102 Eh           67591.93673 eV

Virial components:
Potential Energy   :      -2446.22966351775904 Eh          -66565.29326 eV
Kinetic Energy     :       1217.45950427616435 Eh           33128.75734 eV
Virial Ratio       :          2.00929037469066

DFT components:
N(Alpha)           :       84.999871094083 electrons
N(Beta)            :       84.999871094083 electrons
N(Total)           :      169.999742188167 electrons
E(X)               :     -147.305547525231 Eh       
E(C)               :       -6.287105130561 Eh       
E(XC)              :     -153.592652655792 Eh       

---------------
SCF CONVERGENCE
---------------

  Last Energy change         ...    3.3329e-08  Tolerance :   1.0000e-08
  Last MAX-Density change    ...    1.5697e-05  Tolerance :   1.0000e-07
  Last RMS-Density change    ...    1.7786e-07  Tolerance :   5.0000e-09
  Last DIIS Error            ...    3.0025e-03  Tolerance :   5.0000e-07
  Last Orbital Gradient      ...    6.9295e-07  Tolerance :   1.0000e-05
  Last Orbital Rotation      ...    3.9342e-06  Tolerance :   1.0000e-05


----------------
ORBITAL ENERGIES
----------------

  NO   OCC          E(Eh)            E(eV) 
   0   2.0000     -76.413395     -2079.3142 
   1   2.0000     -18.704341      -508.9710 
   2   2.0000      -9.933310      -270.2991 
   3   2.0000      -9.933291      -270.2986 
   4   2.0000      -9.933286      -270.2984 
   5   2.0000      -9.925450      -270.0852 
   6   2.0000      -9.925406      -270.0840 
   7   2.0000      -9.925400      -270.0839 
   8   2.0000      -9.923385      -270.0290 
   9   2.0000      -9.923379      -270.0289 
  10   2.0000      -9.923321      -270.0273 
  11   2.0000      -9.922200      -269.9968 
  12   2.0000      -9.922195      -269.9966 
  13   2.0000      -9.922188      -269.9965 
  14   2.0000      -9.918964      -269.9087 
  15   2.0000      -9.918958      -269.9086 
  16   2.0000      -9.918950      -269.9084 
  17   2.0000      -9.918635      -269.8998 
  18   2.0000      -9.918625      -269.8995 
  19   2.0000      -9.918618      -269.8993 
  20   2.0000      -9.900398      -269.4035 
  21   2.0000      -9.900397      -269.4035 
  22   2.0000      -9.900392      -269.4034 
  23   2.0000      -6.370998      -173.3637 
  24   2.0000      -4.592170      -124.9593 
  25   2.0000      -4.592169      -124.9593 
  26   2.0000      -4.592150      -124.9588 
  27   2.0000      -0.844913       -22.9913 
  28   2.0000      -0.783414       -21.3178 
  29   2.0000      -0.781058       -21.2537 
  30   2.0000      -0.781046       -21.2533 
  31   2.0000      -0.700166       -19.0525 
  32   2.0000      -0.699492       -19.0341 
  33   2.0000      -0.699490       -19.0341 
  34   2.0000      -0.693525       -18.8718 
  35   2.0000      -0.674573       -18.3561 
  36   2.0000      -0.674570       -18.3560 
  37   2.0000      -0.619411       -16.8550 
  38   2.0000      -0.612729       -16.6732 
  39   2.0000      -0.612727       -16.6731 
  40   2.0000      -0.577416       -15.7123 
  41   2.0000      -0.550549       -14.9812 
  42   2.0000      -0.550546       -14.9811 
  43   2.0000      -0.537771       -14.6335 
  44   2.0000      -0.524365       -14.2687 
  45   2.0000      -0.524361       -14.2686 
  46   2.0000      -0.493476       -13.4282 
  47   2.0000      -0.462392       -12.5823 
  48   2.0000      -0.462381       -12.5820 
  49   2.0000      -0.439716       -11.9653 
  50   2.0000      -0.424715       -11.5571 
  51   2.0000      -0.424714       -11.5571 
  52   2.0000      -0.421374       -11.4662 
  53   2.0000      -0.402787       -10.9604 
  54   2.0000      -0.402784       -10.9603 
  55   2.0000      -0.393573       -10.7097 
  56   2.0000      -0.385881       -10.5004 
  57   2.0000      -0.385880       -10.5003 
  58   2.0000      -0.372284       -10.1304 
  59   2.0000      -0.369770       -10.0620 
  60   2.0000      -0.369766       -10.0618 
  61   2.0000      -0.368011       -10.0141 
  62   2.0000      -0.364673        -9.9233 
  63   2.0000      -0.364671        -9.9232 
  64   2.0000      -0.345236        -9.3943 
  65   2.0000      -0.333158        -9.0657 
  66   2.0000      -0.333156        -9.0656 
  67   2.0000      -0.329950        -8.9784 
  68   2.0000      -0.324342        -8.8258 
  69   2.0000      -0.324336        -8.8256 
  70   2.0000      -0.313113        -8.5202 
  71   2.0000      -0.308770        -8.4021 
  72   2.0000      -0.308615        -8.3978 
  73   2.0000      -0.308613        -8.3978 
  74   2.0000      -0.301126        -8.1941 
  75   2.0000      -0.301126        -8.1940 
  76   2.0000      -0.293695        -7.9918 
  77   2.0000      -0.242728        -6.6050 
  78   2.0000      -0.242724        -6.6048 
  79   2.0000      -0.239071        -6.5054 
  80   2.0000      -0.227842        -6.1999 
  81   2.0000      -0.226757        -6.1704 
  82   2.0000      -0.226755        -6.1703 
  83   2.0000      -0.204350        -5.5607 
  84   2.0000      -0.204347        -5.5606 
  85   0.0000      -0.061393        -1.6706 
  86   0.0000      -0.061387        -1.6704 
  87   0.0000      -0.061173        -1.6646 
  88   0.0000      -0.052513        -1.4290 
  89   0.0000      -0.040448        -1.1007 
  90   0.0000      -0.040444        -1.1005 
  91   0.0000       0.041412         1.1269 
  92   0.0000       0.046489         1.2650 
  93   0.0000       0.046503         1.2654 
  94   0.0000       0.050130         1.3641 
  95   0.0000       0.068309         1.8588 
*Only the first 10 virtual orbitals were printed.

                    ********************************
                    * MULLIKEN POPULATION ANALYSIS *
                    ********************************

-----------------------
MULLIKEN ATOMIC CHARGES
-----------------------
   0 C :    0.087588
   1 C :   -0.091608
   2 C :   -0.023781
   3 C :    0.018689
   4 C :    0.015477
   5 C :   -0.019649
   6 C :   -0.110985
   7 P :    0.570819
   8 O :   -0.479389
   9 C :   -0.111071
  10 C :   -0.019482
  11 C :    0.015433
  12 C :    0.018720
  13 C :   -0.023759
  14 C :   -0.091689
  15 C :    0.087527
  16 C :   -0.111218
  17 C :   -0.019431
  18 C :    0.015400
  19 C :    0.018804
  20 C :   -0.023803
  21 C :   -0.091635
  22 C :    0.087635
  23 H :    0.006246
  24 H :    0.064707
  25 H :    0.040723
  26 H :   -0.015373
  27 H :   -0.004312
  28 H :   -0.006312
  29 H :    0.008085
  30 H :    0.008101
  31 H :   -0.006313
  32 H :   -0.004304
  33 H :   -0.015402
  34 H :    0.040790
  35 H :    0.006257
  36 H :    0.064763
  37 H :    0.008133
  38 H :   -0.006326
  39 H :   -0.004331
  40 H :   -0.015392
  41 H :    0.040683
  42 H :    0.006244
  43 H :    0.064741
Sum of atomic charges:   -0.0000000

--------------------------------
MULLIKEN REDUCED ORBITAL CHARGES
--------------------------------
  0 C s       :     2.905211  s :     2.905211
      pz      :     1.001204  p :     2.981918
      px      :     0.991914
      py      :     0.988800
      dz2     :     0.006811  d :     0.025284
      dxz     :     0.007098
      dyz     :     0.001798
      dx2y2   :     0.002074
      dxy     :     0.007503

  1 C s       :     3.118063  s :     3.118063
      pz      :     0.990424  p :     2.932263
      px      :     0.983856
      py      :     0.957984
      dz2     :     0.008885  d :     0.041281
      dxz     :     0.006107
      dyz     :     0.010275
      dx2y2   :     0.007645
      dxy     :     0.008370

  2 C s       :     3.229156  s :     3.229156
      pz      :     0.932226  p :     2.762663
      px      :     0.939911
      py      :     0.890526
      dz2     :     0.007205  d :     0.031962
      dxz     :     0.004856
      dyz     :     0.008611
      dx2y2   :     0.005017
      dxy     :     0.006274

  3 C s       :     3.171442  s :     3.171442
      pz      :     0.941602  p :     2.776414
      px      :     0.968032
      py      :     0.866780
      dz2     :     0.007054  d :     0.033454
      dxz     :     0.005196
      dyz     :     0.008988
      dx2y2   :     0.007061
      dxy     :     0.005154

  4 C s       :     3.165297  s :     3.165297
      pz      :     0.877520  p :     2.786326
      px      :     0.942699
      py      :     0.966106
      dz2     :     0.006052  d :     0.032901
      dxz     :     0.004573
      dyz     :     0.008085
      dx2y2   :     0.007122
      dxy     :     0.007070

  5 C s       :     3.241822  s :     3.241822
      pz      :     0.936953  p :     2.744780
      px      :     0.943327
      py      :     0.864500
      dz2     :     0.007528  d :     0.033047
      dxz     :     0.004979
      dyz     :     0.008894
      dx2y2   :     0.004849
      dxy     :     0.006796

  6 C s       :     3.105530  s :     3.105530
      pz      :     0.947638  p :     2.973513
      px      :     1.028191
      py      :     0.997685
      dz2     :     0.006956  d :     0.031941
      dxz     :     0.005059
      dyz     :     0.008283
      dx2y2   :     0.006583
      dxy     :     0.005060

  7 P s       :     5.211497  s :     5.211497
      pz      :     2.810038  p :     8.737280
      px      :     2.964160
      py      :     2.963082
      dz2     :     0.095353  d :     0.480404
      dxz     :     0.126481
      dyz     :     0.141222
      dx2y2   :     0.051169
      dxy     :     0.066179

  8 O s       :     3.838189  s :     3.838189
      pz      :     1.328622  p :     4.629679
      px      :     1.651545
      py      :     1.649512
      dz2     :     0.004892  d :     0.011522
      dxz     :     0.003219
      dyz     :     0.003238
      dx2y2   :     0.000094
      dxy     :     0.000079

  9 C s       :     3.105479  s :     3.105479
      pz      :     0.969592  p :     2.973650
      px      :     1.023326
      py      :     0.980731
      dz2     :     0.006117  d :     0.031942
      dxz     :     0.007231
      dyz     :     0.004595
      dx2y2   :     0.006234
      dxy     :     0.007764

 10 C s       :     3.241838  s :     3.241838
      pz      :     0.942149  p :     2.744597
      px      :     0.842961
      py      :     0.959487
      dz2     :     0.006273  d :     0.033047
      dxz     :     0.007218
      dyz     :     0.004987
      dx2y2   :     0.008211
      dxy     :     0.006358

 11 C s       :     3.165347  s :     3.165347
      pz      :     0.908995  p :     2.786319
      px      :     0.959026
      py      :     0.918299
      dz2     :     0.004428  d :     0.032901
      dxz     :     0.007739
      dyz     :     0.004521
      dx2y2   :     0.008307
      dxy     :     0.007906

 12 C s       :     3.171418  s :     3.171418
      pz      :     0.951155  p :     2.776407
      px      :     0.893643
      py      :     0.931608
      dz2     :     0.006227  d :     0.033455
      dxz     :     0.007978
      dyz     :     0.004307
      dx2y2   :     0.006424
      dxy     :     0.008519

 13 C s       :     3.229270  s :     3.229270
      pz      :     0.946104  p :     2.762527
      px      :     0.852255
      py      :     0.964168
      dz2     :     0.005856  d :     0.031961
      dxz     :     0.006837
      dyz     :     0.005095
      dx2y2   :     0.007932
      dxy     :     0.006242

 14 C s       :     3.117964  s :     3.117964
      pz      :     0.978182  p :     2.932444
      px      :     0.990508
      py      :     0.963755
      dz2     :     0.007765  d :     0.041281
      dxz     :     0.009418
      dyz     :     0.005297
      dx2y2   :     0.009195
      dxy     :     0.009606

 15 C s       :     2.905211  s :     2.905211
      pz      :     1.014274  p :     2.981977
      px      :     0.969117
      py      :     0.998585
      dz2     :     0.006825  d :     0.025285
      dxz     :     0.002575
      dyz     :     0.005715
      dx2y2   :     0.006204
      dxy     :     0.003966

 16 C s       :     3.105793  s :     3.105793
      pz      :     0.958643  p :     2.973484
      px      :     0.971561
      py      :     1.043280
      dz2     :     0.007369  d :     0.031941
      dxz     :     0.006171
      dyz     :     0.006411
      dx2y2   :     0.005625
      dxy     :     0.006365

 17 C s       :     3.241660  s :     3.241660
      pz      :     0.932988  p :     2.744724
      px      :     0.924328
      py      :     0.887409
      dz2     :     0.006328  d :     0.033047
      dxz     :     0.007410
      dyz     :     0.006400
      dx2y2   :     0.006648
      dxy     :     0.006260

 18 C s       :     3.165387  s :     3.165387
      pz      :     0.886948  p :     2.786313
      px      :     0.941547
      py      :     0.957818
      dz2     :     0.005599  d :     0.032900
      dxz     :     0.007002
      dyz     :     0.005710
      dx2y2   :     0.007261
      dxy     :     0.007328

 19 C s       :     3.171392  s :     3.171392
      pz      :     0.958894  p :     2.776350
      px      :     0.876741
      py      :     0.940714
      dz2     :     0.007783  d :     0.033454
      dxz     :     0.006229
      dyz     :     0.006891
      dx2y2   :     0.005940
      dxy     :     0.006612

 20 C s       :     3.229234  s :     3.229234
      pz      :     0.913491  p :     2.762608
      px      :     0.955715
      py      :     0.893402
      dz2     :     0.006121  d :     0.031962
      dxz     :     0.007442
      dyz     :     0.006030
      dx2y2   :     0.006139
      dxy     :     0.006230

 21 C s       :     3.118102  s :     3.118102
      pz      :     0.995622  p :     2.932252
      px      :     0.941943
      py      :     0.994686
      dz2     :     0.008584  d :     0.041282
      dxz     :     0.008073
      dyz     :     0.007946
      dx2y2   :     0.008884
      dxy     :     0.007794

 22 C s       :     2.905166  s :     2.905166
      pz      :     1.000686  p :     2.981914
      px      :     1.003572
      py      :     0.977657
      dz2     :     0.005896  d :     0.025285
      dxz     :     0.003858
      dyz     :     0.006123
      dx2y2   :     0.006443
      dxy     :     0.002964

 23 H s       :     0.970839  s :     0.970839
      pz      :     0.004726  p :     0.022914
      px      :     0.008231
      py      :     0.009956

 24 H s       :     0.911481  s :     0.911481
      pz      :     0.009968  p :     0.023812
      px      :     0.008076
      py      :     0.005769

 25 H s       :     0.935361  s :     0.935361
      pz      :     0.004674  p :     0.023916
      px      :     0.007811
      py      :     0.011431

 26 H s       :     0.993024  s :     0.993024
      pz      :     0.005492  p :     0.022349
      px      :     0.007070
      py      :     0.009787

 27 H s       :     0.981988  s :     0.981988
      pz      :     0.006206  p :     0.022325
      px      :     0.004489
      py      :     0.011630

 28 H s       :     0.983877  s :     0.983877
      pz      :     0.011029  p :     0.022435
      px      :     0.007497
      py      :     0.003908

 29 H s       :     0.968639  s :     0.968639
      pz      :     0.005547  p :     0.023276
      px      :     0.007421
      py      :     0.010308

 30 H s       :     0.968623  s :     0.968623
      pz      :     0.005604  p :     0.023276
      px      :     0.013053
      py      :     0.004619

 31 H s       :     0.983879  s :     0.983879
      pz      :     0.009483  p :     0.022434
      px      :     0.004024
      py      :     0.008927

 32 H s       :     0.981979  s :     0.981979
      pz      :     0.005615  p :     0.022325
      px      :     0.009447
      py      :     0.007263

 33 H s       :     0.993052  s :     0.993052
      pz      :     0.005624  p :     0.022349
      px      :     0.012263
      py      :     0.004462

 34 H s       :     0.935298  s :     0.935298
      pz      :     0.004993  p :     0.023912
      px      :     0.007550
      py      :     0.011369

 35 H s       :     0.970828  s :     0.970828
      pz      :     0.004895  p :     0.022915
      px      :     0.012676
      py      :     0.005345

 36 H s       :     0.911427  s :     0.911427
      pz      :     0.011229  p :     0.023811
      px      :     0.006802
      py      :     0.005780

 37 H s       :     0.968591  s :     0.968591
      pz      :     0.006882  p :     0.023276
      px      :     0.005449
      py      :     0.010946

 38 H s       :     0.983892  s :     0.983892
      pz      :     0.010485  p :     0.022434
      px      :     0.006591
      py      :     0.005358

 39 H s       :     0.982007  s :     0.982007
      pz      :     0.004927  p :     0.022325
      px      :     0.011204
      py      :     0.006193

 40 H s       :     0.993043  s :     0.993043
      pz      :     0.006844  p :     0.022349
[...]
      dyz     :     0.015188
      dx2y2   :     0.018118
      dxy     :     0.017856

 21 C s       :     2.867824  s :     2.867824
      pz      :     0.992023  p :     3.039882
      px      :     1.028248
      py      :     1.019611
      dz2     :     0.017275  d :     0.104491
      dxz     :     0.019611
      dyz     :     0.020185
      dx2y2   :     0.022948
      dxy     :     0.024472

 22 C s       :     2.844780  s :     2.844780
      pz      :     1.048623  p :     3.164547
      px      :     1.051435
      py      :     1.064489
      dz2     :     0.008829  d :     0.065839
      dxz     :     0.014855
      dyz     :     0.018946
      dx2y2   :     0.008037
      dxy     :     0.015173

 23 H s       :     0.904698  s :     0.904698
      pz      :     0.014220  p :     0.064016
      px      :     0.016510
      py      :     0.033286

 24 H s       :     0.881017  s :     0.881017
      pz      :     0.031105  p :     0.071872
      px      :     0.020981
      py      :     0.019785

 25 H s       :     0.890572  s :     0.890572
      pz      :     0.014116  p :     0.065321
      px      :     0.027855
      py      :     0.023351

 26 H s       :     0.902109  s :     0.902109
      pz      :     0.014734  p :     0.066205
      px      :     0.022182
      py      :     0.029290

 27 H s       :     0.899772  s :     0.899772
      pz      :     0.018752  p :     0.065740
      px      :     0.012408
      py      :     0.034579

 28 H s       :     0.899963  s :     0.899963
      pz      :     0.031150  p :     0.066198
      px      :     0.023627
      py      :     0.011421

 29 H s       :     0.893534  s :     0.893534
      pz      :     0.014965  p :     0.069868
      px      :     0.022649
      py      :     0.032254

 30 H s       :     0.893580  s :     0.893580
      pz      :     0.015016  p :     0.069848
      px      :     0.041671
      py      :     0.013160

 31 H s       :     0.899958  s :     0.899958
      pz      :     0.026151  p :     0.066201
      px      :     0.012217
      py      :     0.027834

 32 H s       :     0.899771  s :     0.899771
      pz      :     0.016652  p :     0.065739
      px      :     0.027907
      py      :     0.021180

 33 H s       :     0.902115  s :     0.902115
      pz      :     0.014938  p :     0.066202
      px      :     0.038284
      py      :     0.012980

 34 H s       :     0.890461  s :     0.890461
      pz      :     0.017246  p :     0.065387
      px      :     0.013301
      py      :     0.034840

 35 H s       :     0.904693  s :     0.904693
      pz      :     0.014546  p :     0.064009
      px      :     0.037584
      py      :     0.011879

 36 H s       :     0.881078  s :     0.881078
      pz      :     0.032731  p :     0.071731
      px      :     0.026604
      py      :     0.012396

 37 H s       :     0.893549  s :     0.893549
      pz      :     0.018481  p :     0.069860
      px      :     0.016180
      py      :     0.035199

 38 H s       :     0.899958  s :     0.899958
      pz      :     0.029550  p :     0.066199
      px      :     0.019910
      py      :     0.016739

 39 H s       :     0.899774  s :     0.899774
      pz      :     0.014670  p :     0.065739
      px      :     0.033434
      py      :     0.017636

 40 H s       :     0.902106  s :     0.902106
      pz      :     0.018314  p :     0.066203
      px      :     0.014776
      py      :     0.033113

 41 H s       :     0.890466  s :     0.890466
      pz      :     0.015889  p :     0.065359
      px      :     0.033305
      py      :     0.016165

 42 H s       :     0.904551  s :     0.904551
      pz      :     0.017420  p :     0.064025
      px      :     0.018987
      py      :     0.027618

 43 H s       :     0.881182  s :     0.881182
      pz      :     0.026361  p :     0.072012
      px      :     0.014935
      py      :     0.030716



                      *****************************
                      * MAYER POPULATION ANALYSIS *
                      *****************************

  NA   - Mulliken gross atomic population
  ZA   - Total nuclear charge
  QA   - Mulliken gross atomic charge
  VA   - Mayer's total valence
  BVA  - Mayer's bonded valence
  FA   - Mayer's free valence

  ATOM       NA         ZA         QA         VA         BVA        FA
  0 C      5.9469     6.0000     0.0531     3.8815     3.8815    -0.0000
  1 C      6.0698     6.0000    -0.0698     4.1221     4.1221    -0.0000
  2 C      6.0406     6.0000    -0.0406     3.8613     3.8613    -0.0000
  3 C      5.9834     6.0000     0.0166     3.8020     3.8020    -0.0000
  4 C      5.9964     6.0000     0.0036     3.8217     3.8217    -0.0000
  5 C      6.0099     6.0000    -0.0099     3.8700     3.8700    -0.0000
  6 C      6.1608     6.0000    -0.1608     3.8227     3.8227    -0.0000
  7 P     14.3918    15.0000     0.6082     4.7390     4.7390    -0.0000
  8 O      8.4613     8.0000    -0.4613     2.1317     2.1317    -0.0000
  9 C      6.1606     6.0000    -0.1606     3.8232     3.8232    -0.0000
 10 C      6.0102     6.0000    -0.0102     3.8704     3.8704    -0.0000
 11 C      5.9965     6.0000     0.0035     3.8217     3.8217    -0.0000
 12 C      5.9834     6.0000     0.0166     3.8019     3.8019    -0.0000
 13 C      6.0406     6.0000    -0.0406     3.8610     3.8610    -0.0000
 14 C      6.0697     6.0000    -0.0697     4.1224     4.1224    -0.0000
 15 C      5.9463     6.0000     0.0537     3.8818     3.8818    -0.0000
 16 C      6.1596     6.0000    -0.1596     3.8229     3.8229    -0.0000
 17 C      6.0103     6.0000    -0.0103     3.8711     3.8711    -0.0000
 18 C      5.9965     6.0000     0.0035     3.8219     3.8219    -0.0000
 19 C      5.9834     6.0000     0.0166     3.8020     3.8020    -0.0000
 20 C      6.0404     6.0000    -0.0404     3.8613     3.8613    -0.0000
 21 C      6.0695     6.0000    -0.0695     4.1208     4.1208    -0.0000
 22 C      5.9483     6.0000     0.0517     3.8804     3.8804    -0.0000
 23 H      0.9811     1.0000     0.0189     0.9931     0.9931    -0.0000
 24 H      0.9265     1.0000     0.0735     1.0428     1.0428    -0.0000
 25 H      0.9572     1.0000     0.0428     1.0013     1.0013    -0.0000
 26 H      1.0086     1.0000    -0.0086     0.9890     0.9890    -0.0000
 27 H      0.9950     1.0000     0.0050     0.9785     0.9785    -0.0000
 28 H      0.9970     1.0000     0.0030     0.9793     0.9793    -0.0000
 29 H      0.9762     1.0000     0.0238     0.9888     0.9888     0.0000
 30 H      0.9761     1.0000     0.0239     0.9887     0.9887    -0.0000
 31 H      0.9970     1.0000     0.0030     0.9793     0.9793    -0.0000
 32 H      0.9950     1.0000     0.0050     0.9785     0.9785    -0.0000
 33 H      1.0086     1.0000    -0.0086     0.9890     0.9890    -0.0000
 34 H      0.9569     1.0000     0.0431     1.0015     1.0015    -0.0000
 35 H      0.9811     1.0000     0.0189     0.9931     0.9931    -0.0000
 36 H      0.9267     1.0000     0.0733     1.0423     1.0423    -0.0000
 37 H      0.9761     1.0000     0.0239     0.9887     0.9887    -0.0000
 38 H      0.9971     1.0000     0.0029     0.9793     0.9793    -0.0000
 39 H      0.9950     1.0000     0.0050     0.9785     0.9785    -0.0000
 40 H      1.0086     1.0000    -0.0086     0.9890     0.9890    -0.0000
 41 H      0.9568     1.0000     0.0432     1.0013     1.0013    -0.0000
 42 H      0.9809     1.0000     0.0191     0.9932     0.9932    -0.0000
 43 H      0.9264     1.0000     0.0736     1.0437     1.0437    -0.0000

  Mayer bond orders larger than 0.100000
B(  0-C ,  1-C ) :   1.1161 B(  0-C , 23-H ) :   0.9407 B(  0-C , 24-H ) :   0.9076 
B(  0-C , 25-H ) :   0.9240 B(  1-C ,  2-C ) :   1.4031 B(  1-C ,  6-C ) :   1.3664 
B(  2-C ,  3-C ) :   1.3650 B(  2-C , 26-H ) :   0.9712 B(  3-C ,  4-C ) :   1.3693 
B(  3-C , 27-H ) :   0.9739 B(  4-C ,  5-C ) :   1.3767 B(  4-C , 28-H ) :   0.9769 
B(  5-C ,  6-C ) :   1.3701 B(  5-C , 29-H ) :   0.9621 B(  6-C ,  7-P ) :   0.8981 
B(  7-P ,  8-O ) :   1.7472 B(  7-P ,  9-C ) :   0.8981 B(  7-P , 16-C ) :   0.8981 
B(  9-C , 10-C ) :   1.3707 B(  9-C , 14-C ) :   1.3666 B( 10-C , 11-C ) :   1.3763 
B( 10-C , 30-H ) :   0.9620 B( 11-C , 12-C ) :   1.3695 B( 11-C , 31-H ) :   0.9769 
B( 12-C , 13-C ) :   1.3648 B( 12-C , 32-H ) :   0.9740 B( 13-C , 14-C ) :   1.4032 
B( 13-C , 33-H ) :   0.9712 B( 14-C , 15-C ) :   1.1163 B( 15-C , 34-H ) :   0.9239 
B( 15-C , 35-H ) :   0.9407 B( 15-C , 36-H ) :   0.9076 B( 16-C , 17-C ) :   1.3710 
B( 16-C , 21-C ) :   1.3659 B( 17-C , 18-C ) :   1.3767 B( 17-C , 37-H ) :   0.9620 
B( 18-C , 19-C ) :   1.3695 B( 18-C , 38-H ) :   0.9768 B( 19-C , 20-C ) :   1.3648 
B( 19-C , 39-H ) :   0.9739 B( 20-C , 21-C ) :   1.4035 B( 20-C , 40-H ) :   0.9713 
B( 21-C , 22-C ) :   1.1155 B( 22-C , 41-H ) :   0.9243 B( 22-C , 42-H ) :   0.9408 
B( 22-C , 43-H ) :   0.9071 

-------
TIMINGS
-------

Total SCF time: 0 days 0 hours 0 min 11 sec 

Total time                  ....      11.265 sec
Sum of individual times     ....      11.141 sec  ( 98.9%)

SCF preparation             ....       0.150 sec  (  1.3%)
Fock matrix formation       ....      10.139 sec  ( 90.0%)
  Startup                   ....       0.040 sec  (  0.4% of F)
  Split-RI-J                ....       3.994 sec  ( 39.4% of F)
  XC integration            ....       5.951 sec  ( 58.7% of F)
    Basis function eval.    ....       1.807 sec  ( 30.4% of XC)
    Density eval.           ....       2.038 sec  ( 34.2% of XC)
    XC-Functional eval.     ....       0.136 sec  (  2.3% of XC)
    XC-Potential eval.      ....       1.208 sec  ( 20.3% of XC)
Diagonalization             ....       0.000 sec  (  0.0%)
Density matrix formation    ....       0.105 sec  (  0.9%)
Total Energy calculation    ....       0.038 sec  (  0.3%)
Population analysis         ....       0.122 sec  (  1.1%)
Orbital Transformation      ....       0.059 sec  (  0.5%)
Orbital Orthonormalization  ....       0.000 sec  (  0.0%)
DIIS solution               ....       0.076 sec  (  0.7%)
SOSCF solution              ....       0.452 sec  (  4.0%)
Finished LeanSCF after  11.3 sec

Maximum memory used throughout the entire LEANSCF-calculation: 49.7 MB


-------------------------------------------------------------------------------
                          DFT DISPERSION CORRECTION                            
                                                                               
                              DFTD3 V3.1  Rev 1                                
                          USING Becke-Johnson damping                          
-------------------------------------------------------------------------------
The BP86 functional is recognized
Active option DFTDOPT                   ...         4   

molecular C6(AA) [au] = 24208.043507 


            DFT-D V3
 parameters
 s6 scaling factor         :     1.0000 
 a1 scaling factor         :     0.3946 
 s8 scaling factor         :     3.2822 
 a2 scaling factor         :     4.8516 
 ad hoc parameters k1-k3   :    16.0000     1.3333    -4.0000 

 Edisp/kcal,au: -69.907276390315  -0.111404324274 
 E6   /kcal   : -25.677044417 
 E8   /kcal   : -44.230231973 
 % E8         :  63.269854380 

-------------------------   ----------------
Dispersion correction           -0.111404324
-------------------------   ----------------


-------------------------   --------------------
FINAL SINGLE POINT ENERGY     -1228.891894903056
-------------------------   --------------------

                                *** OPTIMIZATION RUN DONE ***



           ************************************************************
           *        Program running with 6 parallel MPI-processes     *
           *              working on a common directory               *
           ************************************************************

------------------------------------------------------------------------------
                              ORCA PROPERTY CALCULATIONS
------------------------------------------------------------------------------

GBWName                                 ... data/geom_opt_PO_BP86/80271/80271.gbw
Number of atoms                         ...     44
Number of basis functions               ...    431
Max core memory                         ...   1024 MB

Electric properties:
Dipole moment                           ... YES
Quadrupole moment                       ...  NO
Static polarizability (Dipole/Dipole)   ...  NO
Static polarizability (Dipole/Quad.)    ...  NO
Static polarizability (Quad./Quad.)     ...  NO
Static polarizability (Velocity)        ...  NO

Atomic electric properties:
Dipole moment                           ...  NO
Quadrupole moment                       ...  NO
Static polarizability                   ...  NO

Choice of electric origin               ... Center of mass
Position of electric origin             ...    -0.000841     0.000075     0.008128

General magnetic properties:
Magnetizability                         ...  NO

EPR properties:
g-Tensor (aka g-matrix)                 ...  NO
Zero-Field splitting spin-orbit         ...  NO
Zero-field splitting spin-spin          ...  NO
Hyperfine couplings                     ...  NO (   0 nuclei)
Quadrupole couplings                    ...  NO (   0 nuclei)
Contact density                         ...  NO (   0 nuclei)

NMR properties:
Chemical shifts                         ...  NO (   0 nuclei)
Spin-rotation constants                 ...  NO (   0 nuclei)
Spin-spin couplings                     ...  NO (   0 nuclei,    0 pairs)

Choice of magnetic origin               ... GIAO
Position of magnetic origin             ...     0.000000     0.000000     0.000000

Properties with geometric perturbations:
SCF Hessian                             ...  NO
IR spectrum                             ...  NO
VCD spectrum                            ...  NO
X-ray spectroscopy properties:
SCF XES/XAS/RIXS spectra                ...  NO


-------------
DIPOLE MOMENT
-------------

Method             : SCF
Type of density    : Electron Density
Multiplicity       :   1
Irrep              :   0
Energy             : -1228.7804905787820644 Eh
Relativity type    : 
Basis              : AO
                                X                 Y                 Z
Electronic contribution:     -0.155185189      -0.241467652      -2.305868471
Nuclear contribution   :      0.092913835       0.127973771       1.137165074
                        -----------------------------------------
Total Dipole Moment    :     -0.062271354      -0.113493881      -1.168703398
                        -----------------------------------------
Magnitude (a.u.)       :      1.175851272
Magnitude (Debye)      :      2.988776412



--------------------
Rotational spectrum 
--------------------
 
Rotational constants in cm-1:             0.008976             0.008966             0.005881 
Rotational constants in MHz :           269.107218           268.800749           176.319774 

Dipole components along the rotational axes: 
x,y,z [a.u.] :     0.003563     0.001569    -1.175845 
x,y,z [Debye]:     0.009057     0.003989    -2.988760 

 

Dipole moment calculation done in   0.0 sec 

Maximum memory used throughout the entire PROP-calculation: 25.9 MB

--------------------------------
SUGGESTED CITATIONS FOR THIS RUN
--------------------------------

Below you find a list of papers that are relevant to this ORCA run
We neither can nor want to force you to cite these papers, but we appreciate if you do
You receive ORCA, which is the product of decades of hard work by many enthusiastic individuals, for free
The only thing we kindly ask in return is that you cite our papers,
We deeply appreciate it, if you show your appreciation for ORCA by not just citing the generic ORCA reference.

Please note that relegating all ORCA citations to the supporting information does *not* help us.
SI sections are not indexed - citations you put there will not count into any citation statistics
But we need these citations in order to attract the funding resources that allow us to do what we are doing

Therefore, if you are a happy ORCA user, please consider citing a few of the papers listed below in the main body of your paper

In addition to the list printed below, the program has created the file data/geom_opt_PO_BP86/80271/80271.bibtex that contains the list in bibtex format
You can import this file easily into all common literature databanks and citation aid programs


List of essential papers. We consider these as the minimum necessary citations

  1. Neese,F.
     Software update: the ORCA program system, version 5.0
     WIRES Comput. Molec. Sci., 2022 12(1)e1606
     doi.org/10.1002/wcms.1606

List of papers to cite with high priority. The work reported in these papers was absolutely
necessary for this run to complete.
Our perspective: the developers of density functionals and basis sets usually get cited in chemistry papers
Good! But without the algorithms to do something with them, the functionals or basis sets would not do anything.
Hence, in our opinion, the algorithm design and method developments papers are equally worthy of getting cited

  1. Neese,F.
     An improvement of the resolution of the identity approximation for the formation of the Coulomb matrix
     J. Comp. Chem., 2003 24(14)1740-1747
     doi.org/10.1002/jcc.10318
  2. Neese,F.
     The SHARK Integral Generation and Digestion System
     J. Comp. Chem., 2022  1-16
     doi.org/10.1002/jcc.26942
  3. Grimme,S.; Antony,J.; Ehrlich,S.; Krieg,H.
     A consistent and accurate ab initio parametrization of density functional dispersion correction (DFT-D) for the 94 elements H-Pu
     J. Chem. Phys., 2010 132 154104-XXXX
     doi.org/10.1063/1.3382344
  4. Grimme,S.; Ehrlich,S.; Goerigk,L.
     Effect of the damping function in dispersion corrected density functional theory
     J. Comput. Chem., 2011 32(7)1456-1465
     doi.org/10.1002/jcc.21759

List of suggested additional citations. These are papers that are important in the 'surrounding' of 
of this run, or papers that preceded the highly important papers. If you like your results we are grateful for a citation.

  1. Neese,F.
     The ORCA program system
     WIRES Comput. Molec. Sci., 2012 2(1)73-78
     doi.org/10.1002/wcms.81
  2. Neese,F.
     Software update: the ORCA program system, version 4.0
     WIRES Comput. Molec. Sci., 2018 8(1)1-6
     doi.org/10.1002/wcms.1327
  3. Neese,F.; Wennmohs,F.; Becker,U.; Riplinger,C.
     The ORCA quantum chemistry program package
     J. Chem. Phys., 2020 152 Art. No. L224108
     doi.org/10.1063/5.0004608

List of optional additional citations

  1. Neese,F.
     Approximate second-order SCF convergence for spin unrestricted wavefunctions
     Chem. Phys. Lett., 2000 325(1-3)93-98
     doi.org/10.1016/s0009-2614(00)00662-x

Timings for individual modules:

Sum of individual times          ...      323.575 sec (=   5.393 min)
Startup calculation              ...       21.705 sec (=   0.362 min)   6.7 %
SCF iterations                   ...      202.545 sec (=   3.376 min)  62.6 %
Property calculations            ...        0.216 sec (=   0.004 min)   0.1 %
SCF Gradient evaluation          ...       98.810 sec (=   1.647 min)  30.5 %
Geometry relaxation              ...        0.299 sec (=   0.005 min)   0.1 %
                             ****ORCA TERMINATED NORMALLY****
TOTAL RUN TIME: 0 days 0 hours 5 minutes 26 seconds 73 msec
