
                                 *****************
                                 * O   R   C   A *
                                 *****************

                                            #,                                       
                                            ###                                      
                                            ####                                     
                                            #####                                    
                                            ######                                   
                                           ########,                                 
                                     ,,################,,,,,                         
                               ,,#################################,,                 
                          ,,##########################################,,             
                       ,#########################################, ''#####,          
                    ,#############################################,,   '####,        
                  ,##################################################,,,,####,       
                ,###########''''           ''''###############################       
              ,#####''   ,,,,##########,,,,          '''####'''          '####       
            ,##' ,,,,###########################,,,                        '##       
           ' ,,###''''                  '''############,,,                           
         ,,##''                                '''############,,,,        ,,,,,,###''
      ,#''                                            '''#######################'''  
     '                                                          ''''####''''         
             ,#######,   #######,   ,#######,      ##                                
            ,#'     '#,  ##    ##  ,#'     '#,    #''#        ,####,   ,####,        
            ##       ##  ##   ,#'  ##            #'  '#       #'       #'  '#        
            ##       ##  #######   ##           ,######,      #####,   #    #        
            '#,     ,#'  ##    ##  '#,     ,#' ,#      #,     #,   #   #,  ,#        
             '#######'   ##     ##  '#######'  #'      '#     '####' # '####'        



                #########################################################
                #                        -***-                          #
                #          Department of theory and spectroscopy        #
                #                                                       #
                #                      Frank Neese                      #
                #                                                       #
                #     Directorship, Architecture, Infrastructure        #
                #                    SHARK, DRIVERS                     #
                #        Core code/Algorithms in most modules           #
                #                                                       #
                #        Max Planck Institute fuer Kohlenforschung      #
                #                Kaiser Wilhelm Platz 1                 #
                #                 D-45470 Muelheim/Ruhr                 #
                #                      Germany                          #
                #                                                       #
                #                  All rights reserved                  #
                #                        -***-                          #
                #########################################################


                         Program Version 6.0.0  -   RELEASE   -


 With contributions from (in alphabetic order):
   Daniel Aravena         : Magnetic Suceptibility
   Michael Atanasov       : Ab Initio Ligand Field Theory (pilot matlab implementation)
   Alexander A. Auer      : GIAO ZORA, VPT2 properties, NMR spectrum
   Ute Becker             : All parallelization in ORCA, NUMFREQ, NUMCALC
   Giovanni Bistoni       : ED, misc. LED, open-shell LED, HFLD
   Martin Brehm           : Molecular dynamics
   Dmytro Bykov           : pre 5.0 version of the SCF Hessian
   Marcos Casanova-Páez   : Triplet and SCS-CIS(D). UHF-(DLPNO)-IP/EA/STEOM-CCSD. UHF-CVS-IP/STEOM-CCSD
   Vijay G. Chilkuri      : MRCI spin determinant printing, contributions to CSF-ICE
   Pauline Colinet        : FMM embedding
   Dipayan Datta          : RHF DLPNO-CCSD density
   Achintya Kumar Dutta   : EOM-CC, STEOM-CC
   Nicolas Foglia         : Exact transition moments, OPA infrastructure, MCD improvements
   Dmitry Ganyushin       : Spin-Orbit,Spin-Spin,Magnetic field MRCI
   Miquel Garcia          : C-PCM and meta-GGA Hessian, CCSD/C-PCM, Gaussian charge scheme
   Tiago L. C. Gouveia    : GS-ROHF, GS-ROCIS
   Yang Guo               : DLPNO-NEVPT2, F12-NEVPT2, CIM, IAO-localization
   Andreas Hansen         : Spin unrestricted coupled pair/coupled cluster methods
   Ingolf Harden          : AUTO-CI MPn and infrastructure 
   Benjamin Helmich-Paris : MC-RPA, TRAH-(SCF,CASSCF), AVAS, COSX integrals, SCF dyn. polar.
   Lee Huntington         : MR-EOM, pCC
   Robert Izsak           : Overlap fitted RIJCOSX, COSX-SCS-MP3, EOM
   Riya Kayal             : Wick's Theorem for AUTO-CI, AUTO-CI UHF-CCSDT
   Emily Kempfer          : AUTO-CI, RHF CISDT and CCSDT
   Christian Kollmar      : KDIIS, OOCD, Brueckner-CCSD(T), CCSD density, CASPT2, CASPT2-K, improved NEVPT2
   Axel Koslowski         : Symmetry handling
   Simone Kossmann        : Meta GGA functionals, TD-DFT gradient, OOMP2, (MP2 Hessian; deprecated post 5.0)
   Lucas Lang             : DCDCAS
   Marvin Lechner         : AUTO-CI (C++ implementation), FIC-MRCC
   Spencer Leger          : CASSCF response
   Dagmar Lenk            : GEPOL surface, SMD, ORCA-2-JSON
   Dimitrios Liakos       : Extrapolation schemes; Compound Job, initial MDCI parallelization
   Dimitrios Manganas     : Further ROCIS development; embedding schemes. LFT, Crystal Embedding
   Dimitrios Pantazis     : SARC Basis sets
   Anastasios Papadopoulos: AUTO-CI, single reference methods and gradients
   Taras Petrenko         : pre 6.0 DFT Hessian and TD-DFT gradient, (ASA, deprecated), ECA, 1-Electron XAS/XES, NRVS
   Peter Pinski           : DLPNO-MP2, DLPNO-MP2 Gradient
   Christoph Reimann      : Effective Core Potentials
   Marius Retegan         : Local ZFS, SOC
   Christoph Riplinger    : Optimizer, TS searches, QM/MM, DLPNO-CCSD(T), (RO)-DLPNO pert. Triples
   Michael Roemelt        : Original ROCIS implementation
   Masaaki Saitow         : Open-shell DLPNO-CCSD energy and density
   Barbara Sandhoefer     : DKH picture change effects
   Kantharuban Sivalingam : CASSCF convergence/infrastructure, NEVPT2 and variants, FIC-MRCI
   Bernardo de Souza      : ESD, SOC TD-DFT
   Georgi Stoychev        : AutoAux, RI-MP2 NMR, DLPNO-MP2 response, X2C
   Van Anh Tran           : RI-MP2 g-tensors
   Willem Van den Heuvel  : Paramagnetic NMR
   Zikuan Wang            : NOTCH, Electric field optimization 
   Frank Wennmohs         : Technical directorship and infrastructure
   Hang Xu                : AUTO-CI-Response properties 


 We gratefully acknowledge several colleagues who have allowed us to
 interface, adapt or use parts of their codes:
   Stefan Grimme, W. Hujo, H. Kruse, P. Pracht,  : VdW corrections, initial TS optimization,
                  C. Bannwarth, S. Ehlert,         DFT functionals, gCP, sTDA/sTD-DF
                  L. Wittmann, M. Mueller
   Ed Valeev, F. Pavosevic, A. Kumar             : LibInt (2-el integral package), F12 methods
   Garnet Chan, S. Sharma, J. Yang, R. Olivares  : DMRG
   Ulf Ekstrom                                   : XCFun DFT Library
   Mihaly Kallay                                 : mrcc  (arbitrary order and MRCC methods)
   Frank Weinhold                                : gennbo (NPA and NBO analysis)
   Simon Mueller                                 : openCOSMO-RS
   Christopher J. Cramer and Donald G. Truhlar   : smd solvation model
   Lars Goerigk                                  : TD-DFT with DH, B97 family of functionals
   V. Asgeirsson, H. Jonsson                     : NEB implementation
   FAccTs GmbH                                   : IRC, NEB, NEB-TS, DLPNO-Multilevel, CI-OPT
                                                   MM, QMMM, 2- and 3-layer-ONIOM, Crystal-QMMM,
                                                   LR-CPCM, SF, NACMEs, symmetry and pop. for TD-DFT,
                                                   nearIR, NL-DFT gradient (VV10), updates on ESD,
                                                   ML-optimized integration grids, MBIS, APM,
                                                   GOAT, DOCKER, SOLVATOR, interface openCOSMO-RS
   S Lehtola, MJT Oliveira, MAL Marques          : LibXC Library
   Liviu Ungur et al                             : ANISO software


 Your calculation uses the libint2 library for the computation of 2-el integrals
 For citations please refer to: http://libint.valeyev.net

 Your ORCA version has been built with support for libXC version: 6.2.2
 For citations please refer to: https://libxc.gitlab.io

 This ORCA versions uses:
   CBLAS   interface :  Fast vector & matrix operations
   LAPACKE interface :  Fast linear algebra routines
   Shared memory     :  Shared parallel matrices


Your calculation utilizes the atom-pairwise dispersion correction
with the Becke-Johnson damping scheme (D3BJ)


Warning: RI is on but no J-basis has been assigned. Assigning Def2/J (nothing to worry about!)
================================================================================

----- Orbital basis set information -----
Your calculation utilizes the basis: def2-SVP
   F. Weigend and R. Ahlrichs, Phys. Chem. Chem. Phys. 7, 3297 (2005).

----- AuxJ basis set information -----
Your calculation utilizes the auxiliary basis: def2/J
   F. Weigend, Phys. Chem. Chem. Phys. 8, 1057 (2006).

================================================================================
                                        WARNINGS
                       Please study these warnings very carefully!
================================================================================


WARNING: Geometry Optimization
  ===> : Switching off AutoStart
         For restart on a previous wavefunction, please use MOREAD

================================================================================
                                       INPUT FILE
================================================================================
NAME = data/geom_opt_P_BP86/70575/70575.inp
|  1> ! RI BP86 def2-SVP D3BJ TIGHTSCF Opt
|  2> %pal
|  3> nprocs 6
|  4> end
|  5> 
|  6> * xyz 0 1
|  7> C      5.212665    0.090662    0.749749
|  8> C      3.796917    0.046819    0.257950
|  9> C      2.840623   -0.732235    0.914540
| 10> C      1.525700   -0.799946    0.438592
| 11> C      1.135110   -0.097837   -0.709638
| 12> C      2.110359    0.667542   -1.372001
| 13> C      3.424602    0.736829   -0.897845
| 14> P     -0.548602   -0.122653   -1.406633
| 15> C     -1.382763   -1.469371   -0.504898
| 16> C     -1.206141   -2.783623   -0.974492
| 17> C     -1.813950   -3.868326   -0.336045
| 18> C     -2.612719   -3.658270    0.783552
| 19> C     -2.802792   -2.365491    1.263179
| 20> C     -2.193770   -1.280489    0.623944
| 21> C     -1.322076    1.392777   -0.751933
| 22> C     -2.551139    1.795979   -1.305101
| 23> C     -3.204572    2.946971   -0.855791
| 24> C     -2.638938    3.718648    0.154243
| 25> C     -1.421971    3.339325    0.713280
| 26> C     -0.768860    2.186993    0.263383
| 27> H      5.251780   -0.023792    1.838144
| 28> H      5.680808    1.050589    0.507632
| 29> H      5.794329   -0.713153    0.288150
| 30> H      3.108716   -1.295796    1.805608
| 31> H      0.818401   -1.412399    0.991807
| 32> H      1.854801    1.224467   -2.272085
| 33> H      4.152743    1.335312   -1.440586
| 34> H     -0.585060   -2.977118   -1.847641
| 35> H     -1.661853   -4.875097   -0.716072
| 36> H     -3.087184   -4.499797    1.281075
| 37> H     -3.426566   -2.195823    2.137118
| 38> H     -2.364657   -0.288654    1.034512
| 39> H     -3.017205    1.210171   -2.095794
| 40> H     -4.154154    3.237856   -1.297171
| 41> H     -3.144403    4.614514    0.504583
| 42> H     -0.975161    3.939284    1.501994
| 43> H      0.176982    1.925131    0.730689
| 44> **                         ****END OF INPUT****
================================================================================

                       *****************************
                       * Geometry Optimization Run *
                       *****************************

Geometry optimization settings:
Update method            Update   .... BFGS
Choice of coordinates    CoordSys .... (2022) Redundant Internals
Initial Hessian          InHess   .... Almloef's Model
Max. no of cycles        MaxIter  .... 111

Convergence Tolerances:
Energy Change            TolE     ....  5.0000e-06 Eh
Max. Gradient            TolMAXG  ....  3.0000e-04 Eh/bohr
RMS Gradient             TolRMSG  ....  1.0000e-04 Eh/bohr
Max. Displacement        TolMAXD  ....  4.0000e-03 bohr
RMS Displacement         TolRMSD  ....  2.0000e-03 bohr
Strict Convergence                .... False

------------------------------------------------------------------------------
                        ORCA OPTIMIZATION COORDINATE SETUP
------------------------------------------------------------------------------

The optimization will be done in redundant internal coordinates (2022)
Making redundant internal coordinates   ...  (2022 redundants) done
Evaluating the initial hessian          ...  (Almloef) done
Evaluating the coordinates              ...  done
Calculating the B-matrix                .... done
Calculating the G-matrix                .... done
Diagonalizing the G-matrix              .... done
Small eigenvalue found = 3.954e-03
Small eigenvalue found = 5.123e-03
Small eigenvalue found = 8.732e-03
Small eigenvalue found = 2.752e-02
Small eigenvalue found = 2.810e-02
The first mode is                       ....   86
The number of degrees of freedom        ....  105

    -----------------------------------------------------------------
                    Redundant Internal Coordinates


    -----------------------------------------------------------------
         Definition                    Initial Value    Approx d2E/dq
    -----------------------------------------------------------------
      1. B(C   1,C   0)                  1.4994         0.418056   
      2. B(C   2,C   1)                  1.3973         0.608195   
      3. B(C   3,C   2)                  1.4000         0.602155   
      4. B(C   4,C   3)                  1.4014         0.599149   
      5. B(C   5,C   4)                  1.4056         0.590052   
      6. B(C   6,C   5)                  1.3989         0.604748   
      7. B(C   6,C   1)                  1.3966         0.609747   
      8. B(P   7,C   4)                  1.8224         0.428840   
      9. B(C   8,P   7)                  1.8228         0.428280   
     10. B(C   9,C   8)                  1.4068         0.587489   
     11. B(C  10,C   9)                  1.3977         0.607321   
     12. B(C  11,C  10)                  1.3913         0.621871   
     13. B(C  12,C  11)                  1.3919         0.620400   
     14. B(C  13,C  12)                  1.3988         0.604828   
     15. B(C  13,C   8)                  1.4027         0.596218   
     16. B(C  14,P   7)                  1.8230         0.427925   
     17. B(C  15,C  14)                  1.4068         0.587343   
     18. B(C  16,C  15)                  1.3977         0.607313   
     19. B(C  17,C  16)                  1.3913         0.621918   
     20. B(C  18,C  17)                  1.3919         0.620425   
     21. B(C  19,C  18)                  1.3989         0.604771   
     22. B(C  19,C  14)                  1.4027         0.596217   
     23. B(H  20,C   0)                  1.0951         0.353422   
     24. B(H  21,C   0)                  1.0951         0.353420   
     25. B(H  22,C   0)                  1.0943         0.354437   
     26. B(H  23,C   2)                  1.0879         0.362919   
     27. B(H  24,C   3)                  1.0869         0.364184   
     28. B(H  25,C   5)                  1.0889         0.361605   
     29. B(H  26,C   6)                  1.0876         0.363249   
     30. B(H  27,C   9)                  1.0888         0.361639   
     31. B(H  28,C  10)                  1.0868         0.364353   
     32. B(H  29,C  11)                  1.0867         0.364556   
     33. B(H  30,C  12)                  1.0870         0.364040   
     34. B(H  31,C  13)                  1.0870         0.364130   
     35. B(H  32,C  15)                  1.0888         0.361631   
     36. B(H  33,C  16)                  1.0868         0.364357   
     37. B(H  34,C  17)                  1.0867         0.364559   
     38. B(H  35,C  18)                  1.0870         0.364035   
     39. B(H  36,C  19)                  1.0870         0.364094   
     40. A(H  21,C   0,H  22)          108.8679         0.289266   
     41. A(H  20,C   0,H  21)          107.2226         0.289136   
     42. A(C   1,C   0,H  20)          110.8956         0.329367   
     43. A(H  20,C   0,H  22)          108.8735         0.289266   
     44. A(C   1,C   0,H  21)          110.9013         0.329367   
     45. A(C   1,C   0,H  22)          110.0019         0.329523   
     46. A(C   0,C   1,C   2)          120.5559         0.403249   
     47. A(C   0,C   1,C   6)          120.5776         0.403430   
     48. A(C   2,C   1,C   6)          118.8075         0.431274   
     49. A(C   1,C   2,C   3)          120.6629         0.430304   
     50. A(C   3,C   2,H  23)          119.0026         0.351633   
     51. A(C   1,C   2,H  23)          120.3345         0.352227   
     52. A(C   2,C   3,H  24)          117.7356         0.351840   
     53. A(C   4,C   3,H  24)          121.1950         0.351543   
     54. A(C   2,C   3,C   4)          121.0691         0.429149   
     55. A(C   5,C   4,P   7)          117.9184         0.429576   
     56. A(C   3,C   4,P   7)          124.3350         0.430758   
     57. A(C   3,C   4,C   5)          117.7448         0.427589   
     58. A(C   4,C   5,C   6)          121.2723         0.428303   
     59. A(C   6,C   5,H  25)          118.3826         0.351673   
     60. A(C   4,C   5,H  25)          120.3450         0.350215   
     61. A(C   1,C   6,H  26)          120.4211         0.352433   
     62. A(C   5,C   6,H  26)          119.1490         0.351943   
     63. A(C   1,C   6,C   5)          120.4299         0.430834   
     64. A(C   4,P   7,C   8)          104.1022         0.432662   
     65. A(C   8,P   7,C  14)          104.0245         0.432496   
     66. A(C   4,P   7,C  14)          104.0822         0.432598   
     67. A(P   7,C   8,C   9)          117.8813         0.429140   
     68. A(C   9,C   8,C  13)          117.8409         0.426880   
     69. A(P   7,C   8,C  13)          124.2773         0.430278   
     70. A(C   8,C   9,C  10)          121.1944         0.428294   
     71. A(C   8,C   9,H  27)          120.3529         0.349963   
     72. A(C  10,C   9,H  27)          118.4524         0.351931   
     73. A(C   9,C  10,C  11)          120.0049         0.432690   
     74. A(C  11,C  10,H  28)          120.1061         0.353792   
     75. A(C   9,C  10,H  28)          119.8890         0.352377   
     76. A(C  10,C  11,C  12)          119.7303         0.434352   
     77. A(C  10,C  11,H  29)          120.1457         0.353825   
     78. A(C  12,C  11,H  29)          120.1240         0.353683   
     79. A(C  13,C  12,H  30)          119.7461         0.352080   
     80. A(C  11,C  12,H  30)          120.0234         0.353598   
     81. A(C  11,C  12,C  13)          120.2305         0.432187   
     82. A(C  12,C  13,H  31)          117.8204         0.352095   
     83. A(C   8,C  13,H  31)          121.1797         0.351243   
     84. A(C   8,C  13,C  12)          120.9987         0.429112   
     85. A(C  15,C  14,C  19)          117.8319         0.426861   
     86. A(P   7,C  14,C  19)          124.2820         0.430214   
     87. A(P   7,C  14,C  15)          117.8854         0.429058   
     88. A(C  16,C  15,H  32)          118.4483         0.351929   
     89. A(C  14,C  15,H  32)          120.3506         0.349947   
     90. A(C  14,C  15,C  16)          121.2007         0.428274   
     91. A(C  17,C  16,H  33)          120.1071         0.353797   
     92. A(C  15,C  16,H  33)          119.8891         0.352377   
     93. A(C  15,C  16,C  17)          120.0038         0.432695   
     94. A(C  18,C  17,H  34)          120.1245         0.353686   
     95. A(C  16,C  17,H  34)          120.1472         0.353830   
     96. A(C  16,C  17,C  18)          119.7283         0.434361   
     97. A(C  19,C  18,H  35)          119.7420         0.352074   
     98. A(C  17,C  18,H  35)          120.0246         0.353600   
     99. A(C  17,C  18,C  19)          120.2334         0.432182   
    100. A(C  18,C  19,H  36)          117.8034         0.352084   
    101. A(C  14,C  19,H  36)          121.1941         0.351237   
    102. A(C  14,C  19,C  18)          121.0014         0.429105   
    103. D(C   2,C   1,C   0,H  20)    -32.0125         0.012927   
    104. D(C   2,C   1,C   0,H  21)   -151.0281         0.012927   
    105. D(C   2,C   1,C   0,H  22)     88.4813         0.012927   
    106. D(C   6,C   1,C   0,H  20)    150.8154         0.012927   
    107. D(C   6,C   1,C   0,H  21)     31.7998         0.012927   
    108. D(H  23,C   2,C   1,C   6)    178.7807         0.025538   
    109. D(C   3,C   2,C   1,C   0)   -178.4670         0.025538   
    110. D(C   3,C   2,C   1,C   6)     -1.2455         0.025538   
    111. D(H  23,C   2,C   1,C   0)      1.5591         0.025538   
    112. D(H  24,C   3,C   2,C   1)   -179.3960         0.025006   
    113. D(C   4,C   3,C   2,H  23)   -179.6298         0.025006   
    114. D(H  24,C   3,C   2,H  23)      0.5782         0.025006   
    115. D(C   4,C   3,C   2,C   1)      0.3960         0.025006   
    116. D(C   5,C   4,C   3,C   2)      0.4778         0.024743   
    117. D(C   5,C   4,C   3,H  24)   -179.7375         0.024743   
    118. D(P   7,C   4,C   3,H  24)     -0.2429         0.024743   
    119. D(P   7,C   4,C   3,C   2)    179.9723         0.024743   
    120. D(H  25,C   5,C   4,P   7)      0.0556         0.023960   
    121. D(C   6,C   5,C   4,C   3)     -0.4982         0.023960   
    122. D(H  25,C   5,C   4,C   3)    179.5832         0.023960   
    123. D(C   6,C   5,C   4,P   7)    179.9741         0.023960   
    124. D(H  26,C   6,C   5,H  25)     -0.4100         0.025234   
    125. D(H  26,C   6,C   5,C   4)    179.6699         0.025234   
    126. D(C   1,C   6,C   5,H  25)    179.5642         0.025234   
    127. D(C   1,C   6,C   5,C   4)     -0.3559         0.025234   
    128. D(H  26,C   6,C   1,C   2)   -178.8029         0.025676   
    129. D(H  26,C   6,C   1,C   0)     -1.5819         0.025676   
    130. D(C   5,C   6,C   1,C   2)      1.2233         0.025676   
    131. D(C   5,C   6,C   1,C   0)    178.4442         0.025676   
    132. D(C   8,P   7,C   4,C   5)    168.1985         0.003789   
    133. D(C   8,P   7,C   4,C   3)    -11.2953         0.003789   
    134. D(C  14,P   7,C   4,C   5)    -83.1005         0.003789   
    135. D(C  14,P   7,C   4,C   3)     97.4057         0.003789   
    136. D(C  13,C   8,P   7,C  14)    -12.4888         0.003783   
    137. D(C  13,C   8,P   7,C   4)     96.2548         0.003783   
    138. D(C   9,C   8,P   7,C  14)    167.2523         0.003783   
    139. D(C   9,C   8,P   7,C   4)    -84.0041         0.003783   
    140. D(H  27,C   9,C   8,C  13)    179.9971         0.023742   
    141. D(H  27,C   9,C   8,P   7)      0.2390         0.023742   
    142. D(C  10,C   9,C   8,C  13)     -0.2256         0.023742   
    143. D(C  10,C   9,C   8,P   7)   -179.9836         0.023742   
    144. D(H  28,C  10,C   9,H  27)     -0.1265         0.025461   
    145. D(H  28,C  10,C   9,C   8)   -179.9079         0.025461   
    146. D(C  11,C  10,C   9,H  27)    179.9093         0.025461   
    147. D(C  11,C  10,C   9,C   8)      0.1279         0.025461   
    148. D(H  29,C  11,C  10,H  28)     -0.0272         0.026770   
    149. D(H  29,C  11,C  10,C   9)    179.9369         0.026770   
    150. D(C  12,C  11,C  10,H  28)   -179.9646         0.026770   
    151. D(C  12,C  11,C  10,C   9)     -0.0006         0.026770   
    152. D(H  30,C  12,C  11,H  29)      0.0143         0.026636   
    153. D(H  30,C  12,C  11,C  10)    179.9518         0.026636   
    154. D(C  13,C  12,C  11,H  29)   -179.9595         0.026636   
    155. D(C  13,C  12,C  11,C  10)     -0.0220         0.026636   
    156. D(H  31,C  13,C  12,H  30)      0.3297         0.025241   
    157. D(H  31,C  13,C  12,C  11)   -179.6965         0.025241   
    158. D(C   8,C  13,C  12,H  30)    179.9439         0.025241   
    159. D(C   8,C  13,C  12,C  11)     -0.0822         0.025241   
    160. D(H  31,C  13,C   8,C   9)    179.8036         0.024489   
    161. D(H  31,C  13,C   8,P   7)     -0.4552         0.024489   
    162. D(C  12,C  13,C   8,C   9)      0.2024         0.024489   
    163. D(C  12,C  13,C   8,P   7)    179.9435         0.024489   
    164. D(C  15,C  14,P   7,C   8)    -82.8403         0.003779   
    165. D(C  15,C  14,P   7,C   4)    168.4013         0.003779   
    166. D(C  19,C  14,P   7,C   8)     97.4702         0.003779   
    167. D(C  19,C  14,P   7,C   4)    -11.2882         0.003779   
    168. D(H  32,C  15,C  14,C  19)    179.9689         0.023729   
    169. D(H  32,C  15,C  14,P   7)      0.2591         0.023729   
    170. D(C  16,C  15,C  14,C  19)     -0.2556         0.023729   
    171. D(C  16,C  15,C  14,P   7)   -179.9655         0.023729   
    172. D(H  33,C  16,C  15,H  32)     -0.1215         0.025460   
    173. D(H  33,C  16,C  15,C  14)   -179.9011         0.025460   
    174. D(C  17,C  16,C  15,H  32)    179.9196         0.025460   
    175. D(C  17,C  16,C  15,C  14)      0.1400         0.025460   
    176. D(H  34,C  17,C  16,H  33)     -0.0252         0.026774   
    177. D(H  34,C  17,C  16,C  15)    179.9336         0.026774   
    178. D(C  18,C  17,C  16,H  33)   -179.9524         0.026774   
    179. D(C  18,C  17,C  16,C  15)      0.0064         0.026774   
    180. D(H  35,C  18,C  17,H  34)      0.0087         0.026638   
    181. D(H  35,C  18,C  17,C  16)    179.9359         0.026638   
    182. D(C  19,C  18,C  17,H  34)   -179.9564         0.026638   
    183. D(C  19,C  18,C  17,C  16)     -0.0292         0.026638   
    184. D(H  36,C  19,C  18,H  35)      0.3116         0.025236   
    185. D(H  36,C  19,C  18,C  17)   -179.7231         0.025236   
    186. D(C  14,C  19,C  18,H  35)    179.9409         0.025236   
    187. D(C  14,C  19,C  18,C  17)     -0.0939         0.025236   
    188. D(H  36,C  19,C  14,C  15)    179.8487         0.024489   
    189. D(H  36,C  19,C  14,P   7)     -0.4617         0.024489   
    190. D(C  18,C  19,C  14,C  15)      0.2321         0.024489   
    191. D(C  18,C  19,C  14,P   7)    179.9217         0.024489   
    -----------------------------------------------------------------

Number of atoms                         .... 37
Number of degrees of freedom            .... 191


         *************************************************************
         *                GEOMETRY OPTIMIZATION CYCLE   1            *
         *************************************************************
---------------------------------
CARTESIAN COORDINATES (ANGSTROEM)
---------------------------------
  C      5.212665    0.090662    0.749749
  C      3.796917    0.046819    0.257950
  C      2.840623   -0.732235    0.914540
  C      1.525700   -0.799946    0.438592
  C      1.135110   -0.097837   -0.709638
  C      2.110359    0.667542   -1.372001
  C      3.424602    0.736829   -0.897845
  P     -0.548602   -0.122653   -1.406633
  C     -1.382763   -1.469371   -0.504898
  C     -1.206141   -2.783623   -0.974492
  C     -1.813950   -3.868326   -0.336045
  C     -2.612719   -3.658270    0.783552
  C     -2.802792   -2.365491    1.263179
  C     -2.193770   -1.280489    0.623944
  C     -1.322076    1.392777   -0.751933
  C     -2.551139    1.795979   -1.305101
  C     -3.204572    2.946971   -0.855791
  C     -2.638938    3.718648    0.154243
  C     -1.421971    3.339325    0.713280
  C     -0.768860    2.186993    0.263383
  H      5.251780   -0.023792    1.838144
  H      5.680808    1.050589    0.507632
  H      5.794329   -0.713153    0.288150
  H      3.108716   -1.295796    1.805608
  H      0.818401   -1.412399    0.991807
  H      1.854801    1.224467   -2.272085
  H      4.152743    1.335312   -1.440586
  H     -0.585060   -2.977118   -1.847641
  H     -1.661853   -4.875097   -0.716072
  H     -3.087184   -4.499797    1.281075
  H     -3.426566   -2.195823    2.137118
  H     -2.364657   -0.288654    1.034512
  H     -3.017205    1.210171   -2.095794
  H     -4.154154    3.237856   -1.297171
  H     -3.144403    4.614514    0.504583
  H     -0.975161    3.939284    1.501994
  H      0.176982    1.925131    0.730689

----------------------------
CARTESIAN COORDINATES (A.U.)
----------------------------
  NO LB      ZA    FRAG     MASS         X           Y           Z
   0 C     6.0000    0    12.011    9.850509    0.171326    1.416820
   1 C     6.0000    0    12.011    7.175133    0.088475    0.487455
   2 C     6.0000    0    12.011    5.368000   -1.383724    1.728230
   3 C     6.0000    0    12.011    2.883155   -1.511679    0.828819
   4 C     6.0000    0    12.011    2.145047   -0.184885   -1.341021
   5 C     6.0000    0    12.011    3.988001    1.261472   -2.592706
   6 C     6.0000    0    12.011    6.471560    1.392405   -1.696681
   7 P    15.0000    0    30.974   -1.036708   -0.231781   -2.658151
   8 C     6.0000    0    12.011   -2.613043   -2.776709   -0.954119
   9 C     6.0000    0    12.011   -2.279276   -5.260285   -1.841523
  10 C     6.0000    0    12.011   -3.427869   -7.310077   -0.635033
  11 C     6.0000    0    12.011   -4.937323   -6.913128    1.480699
  12 C     6.0000    0    12.011   -5.296509   -4.470130    2.387062
  13 C     6.0000    0    12.011   -4.145625   -2.419774    1.179083
  14 C     6.0000    0    12.011   -2.498362    2.631967   -1.420947
  15 C     6.0000    0    12.011   -4.820954    3.393908   -2.466283
  16 C     6.0000    0    12.011   -6.055763    5.568968   -1.617211
  17 C     6.0000    0    12.011   -4.986870    7.027226    0.291477
  18 C     6.0000    0    12.011   -2.687136    6.310410    1.347904
  19 C     6.0000    0    12.011   -1.452935    4.132818    0.497722
  20 H     1.0000    0     1.008    9.924426   -0.044960    3.473589
  21 H     1.0000    0     1.008   10.735171    1.985325    0.959285
  22 H     1.0000    0     1.008   10.949695   -1.347664    0.544525
  23 H     1.0000    0     1.008    5.874622   -2.448700    3.412105
  24 H     1.0000    0     1.008    1.546554   -2.669047    1.874244
  25 H     1.0000    0     1.008    3.505066    2.313907   -4.293618
  26 H     1.0000    0     1.008    7.847547    2.523374   -2.722313
  27 H     1.0000    0     1.008   -1.105603   -5.625938   -3.491535
  28 H     1.0000    0     1.008   -3.140447   -9.212598   -1.353180
  29 H     1.0000    0     1.008   -5.833932   -8.503384    2.420881
  30 H     1.0000    0     1.008   -6.475271   -4.149504    4.038568
  31 H     1.0000    0     1.008   -4.468554   -0.545477    1.954944
  32 H     1.0000    0     1.008   -5.701691    2.286892   -3.960477
  33 H     1.0000    0     1.008   -7.850213    6.118661   -2.451298
  34 H     1.0000    0     1.008   -5.942061    8.720168    0.953524
  35 H     1.0000    0     1.008   -1.842787    7.444168    2.838357
  36 H     1.0000    0     1.008    0.334448    3.637970    1.380802

--------------------------------
INTERNAL COORDINATES (ANGSTROEM)
--------------------------------
 C      0   0   0     0.000000000000     0.00000000     0.00000000
 C      1   0   0     1.499376825402     0.00000000     0.00000000
 C      2   1   0     1.397330947719   120.55589051     0.00000000
 C      3   2   1     1.400047775668   120.66289206   181.53296589
 C      4   3   2     1.401409907515   121.06909200     0.39603156
 C      5   4   3     1.405574747002   117.74477111     0.47777923
 C      2   1   3     1.396636796504   120.57759305   182.82787032
 P      5   4   3     1.822444501988   124.33496306   179.97233812
 C      8   5   4     1.822800031729   104.10222121   348.70471432
 C      9   8   5     1.406759458907   117.88132750   275.99587350
 C     10   9   8     1.397722057671   121.19436683   180.01637586
 C     11  10   9     1.391277427728   120.00491236     0.12789326
 C     12  11  10     1.391922177170   119.73028207     0.00000000
 C     13  12  11     1.398841850144   120.23048504     0.00000000
 C      8   5   4     1.823025563062   104.08222727    97.40571701
 C     15   8   5     1.406827120508   117.88540293   168.40125725
 C     16  15   8     1.397725561637   121.20074990   180.03453047
 C     17  16  15     1.391256948030   120.00377004     0.14000611
 C     18  17  16     1.391911270443   119.72829775     0.00000000
 C     19  18  17     1.398867515941   120.23342750   359.97076945
 H      1   2   3     1.095095145349   110.89555225   327.98748886
 H      1   2   3     1.095097418254   110.90130192   208.97191802
 H      1   2   3     1.094314945490   110.00188278    88.48133126
 H      3   2   1     1.087877308337   120.33450198     1.55913943
 H      4   3   2     1.086930259416   117.73558103   180.60404894
 H      6   5   4     1.088864800627   120.34503835   179.58321004
 H      7   2   1     1.087629996943   120.42105022   358.41807134
 H     10   9   8     1.088839336076   120.35289792     0.23904699
 H     11  10   9     1.086803507806   119.88899623   180.09206393
 H     12  11  10     1.086652595581   120.14573435   179.93693858
 H     13  12  11     1.087037538000   120.02338420   179.95177996
 H     14  13  12     1.086970614422   117.82039406   180.30350745
 H     16  15   8     1.088845236693   120.35059504     0.25906649
 H     17  16  15     1.086800976421   119.88914589   180.09890119
 H     18  17  16     1.086650298753   120.14721102   179.93360906
 H     19  18  17     1.087041743254   120.02458807   179.93589994
 H     20  19  18     1.086997559171   117.80343930   180.27685336

---------------------------
INTERNAL COORDINATES (A.U.)
---------------------------
 C      0   0   0     0.000000000000     0.00000000     0.00000000
 C      1   0   0     2.833411571559     0.00000000     0.00000000
 C      2   1   0     2.640572809641   120.55589051     0.00000000
 C      3   2   1     2.645706870419   120.66289206   181.53296589
 C      4   3   2     2.648280926567   121.06909200     0.39603156
 C      5   4   3     2.656151332590   117.74477111     0.47777923
 C      2   1   3     2.639261053950   120.57759305   182.82787032
 P      5   4   3     3.443921003027   124.33496306   179.97233812
 C      8   5   4     3.444592856870   104.10222121   348.70471432
 C      9   8   5     2.658390113637   117.88132750   275.99587350
 C     10   9   8     2.641311900338   121.19436683   180.01637586
 C     11  10   9     2.629133314713   120.00491236     0.12789326
 C     12  11  10     2.630351714584   119.73028207     0.00000000
 C     13  12  11     2.643428001439   120.23048504     0.00000000
 C      8   5   4     3.445019049324   104.08222727    97.40571701
 C     15   8   5     2.658517975533   117.88540293   168.40125725
 C     16  15   8     2.641318521875   121.20074990   180.03453047
 C     17  16  15     2.629094613691   120.00377004     0.14000611
 C     18  17  16     2.630331103856   119.72829775     0.00000000
 C     19  18  17     2.643476502767   120.23342750   359.97076945
 H      1   2   3     2.069429915295   110.89555225   327.98748886
 H      1   2   3     2.069434210465   110.90130192   208.97191802
 H      1   2   3     2.067955551232   110.00188278    88.48133126
 H      3   2   1     2.055790180064   120.33450198     1.55913943
 H      4   3   2     2.054000516969   117.73558103   180.60404894
 H      6   5   4     2.057656270052   120.34503835   179.58321004
 H      7   2   1     2.055322829261   120.42105022   358.41807134
 H     10   9   8     2.057608149025   120.35289792     0.23904699
 H     11  10   9     2.053760991138   119.88899623   180.09206393
 H     12  11  10     2.053475808363   120.14573435   179.93693858
 H     13  12  11     2.054203244112   120.02338420   179.95177996
 H     14  13  12     2.054076776879   117.82039406   180.30350745
 H     16  15   8     2.057619299574   120.35059504     0.25906649
 H     17  16  15     2.053756207513   119.88914589   180.09890119
 H     18  17  16     2.053471467988   120.14721102   179.93360906
 H     19  18  17     2.054211190891   120.02458807   179.93589994
 H     20  19  18     2.054127695074   117.80343930   180.27685336

---------------------
BASIS SET INFORMATION
---------------------
There are 3 groups of distinct atoms

 Group   1 Type C   : 7s4p1d contracted to 3s2p1d pattern {511/31/1}
 Group   2 Type P   : 10s7p1d contracted to 4s3p1d pattern {5311/511/1}
 Group   3 Type H   : 4s1p contracted to 2s1p pattern {31/1}

Atom   0C    basis set group =>   1
Atom   1C    basis set group =>   1
Atom   2C    basis set group =>   1
Atom   3C    basis set group =>   1
Atom   4C    basis set group =>   1
Atom   5C    basis set group =>   1
Atom   6C    basis set group =>   1
Atom   7P    basis set group =>   2
Atom   8C    basis set group =>   1
Atom   9C    basis set group =>   1
Atom  10C    basis set group =>   1
Atom  11C    basis set group =>   1
Atom  12C    basis set group =>   1
Atom  13C    basis set group =>   1
Atom  14C    basis set group =>   1
Atom  15C    basis set group =>   1
Atom  16C    basis set group =>   1
Atom  17C    basis set group =>   1
Atom  18C    basis set group =>   1
Atom  19C    basis set group =>   1
Atom  20H    basis set group =>   3
Atom  21H    basis set group =>   3
Atom  22H    basis set group =>   3
Atom  23H    basis set group =>   3
Atom  24H    basis set group =>   3
Atom  25H    basis set group =>   3
Atom  26H    basis set group =>   3
Atom  27H    basis set group =>   3
Atom  28H    basis set group =>   3
Atom  29H    basis set group =>   3
Atom  30H    basis set group =>   3
Atom  31H    basis set group =>   3
Atom  32H    basis set group =>   3
Atom  33H    basis set group =>   3
Atom  34H    basis set group =>   3
Atom  35H    basis set group =>   3
Atom  36H    basis set group =>   3
---------------------------------
AUXILIARY/J BASIS SET INFORMATION
---------------------------------
There are 3 groups of distinct atoms

 Group   1 Type C   : 12s5p4d2f1g contracted to 6s4p3d1f1g pattern {711111/2111/211/2/1}
 Group   2 Type P   : 14s5p5d2f1g contracted to 8s4p3d1f1g pattern {71111111/2111/311/2/1}
 Group   3 Type H   : 5s2p1d contracted to 3s1p1d pattern {311/2/1}

Atom   0C    basis set group =>   1
Atom   1C    basis set group =>   1
Atom   2C    basis set group =>   1
Atom   3C    basis set group =>   1
Atom   4C    basis set group =>   1
Atom   5C    basis set group =>   1
Atom   6C    basis set group =>   1
Atom   7P    basis set group =>   2
Atom   8C    basis set group =>   1
Atom   9C    basis set group =>   1
Atom  10C    basis set group =>   1
Atom  11C    basis set group =>   1
Atom  12C    basis set group =>   1
Atom  13C    basis set group =>   1
Atom  14C    basis set group =>   1
Atom  15C    basis set group =>   1
Atom  16C    basis set group =>   1
Atom  17C    basis set group =>   1
Atom  18C    basis set group =>   1
Atom  19C    basis set group =>   1
Atom  20H    basis set group =>   3
Atom  21H    basis set group =>   3
Atom  22H    basis set group =>   3
Atom  23H    basis set group =>   3
Atom  24H    basis set group =>   3
Atom  25H    basis set group =>   3
Atom  26H    basis set group =>   3
Atom  27H    basis set group =>   3
Atom  28H    basis set group =>   3
Atom  29H    basis set group =>   3
Atom  30H    basis set group =>   3
Atom  31H    basis set group =>   3
Atom  32H    basis set group =>   3
Atom  33H    basis set group =>   3
Atom  34H    basis set group =>   3
Atom  35H    basis set group =>   3
Atom  36H    basis set group =>   3


           ************************************************************
           *        Program running with 6 parallel MPI-processes     *
           *              working on a common directory               *
           ************************************************************
------------------------------------------------------------------------------
                             ORCA STARTUP CALCULATIONS
                           -- RI-GTO INTEGRALS CHOSEN --
------------------------------------------------------------------------------
------------------------------------------------------------------------------
                   ___                                                        
                  /   \      - P O W E R E D   B Y -                         
                 /     \                                                     
                 |  |  |   _    _      __       _____    __    __             
                 |  |  |  | |  | |    /  \     |  _  \  |  |  /  |          
                  \  \/   | |  | |   /    \    | | | |  |  | /  /          
                 / \  \   | |__| |  /  /\  \   | |_| |  |  |/  /          
                |  |  |   |  __  | /  /__\  \  |    /   |      \           
                |  |  |   | |  | | |   __   |  |    \   |  |\   \          
                \     /   | |  | | |  |  |  |  | |\  \  |  | \   \       
                 \___/    |_|  |_| |__|  |__|  |_| \__\ |__|  \__/        
                                                                              
                      - O R C A' S   B I G   F R I E N D -                    
                                      &                                       
                       - I N T E G R A L  F E E D E R -                       
                                                                              
 v1 FN, 2020, v2 2021, v3 2022-2024                                           
------------------------------------------------------------------------------


----------------------
SHARK INTEGRAL PACKAGE
----------------------

Number of atoms                             ...     37
Number of basis functions                   ...    369
Number of shells                            ...    173
Maximum angular momentum                    ...      2
Integral batch strategy                     ... SHARK/LIBINT Hybrid
RI-J (if used) integral strategy            ... SPLIT-RIJ (Revised 2003 algorithm where possible)
Printlevel                                  ...      1
Contraction scheme used                     ... SEGMENTED contraction
Prescreening option                         ... SCHWARTZ
   Thresh                                   ... 2.500e-11
   Tcut                                     ... 2.500e-12
   Tpresel                                  ... 2.500e-12 
Coulomb Range Separation                    ... NOT USED
Exchange Range Separation                   ... NOT USED
Multipole approximations                    ... NOT USED
Finite Nucleus Model                        ... NOT USED
CABS basis                                  ... NOT available
Auxiliary Coulomb fitting basis             ... AVAILABLE
   # of basis functions in Aux-J            ...   1169
   # of shells in Aux-J                     ...    387
   Maximum angular momentum in Aux-J        ...      4
Auxiliary J/K fitting basis                 ... NOT available
Auxiliary Correlation fitting basis         ... NOT available
Auxiliary 'external' fitting basis          ... NOT available

Checking pre-screening integrals            ... done (  0.0 sec) Dimension = 173
Check shell pair data                       ... done (  0.0 sec)
Shell pair information
Shell pair cut-off parameter TPreSel        ...   2.5e-12
Total number of shell pairs                 ...     15051
Shell pairs after pre-screening             ...     11363
Total number of primitive shell pairs       ...     55267
Primitive shell pairs kept                  ...     26815
          la=0 lb=0:   3536 shell pairs
          la=1 lb=0:   4246 shell pairs
          la=1 lb=1:   1313 shell pairs
          la=2 lb=0:   1329 shell pairs
          la=2 lb=1:    814 shell pairs
          la=2 lb=2:    125 shell pairs

Calculating one electron integrals          ... done (  0.0 sec)
Calculating RI/J V-Matrix + Cholesky decomp.... done (  0.1 sec)
Calculating Nuclear repulsion               ... done (  0.0 sec) ENN=   1523.303332817967 Eh

Diagonalization of the overlap matrix:
Smallest eigenvalue                        ... 2.614e-04
Time for diagonalization                   ...    0.018 sec
Threshold for overlap eigenvalues          ... 1.000e-07
Number of eigenvalues below threshold      ... 0
Time for construction of square roots      ...    0.010 sec
Total time needed                          ...    0.030 sec

-------------------
DFT GRID GENERATION
-------------------

General Integration Accuracy     IntAcc      ... 4.388
Radial Grid Type                 RadialGrid  ... OptM3 with GC (2021)
Angular Grid (max. ang.)         AngularGrid ... 4 (Lebedev-302)
Angular grid pruning method      GridPruning ... 4 (adaptive)
Weight generation scheme         WeightScheme... mBecke (2022)
Basis function cutoff            BFCut       ... 1.0000e-11
Integration weight cutoff        WCut        ... 1.0000e-14
Partially contracted basis set               ... off
Rotationally invariant grid construction     ... off
Angular grids for H and He will be reduced by one unit

Total number of grid points                  ...   175079
Total number of batches                      ...     2755
Average number of points per batch           ...       63
Average number of grid points per atom       ...     4732
Initializing property integral containers    ... done (  0.0 sec)

SHARK setup successfully completed in   1.4 seconds

Maximum memory used throughout the entire STARTUP-calculation: 46.1 MB


           ************************************************************
           *        Program running with 6 parallel MPI-processes     *
           *              working on a common directory               *
           ************************************************************
-------------------------------------------------------------------------------
                                 ORCA GUESS
                   Start orbitals & Density for SCF / CASSCF
-------------------------------------------------------------------------------

------------
SCF SETTINGS
------------
Hamiltonian:
 Density Functional     Method          .... DFT(GTOs)
 Exchange Functional    Exchange        .... B88
   X-Alpha parameter    XAlpha          ....  0.666667
   Becke's b parameter  XBeta           ....  0.004200
 Correlation Functional Correlation     .... P86
 LDA part of GGA corr.  LDAOpt          .... PW91-LDA
 Gradients option       PostSCFGGA      .... off
   NL short-range parameter             ....  4.400000
 RI-approximation to the Coulomb term is turned on
   Number of AuxJ basis functions       .... 1169


General Settings:
 Integral files         IntName         .... data/geom_opt_P_BP86/70575/70575
 Hartree-Fock type      HFTyp           .... RHF
 Total Charge           Charge          ....    0
 Multiplicity           Mult            ....    1
 Number of Electrons    NEL             ....  146
 Basis Dimension        Dim             ....  369
 Nuclear Repulsion      ENuc            ....   1523.3033328180 Eh

Convergence Acceleration:
 AO-DIIS                CNVDIIS         .... on
   Start iteration      DIISMaxIt       ....    12
   Startup error        DIISStart       ....  0.200000
   # of expansion vecs  DIISMaxEq       ....     5
   Bias factor          DIISBfac        ....   1.050
   Max. coefficient     DIISMaxC        ....  10.000
 MO-DIIS                CNVKDIIS        .... off
 Trust-Rad. Augm. Hess. CNVTRAH         .... auto
   Auto Start mean grad. ratio tolernc. ....  1.125000
   Auto Start start iteration           ....    50
   Auto Start num. interpolation iter.  ....    10
   Max. Number of Micro iterations      ....    24
   Max. Number of Macro iterations      .... Maxiter - #DIIS iter
   Number of Davidson start vectors     ....     2
   Converg. threshold    (grad. norm)   ....   1.000e-05
   Grad. Scal. Fac. for Micro threshold ....   0.100
   Minimum threshold for Micro iter.    ....   1.000e-02
   NR start threshold (gradient norm)   ....   1.000e-04
   Initial trust radius                 ....   0.400
   Minimum AH scaling param. (alpha)    ....   1.000
   Maximum AH scaling param. (alpha)    .... 1000.000
   Quad. conv. algorithm                .... NR
   White noise on init. David. guess    .... on
   Maximum white noise                  ....   0.010
   Pseudo random numbers                .... off
   Inactive MOs                         .... canonical
   Orbital update algorithm             .... Taylor
   Preconditioner                       .... Diag
   Full preconditioner red. dimension   ....   250
 SOSCF                  CNVSOSCF        .... on
   Start iteration      SOSCFMaxIt      ....   150
   Startup grad/error   SOSCFStart      ....  0.003300
   Hessian update       SOSCFHessUp     .... L-BFGS
 Level Shifting         CNVShift        .... on
   Level shift para.    LevelShift      ....    0.2500
   Turn off err/grad.   ShiftErr        ....    0.0010
 Zerner damping         CNVZerner       .... off
 Static damping         CNVDamp         .... on
   Fraction old density DampFac         ....    0.7000
   Max. Damping (<1)    DampMax         ....    0.9800
   Min. Damping (>=0)   DampMin         ....    0.0000
   Turn off err/grad.   DampErr         ....    0.1000

SCF Procedure:
 Maximum # iterations   MaxIter         ....   125
 SCF integral mode      SCFMode         .... Direct
   Integral package                     .... SHARK and LIBINT hybrid scheme
 Reset frequency        DirectResetFreq ....    20
 Integral Threshold     Thresh          ....  2.500e-11 Eh
 Primitive CutOff       TCut            ....  2.500e-12 Eh

Convergence Tolerance:
 Convergence Check Mode ConvCheckMode   .... Total+1el-Energy
 Convergence forced     ConvForced      .... 0
 Energy Change          TolE            ....  1.000e-08 Eh
 1-El. energy change                    ....  1.000e-05 Eh
 Orbital Gradient       TolG            ....  1.000e-05
 Orbital Rotation angle TolX            ....  1.000e-05
 DIIS Error             TolErr          ....  5.000e-07

------------------------------
INITIAL GUESS: MODEL POTENTIAL
------------------------------
Loading Hartree-Fock densities                     ... done
Calculating cut-offs                               ... done
Initializing the effective Hamiltonian             ... done
Setting up the integral package (SHARK)            ... done
Starting the Coulomb interaction                   ... done (   0.2 sec)
Making the grid                                    ... done (   0.2 sec)
Mapping shells                                     ... done
Starting the XC term evaluation                    ... done (   0.1 sec)
  promolecular density results
     # of electrons  =    145.987494280
     EX              =   -125.359320535
     EC              =     -5.384200613
     EX+EC           =   -130.743521148
Transforming the Hamiltonian                       ... done (   0.0 sec)
Diagonalizing the Hamiltonian                      ... done (   0.0 sec)
Back transforming the eigenvectors                 ... done (   0.0 sec)
Now organizing SCF variables                       ... done
                      ------------------
                      INITIAL GUESS DONE (   0.6 sec)
                      ------------------
             **** ENERGY FILE WAS UPDATED (data/geom_opt_P_BP86/70575/70575.en.tmp) ****
Finished Guess after   0.7 sec
Maximum memory used throughout the entire GUESS-calculation: 26.1 MB


           ************************************************************
           *        Program running with 6 parallel MPI-processes     *
           *              working on a common directory               *
           ************************************************************

-------------------------------------------------------------------------------------------
                                      ORCA LEAN-SCF
                              memory conserving SCF solver
-------------------------------------------------------------------------------------------

----------------------------------------D-I-I-S--------------------------------------------
Iteration    Energy (Eh)           Delta-E    RMSDP     MaxDP     DIISErr   Damp  Time(sec)
-------------------------------------------------------------------------------------------
               ***  Starting incremental Fock matrix formation  ***
    1    -1074.6626768462697328     0.00e+00  2.06e-03  7.23e-02  1.53e-01  0.700   1.0
    2    -1074.8287952281293656    -1.66e-01  1.47e-03  6.30e-02  7.61e-02  0.700   0.9
                               ***Turning on AO-DIIS***
    3    -1074.8916595938949285    -6.29e-02  6.33e-04  3.66e-02  2.45e-02  0.700   0.9
    4    -1074.9282415558823232    -3.66e-02  1.15e-03  6.34e-02  9.67e-03  0.000   0.9
    5    -1075.0088096623790079    -8.06e-02  2.31e-04  1.53e-02  4.85e-03  0.000   0.9
                              *** Initializing SOSCF ***
---------------------------------------S-O-S-C-F--------------------------------------
Iteration    Energy (Eh)           Delta-E    RMSDP     MaxDP     MaxGrad    Time(sec)
--------------------------------------------------------------------------------------
    6    -1075.0094161022379922    -6.06e-04  8.24e-05  4.83e-03  8.69e-04     0.9
               *** Restarting incremental Fock matrix formation ***
    7    -1075.0094500070981667    -3.39e-05  5.53e-05  2.32e-03  1.54e-04     1.0
    8    -1075.0094487985002161     1.21e-06  2.21e-05  8.27e-04  2.95e-04     0.8
    9    -1075.0094531872423431    -4.39e-06  2.22e-05  1.51e-03  1.14e-04     0.8
   10    -1075.0094531359382017     5.13e-08  8.50e-06  5.61e-04  9.95e-05     0.8
   11    -1075.0094541271050730    -9.91e-07  5.66e-06  3.63e-04  2.13e-05     0.8
   12    -1075.0094540980035163     2.91e-08  3.11e-06  1.96e-04  2.89e-05     0.7
   13    -1075.0094541620210293    -6.40e-08  2.28e-06  1.29e-04  1.51e-05     0.7
   14    -1075.0094541333705820     2.87e-08  1.35e-06  8.12e-05  2.84e-05     0.8
   15    -1075.0094541779517385    -4.46e-08  6.76e-07  2.97e-05  3.52e-06     0.8
   16    -1075.0094541671287516     1.08e-08  3.50e-07  1.82e-05  4.70e-06     0.7
   17    -1075.0094541661201220     1.01e-09  3.34e-07  1.16e-05  1.48e-06     0.7
                 **** Energy Check signals convergence ****

               *****************************************************
               *                     SUCCESS                       *
               *           SCF CONVERGED AFTER  17 CYCLES          *
               *****************************************************

             **** ENERGY FILE WAS UPDATED (data/geom_opt_P_BP86/70575/70575.en.tmp) ****

----------------
TOTAL SCF ENERGY
----------------

Total Energy       :      -1075.00945416612012 Eh          -29252.49442 eV

Components:
Nuclear Repulsion  :       1523.30333281796675 Eh           41451.19102 eV
Electronic Energy  :      -2598.31278698408687 Eh          -70703.68544 eV
One Electron Energy:      -4489.19443116903585 Eh         -122157.19082 eV
Two Electron Energy:       1890.88164418494898 Eh           51453.50538 eV

Virial components:
Potential Energy   :      -2140.44816976530728 Eh          -58244.55580 eV
Kinetic Energy     :       1065.43871559918693 Eh           28992.06138 eV
Virial Ratio       :          2.00898290856790

DFT components:
N(Alpha)           :       72.999986668367 electrons
N(Beta)            :       72.999986668367 electrons
N(Total)           :      145.999973336735 electrons
E(X)               :     -127.209778544043 Eh       
E(C)               :       -5.391666250356 Eh       
E(XC)              :     -132.601444794399 Eh       

---------------
SCF CONVERGENCE
---------------

  Last Energy change         ...   -1.0086e-09  Tolerance :   1.0000e-08
  Last MAX-Density change    ...    1.1596e-05  Tolerance :   1.0000e-07
  Last RMS-Density change    ...    3.3363e-07  Tolerance :   5.0000e-09
  Last DIIS Error            ...    8.6950e-04  Tolerance :   5.0000e-07
  Last Orbital Gradient      ...    1.4831e-06  Tolerance :   1.0000e-05
  Last Orbital Rotation      ...    5.2253e-06  Tolerance :   1.0000e-05


----------------
ORBITAL ENERGIES
----------------

  NO   OCC          E(Eh)            E(eV) 
   0   2.0000     -76.339186     -2077.2949 
   1   2.0000      -9.922924      -270.0165 
   2   2.0000      -9.922808      -270.0133 
   3   2.0000      -9.922317      -270.0000 
   4   2.0000      -9.919645      -269.9273 
   5   2.0000      -9.919491      -269.9231 
   6   2.0000      -9.919142      -269.9136 
   7   2.0000      -9.918175      -269.8873 
   8   2.0000      -9.917753      -269.8758 
   9   2.0000      -9.917535      -269.8699 
  10   2.0000      -9.917363      -269.8652 
  11   2.0000      -9.917222      -269.8613 
  12   2.0000      -9.917154      -269.8595 
  13   2.0000      -9.916931      -269.8534 
  14   2.0000      -9.916816      -269.8503 
  15   2.0000      -9.916612      -269.8447 
  16   2.0000      -9.916357      -269.8378 
  17   2.0000      -9.914052      -269.7751 
  18   2.0000      -9.913450      -269.7587 
  19   2.0000      -9.912857      -269.7425 
  20   2.0000      -6.308608      -171.6659 
  21   2.0000      -4.529988      -123.2672 
  22   2.0000      -4.529949      -123.2662 
  23   2.0000      -4.526258      -123.1657 
  24   2.0000      -0.781550       -21.2671 
  25   2.0000      -0.775025       -21.0895 
  26   2.0000      -0.773298       -21.0425 
  27   2.0000      -0.709011       -19.2932 
  28   2.0000      -0.685623       -18.6568 
  29   2.0000      -0.672503       -18.2997 
  30   2.0000      -0.670584       -18.2475 
  31   2.0000      -0.670174       -18.2364 
  32   2.0000      -0.667749       -18.1704 
  33   2.0000      -0.624017       -16.9804 
  34   2.0000      -0.577409       -15.7121 
  35   2.0000      -0.546932       -14.8828 
  36   2.0000      -0.544018       -14.8035 
  37   2.0000      -0.542820       -14.7709 
  38   2.0000      -0.535239       -14.5646 
  39   2.0000      -0.524940       -14.2844 
  40   2.0000      -0.502872       -13.6839 
  41   2.0000      -0.468426       -12.7465 
  42   2.0000      -0.460651       -12.5349 
  43   2.0000      -0.432416       -11.7666 
  44   2.0000      -0.419861       -11.4250 
  45   2.0000      -0.409149       -11.1335 
  46   2.0000      -0.407632       -11.0922 
  47   2.0000      -0.401263       -10.9189 
  48   2.0000      -0.399953       -10.8833 
  49   2.0000      -0.393452       -10.7064 
  50   2.0000      -0.383715       -10.4414 
  51   2.0000      -0.375581       -10.2201 
  52   2.0000      -0.374941       -10.2027 
  53   2.0000      -0.374067       -10.1789 
  54   2.0000      -0.366782        -9.9806 
  55   2.0000      -0.358962        -9.7679 
  56   2.0000      -0.343070        -9.3354 
  57   2.0000      -0.334208        -9.0943 
  58   2.0000      -0.332589        -9.0502 
  59   2.0000      -0.323717        -8.8088 
  60   2.0000      -0.319726        -8.7002 
  61   2.0000      -0.305305        -8.3078 
  62   2.0000      -0.304784        -8.2936 
  63   2.0000      -0.301043        -8.1918 
  64   2.0000      -0.287949        -7.8355 
  65   2.0000      -0.287533        -7.8242 
  66   2.0000      -0.248069        -6.7503 
  67   2.0000      -0.238128        -6.4798 
  68   2.0000      -0.235494        -6.4081 
  69   2.0000      -0.232671        -6.3313 
  70   2.0000      -0.229060        -6.2330 
  71   2.0000      -0.227659        -6.1949 
  72   2.0000      -0.182690        -4.9712 
  73   0.0000      -0.056523        -1.5381 
  74   0.0000      -0.054484        -1.4826 
  75   0.0000      -0.052155        -1.4192 
  76   0.0000      -0.037825        -1.0293 
  77   0.0000      -0.037510        -1.0207 
  78   0.0000      -0.037379        -1.0171 
  79   0.0000       0.035485         0.9656 
  80   0.0000       0.037075         1.0089 
  81   0.0000       0.045853         1.2477 
  82   0.0000       0.058606         1.5947 
  83   0.0000       0.061811         1.6820 
*Only the first 10 virtual orbitals were printed.

                    ********************************
                    * MULLIKEN POPULATION ANALYSIS *
                    ********************************

-----------------------
MULLIKEN ATOMIC CHARGES
-----------------------
   0 C :    0.032742
   1 C :   -0.045155
   2 C :   -0.010961
   3 C :    0.001422
   4 C :   -0.123118
   5 C :    0.010982
   6 C :   -0.015825
   7 P :    0.283740
   8 C :   -0.126731
   9 C :    0.011049
  10 C :    0.009013
  11 C :    0.009584
  12 C :    0.012488
  13 C :    0.000568
  14 C :   -0.126169
  15 C :    0.010660
  16 C :    0.009022
  17 C :    0.009428
  18 C :    0.012502
  19 C :   -0.000636
  20 H :    0.029287
  21 H :    0.029033
  22 H :    0.051714
  23 H :   -0.022838
  24 H :    0.002399
  25 H :   -0.006476
  26 H :   -0.020279
  27 H :   -0.003864
  28 H :   -0.003883
  29 H :   -0.004859
  30 H :   -0.006351
  31 H :    0.005300
  32 H :   -0.003919
  33 H :   -0.003950
  34 H :   -0.005057
  35 H :   -0.006787
  36 H :    0.005923
Sum of atomic charges:   -0.0000000

--------------------------------
MULLIKEN REDUCED ORBITAL CHARGES
--------------------------------
  0 C s       :     2.946650  s :     2.946650
      pz      :     1.002801  p :     2.994934
      px      :     0.980129
      py      :     1.012004
      dz2     :     0.007212  d :     0.025674
      dxz     :     0.004142
      dyz     :     0.002416
      dx2y2   :     0.004883
      dxy     :     0.007021

  1 C s       :     3.067762  s :     3.067762
      pz      :     0.973536  p :     2.935557
      px      :     0.986258
      py      :     0.975764
      dz2     :     0.009048  d :     0.041836
      dxz     :     0.010445
      dyz     :     0.005581
      dx2y2   :     0.008116
      dxy     :     0.008646

  2 C s       :     3.222322  s :     3.222322
      pz      :     0.870206  p :     2.756536
      px      :     0.944061
      py      :     0.942269
      dz2     :     0.005556  d :     0.032102
      dxz     :     0.008043
      dyz     :     0.004291
      dx2y2   :     0.006859
      dxy     :     0.007354

  3 C s       :     3.238442  s :     3.238442
      pz      :     0.926026  p :     2.727261
      px      :     0.857343
      py      :     0.943892
      dz2     :     0.006619  d :     0.032876
      dxz     :     0.009240
      dyz     :     0.004732
      dx2y2   :     0.005209
      dxy     :     0.007077

  4 C s       :     3.068950  s :     3.068950
      pz      :     0.995070  p :     3.019200
      px      :     0.991801
      py      :     1.032329
      dz2     :     0.007890  d :     0.034968
      dxz     :     0.009551
      dyz     :     0.005349
      dx2y2   :     0.006874
      dxy     :     0.005305

  5 C s       :     3.223628  s :     3.223628
      pz      :     0.885858  p :     2.732645
      px      :     0.911343
      py      :     0.935444
      dz2     :     0.005624  d :     0.032744
      dxz     :     0.008231
      dyz     :     0.004369
      dx2y2   :     0.007164
      dxy     :     0.007356

  6 C s       :     3.222286  s :     3.222286
      pz      :     0.938745  p :     2.761437
      px      :     0.870637
      py      :     0.952055
      dz2     :     0.006544  d :     0.032102
      dxz     :     0.009084
      dyz     :     0.004653
      dx2y2   :     0.005090
      dxy     :     0.006731

  7 P s       :     5.656658  s :     5.656658
      pz      :     3.341519  p :     8.883701
      px      :     2.770405
      py      :     2.771776
      dz2     :     0.015931  d :     0.175900
      dxz     :     0.033543
      dyz     :     0.035957
      dx2y2   :     0.045880
      dxy     :     0.044589

  8 C s       :     3.075700  s :     3.075700
      pz      :     0.990503  p :     3.016084
      px      :     1.018515
      py      :     1.007067
      dz2     :     0.007723  d :     0.034946
      dxz     :     0.004761
      dyz     :     0.009483
      dx2y2   :     0.006071
      dxy     :     0.006909

  9 C s       :     3.219483  s :     3.219483
      pz      :     0.885252  p :     2.736936
      px      :     0.922587
      py      :     0.929096
      dz2     :     0.005317  d :     0.032532
      dxz     :     0.004136
      dyz     :     0.008416
      dx2y2   :     0.007216
      dxy     :     0.007447

 10 C s       :     3.168434  s :     3.168434
      pz      :     0.955982  p :     2.789653
      px      :     0.978809
      py      :     0.854862
      dz2     :     0.007206  d :     0.032899
      dxz     :     0.004990
      dyz     :     0.008266
      dx2y2   :     0.007034
      dxy     :     0.005403

 11 C s       :     3.168233  s :     3.168233
      pz      :     0.941427  p :     2.789019
      px      :     0.952256
      py      :     0.895336
      dz2     :     0.006588  d :     0.033165
      dxz     :     0.004407
      dyz     :     0.009291
      dx2y2   :     0.005844
      dxy     :     0.007034

 12 C s       :     3.168330  s :     3.168330
      pz      :     0.887193  p :     2.786274
      px      :     0.938701
      py      :     0.960381
      dz2     :     0.005494  d :     0.032907
      dxz     :     0.004163
      dyz     :     0.008384
      dx2y2   :     0.007419
      dxy     :     0.007448

 13 C s       :     3.234299  s :     3.234299
      pz      :     0.936025  p :     2.732471
      px      :     0.967207
      py      :     0.829239
      dz2     :     0.006956  d :     0.032662
      dxz     :     0.004910
      dyz     :     0.008417
      dx2y2   :     0.006848
      dxy     :     0.005531

 14 C s       :     3.075789  s :     3.075789
      pz      :     0.994242  p :     3.015454
      px      :     1.017557
      py      :     1.003656
      dz2     :     0.006943  d :     0.034925
      dxz     :     0.006986
      dyz     :     0.006689
      dx2y2   :     0.006852
      dxy     :     0.007455

 15 C s       :     3.219331  s :     3.219331
      pz      :     0.905089  p :     2.737481
      px      :     0.935783
      py      :     0.896609
      dz2     :     0.004300  d :     0.032528
      dxz     :     0.006312
      dyz     :     0.006008
      dx2y2   :     0.007715
      dxy     :     0.008194

 16 C s       :     3.168415  s :     3.168415
      pz      :     0.953349  p :     2.789655
      px      :     0.872591
      py      :     0.963715
      dz2     :     0.005925  d :     0.032909
      dxz     :     0.005808
      dyz     :     0.006667
      dx2y2   :     0.007745
      dxy     :     0.006763

 17 C s       :     3.168185  s :     3.168185
      pz      :     0.957055  p :     2.789223
      px      :     0.946870
      py      :     0.885298
      dz2     :     0.006393  d :     0.033164
      dxz     :     0.007004
      dyz     :     0.005222
      dx2y2   :     0.006793
      dxy     :     0.007751

 18 C s       :     3.168236  s :     3.168236
      pz      :     0.904564  p :     2.786346
      px      :     0.944539
      py      :     0.937243
      dz2     :     0.004462  d :     0.032916
      dxz     :     0.006291
      dyz     :     0.005988
      dx2y2   :     0.007983
      dxy     :     0.008192

 19 C s       :     3.234440  s :     3.234440
      pz      :     0.939002  p :     2.733539
      px      :     0.871364
      py      :     0.923173
      dz2     :     0.005738  d :     0.032657
      dxz     :     0.005904
      dyz     :     0.006554
      dx2y2   :     0.007899
      dxy     :     0.006562

 20 H s       :     0.947673  s :     0.947673
      pz      :     0.012933  p :     0.023040
      px      :     0.004520
      py      :     0.005587

 21 H s       :     0.947936  s :     0.947936
      pz      :     0.005736  p :     0.023031
      px      :     0.005998
      py      :     0.011297

 22 H s       :     0.924624  s :     0.924624
      pz      :     0.006860  p :     0.023661
      px      :     0.007164
      py      :     0.009638

 23 H s       :     1.000468  s :     1.000468
      pz      :     0.010781  p :     0.022369
      px      :     0.004379
      py      :     0.007209

 24 H s       :     0.974401  s :     0.974401
      pz      :     0.006586  p :     0.023200
      px      :     0.008836
      py      :     0.007778

 25 H s       :     0.983969  s :     0.983969
      pz      :     0.010969  p :     0.022507
      px      :     0.004513
      py      :     0.007025

 26 H s       :     0.997863  s :     0.997863
      pz      :     0.006573  p :     0.022417
      px      :     0.008230
      py      :     0.007613

 27 H s       :     0.981377  s :     0.981377
      pz      :     0.010674  p :     0.022487
      px      :     0.007840
      py      :     0.003972

 28 H s       :     0.981489  s :     0.981489
      pz      :     0.005419  p :     0.022395
      px      :     0.004762
      py      :     0.012214

 29 H s       :     0.982486  s :     0.982486
      pz      :     0.006246  p :     0.022372
      px      :     0.006460
      py      :     0.009667

 30 H s       :     0.984004  s :     0.984004
      pz      :     0.010558  p :     0.022347
      px      :     0.007832
      py      :     0.003956

 31 H s       :     0.971534  s :     0.971534
      pz      :     0.005465  p :     0.023166
      px      :     0.004750
      py      :     0.012951

 32 H s       :     0.981433  s :     0.981433
      pz      :     0.009626  p :     0.022486
      px      :     0.005667
      py      :     0.007193

 33 H s       :     0.981555  s :     0.981555
      pz      :     0.006004  p :     0.022395
      px      :     0.011580
      py      :     0.004811

 34 H s       :     0.982683  s :     0.982683
      pz      :     0.005365  p :     0.022374
      px      :     0.006170
      py      :     0.010839

 35 H s       :     0.984443  s :     0.984443
      pz      :     0.009529  p :     0.022344
      px      :     0.005693
      py      :     0.007122

 36 H s       :     0.970900  s :     0.970900
      pz      :     0.006034  p :     0.023177
      px      :     0.012159
      py      :     0.004983



                     *******************************
                     * LOEWDIN POPULATION ANALYSIS *
                     *******************************

----------------------
LOEWDIN ATOMIC CHARGES
----------------------
   0 C :   -0.057120
   1 C :   -0.025841
   2 C :   -0.033079
   3 C :   -0.029894
   4 C :   -0.183528
   5 C :   -0.026167
   6 C :   -0.033178
   7 P :    0.507681
   8 C :   -0.176079
   9 C :   -0.028274
  10 C :   -0.029257
  11 C :   -0.027543
  12 C :   -0.028787
  13 C :   -0.031881
  14 C :   -0.176556
  15 C :   -0.028490
  16 C :   -0.029193
  17 C :   -0.027860
  18 C :   -0.028940
  19 C :   -0.032256
  20 H :    0.034454
  21 H :    0.034243
  22 H :    0.043148
  23 H :    0.027351
  24 H :    0.030816
  25 H :    0.028035
  26 H :    0.028067
  27 H :    0.028376
  28 H :    0.030824
  29 H :    0.029555
  30 H :    0.030180
  31 H :    0.031267
  32 H :    0.028313
  33 H :    0.030802
  34 H :    0.029473
  35 H :    0.030010
  36 H :    0.031325

-------------------------------
LOEWDIN REDUCED ORBITAL CHARGES
-------------------------------
  0 C s       :     2.833039  s :     2.833039
      pz      :     1.060653  p :     3.154221
      px      :     1.026540
      py      :     1.067028
      dz2     :     0.020350  d :     0.069859
      dxz     :     0.010838
      dyz     :     0.006128
      dx2y2   :     0.014425
      dxy     :     0.018118

  1 C s       :     2.856065  s :     2.856065
      pz      :     1.033484  p :     3.062123
      px      :     1.033260
      py      :     0.995379
      dz2     :     0.022490  d :     0.107652
      dxz     :     0.027731
      dyz     :     0.016039
      dx2y2   :     0.020742
      dxy     :     0.020650

  2 C s       :     2.864248  s :     2.864248
      pz      :     1.020643  p :     3.080475
      px      :     1.054149
      py      :     1.005682
      dz2     :     0.014746  d :     0.088356
      dxz     :     0.022856
      dyz     :     0.011148
      dx2y2   :     0.019811
      dxy     :     0.019795

  3 C s       :     2.868170  s :     2.868170
      pz      :     1.020560  p :     3.071821
      px      :     1.052369
      py      :     0.998891
      dz2     :     0.017332  d :     0.089904
      dxz     :     0.026810
      dyz     :     0.012899
      dx2y2   :     0.014986
      dxy     :     0.017877

  4 C s       :     2.912804  s :     2.912804
      pz      :     1.065826  p :     3.179435
      px      :     1.076202
      py      :     1.037408
      dz2     :     0.019256  d :     0.091289
      dxz     :     0.026029
      dyz     :     0.015311
      dx2y2   :     0.016509
      dxy     :     0.014183

  5 C s       :     2.869071  s :     2.869071
      pz      :     1.017410  p :     3.067658
      px      :     1.058121
      py      :     0.992127
      dz2     :     0.015029  d :     0.089437
      dxz     :     0.023187
      dyz     :     0.011213
      dx2y2   :     0.020309
      dxy     :     0.019700

  6 C s       :     2.863661  s :     2.863661
      pz      :     1.029282  p :     3.081145
      px      :     1.045439
      py      :     1.006425
      dz2     :     0.017335  d :     0.088371
      dxz     :     0.026449
      dyz     :     0.012605
      dx2y2   :     0.014837
      dxy     :     0.017146

  7 P s       :     5.234962  s :     5.234962
      pz      :     3.403469  p :     9.012605
      px      :     2.803558
      py      :     2.805578
      dz2     :     0.022759  d :     0.244752
      dxz     :     0.044891
      dyz     :     0.049099
      dx2y2   :     0.064905
      dxy     :     0.063097

  8 C s       :     2.914791  s :     2.914791
      pz      :     1.058540  p :     3.170155
      px      :     1.033467
      py      :     1.078148
      dz2     :     0.018730  d :     0.091133
      dxz     :     0.013620
      dyz     :     0.025444
      dx2y2   :     0.016733
      dxy     :     0.016606

  9 C s       :     2.869384  s :     2.869384
      pz      :     1.016671  p :     3.069916
      px      :     0.990450
      py      :     1.062795
      dz2     :     0.014076  d :     0.088975
      dxz     :     0.010452
      dyz     :     0.023655
      dx2y2   :     0.021269
      dxy     :     0.019523

 10 C s       :     2.863639  s :     2.863639
      pz      :     1.030813  p :     3.076425
      px      :     1.003939
      py      :     1.041673
      dz2     :     0.018344  d :     0.089193
      dxz     :     0.014546
      dyz     :     0.023253
      dx2y2   :     0.018514
      dxy     :     0.014537

 11 C s       :     2.863095  s :     2.863095
      pz      :     1.026664  p :     3.074561
      px      :     0.996126
      py      :     1.051770
      dz2     :     0.016971  d :     0.089888
      dxz     :     0.012588
      dyz     :     0.025804
      dx2y2   :     0.016692
      dxy     :     0.017832

 12 C s       :     2.864276  s :     2.864276
      pz      :     1.014740  p :     3.075314
      px      :     0.993326
      py      :     1.067247
      dz2     :     0.014061  d :     0.089198
      dxz     :     0.010429
      dyz     :     0.023891
      dx2y2   :     0.021243
      dxy     :     0.019573

 13 C s       :     2.868492  s :     2.868492
      pz      :     1.020229  p :     3.073966
      px      :     1.003581
      py      :     1.050155
      dz2     :     0.017849  d :     0.089424
      dxz     :     0.014740
      dyz     :     0.023851
      dx2y2   :     0.018070
      dxy     :     0.014913

 14 C s       :     2.915084  s :     2.915084
      pz      :     1.046407  p :     3.170381
      px      :     1.060023
      py      :     1.063952
      dz2     :     0.015758  d :     0.091090
      dxz     :     0.019418
      dyz     :     0.018273
      dx2y2   :     0.018321
      dxy     :     0.019320

 15 C s       :     2.869288  s :     2.869288
      pz      :     1.006022  p :     3.070228
      px      :     1.036370
      py      :     1.027835
      dz2     :     0.011100  d :     0.088974
      dxz     :     0.016963
      dyz     :     0.015835
      dx2y2   :     0.020799
      dxy     :     0.024277

 16 C s       :     2.863636  s :     2.863636
      pz      :     1.017265  p :     3.076341
      px      :     1.022546
      py      :     1.036529
      dz2     :     0.014480  d :     0.089216
      dxz     :     0.015697
      dyz     :     0.019283
      dx2y2   :     0.020498
      dxy     :     0.019257

 17 C s       :     2.863072  s :     2.863072
      pz      :     1.016961  p :     3.074898
      px      :     1.039350
      py      :     1.018587
      dz2     :     0.015536  d :     0.089890
      dxz     :     0.020039
      dyz     :     0.014659
      dx2y2   :     0.018577
      dxy     :     0.021078

[...]
      dxz     :     0.014671
      dyz     :     0.022442
      dx2y2   :     0.017744
      dxy     :     0.013931

 14 C s       :     2.924369  s :     2.924369
      pz      :     1.044343  p :     3.159965
      px      :     1.059642
      py      :     1.055981
      dz2     :     0.015279  d :     0.087947
      dxz     :     0.019378
      dyz     :     0.016747
      dx2y2   :     0.017934
      dxy     :     0.018609

 15 C s       :     2.876384  s :     2.876384
      pz      :     1.008059  p :     3.071105
      px      :     1.039616
      py      :     1.023431
      dz2     :     0.011367  d :     0.087149
      dxz     :     0.017314
      dyz     :     0.014992
      dx2y2   :     0.020182
      dxy     :     0.023295

 16 C s       :     2.872834  s :     2.872834
      pz      :     1.017971  p :     3.072533
      px      :     1.023496
      py      :     1.031067
      dz2     :     0.014753  d :     0.086165
      dxz     :     0.015603
      dyz     :     0.018320
      dx2y2   :     0.019150
      dxy     :     0.018338

 17 C s       :     2.873721  s :     2.873721
      pz      :     1.015918  p :     3.071129
      px      :     1.040282
      py      :     1.014929
      dz2     :     0.014352  d :     0.085706
      dxz     :     0.019831
      dyz     :     0.013742
      dx2y2   :     0.017852
      dxy     :     0.019929

 18 C s       :     2.873034  s :     2.873034
      pz      :     1.005546  p :     3.071658
      px      :     1.040394
      py      :     1.025718
      dz2     :     0.010931  d :     0.086318
      dxz     :     0.017242
      dyz     :     0.014590
      dx2y2   :     0.020906
      dxy     :     0.022648

 19 C s       :     2.876290  s :     2.876290
      pz      :     1.009864  p :     3.072041
      px      :     1.032048
      py      :     1.030129
      dz2     :     0.014582  d :     0.087010
      dxz     :     0.015447
      dyz     :     0.018975
      dx2y2   :     0.019681
      dxy     :     0.018325

 20 H s       :     0.899889  s :     0.899889
      pz      :     0.039308  p :     0.063668
      px      :     0.011797
      py      :     0.012563

 21 H s       :     0.899950  s :     0.899950
      pz      :     0.013579  p :     0.063675
      px      :     0.017797
      py      :     0.032298

 22 H s       :     0.890932  s :     0.890932
      pz      :     0.015892  p :     0.063764
      px      :     0.020748
      py      :     0.027123

 23 H s       :     0.904219  s :     0.904219
      pz      :     0.033673  p :     0.066048
      px      :     0.012384
      py      :     0.019991

 24 H s       :     0.895669  s :     0.895669
      pz      :     0.018713  p :     0.068915
      px      :     0.028388
      py      :     0.021815

 25 H s       :     0.902538  s :     0.902538
      pz      :     0.034170  p :     0.066539
      px      :     0.012597
      py      :     0.019772

 26 H s       :     0.903817  s :     0.903817
      pz      :     0.018592  p :     0.066024
      px      :     0.025583
      py      :     0.021848

 27 H s       :     0.902398  s :     0.902398
      pz      :     0.032084  p :     0.066606
      px      :     0.022920
      py      :     0.011601

 28 H s       :     0.900759  s :     0.900759
      pz      :     0.014708  p :     0.065805
      px      :     0.013571
      py      :     0.037526

 29 H s       :     0.901497  s :     0.901497
      pz      :     0.019427  p :     0.065919
      px      :     0.018066
      py      :     0.028427

 30 H s       :     0.901147  s :     0.901147
      pz      :     0.031310  p :     0.065831
      px      :     0.022651
      py      :     0.011870

 31 H s       :     0.895384  s :     0.895384
      pz      :     0.014640  p :     0.069184
      px      :     0.013565
      py      :     0.040979

 32 H s       :     0.902329  s :     0.902329
      pz      :     0.029177  p :     0.066625
      px      :     0.016977
      py      :     0.020470

 33 H s       :     0.900693  s :     0.900693
      pz      :     0.016164  p :     0.065814
      px      :     0.035385
      py      :     0.014266

 34 H s       :     0.901460  s :     0.901460
      pz      :     0.016535  p :     0.065916
      px      :     0.017767
      py      :     0.031614

 35 H s       :     0.901226  s :     0.901226
      pz      :     0.028481  p :     0.065823
      px      :     0.017294
      py      :     0.020049

 36 H s       :     0.895116  s :     0.895116
      pz      :     0.016146  p :     0.069259
      px      :     0.037694
      py      :     0.015419



                      *****************************
                      * MAYER POPULATION ANALYSIS *
                      *****************************

  NA   - Mulliken gross atomic population
  ZA   - Total nuclear charge
  QA   - Mulliken gross atomic charge
  VA   - Mayer's total valence
  BVA  - Mayer's bonded valence
  FA   - Mayer's free valence

  ATOM       NA         ZA         QA         VA         BVA        FA
  0 C      5.9902     6.0000     0.0098     3.9136     3.9136    -0.0000
  1 C      6.0401     6.0000    -0.0401     3.9708     3.9708    -0.0000
  2 C      6.0192     6.0000    -0.0192     3.8418     3.8418    -0.0000
  3 C      5.9893     6.0000     0.0107     3.8692     3.8692    -0.0000
  4 C      6.1604     6.0000    -0.1604     3.8231     3.8231    -0.0000
  5 C      5.9826     6.0000     0.0174     3.8570     3.8570    -0.0000
  6 C      6.0241     6.0000    -0.0241     3.8657     3.8657    -0.0000
  7 P     14.6989    15.0000     0.3011     2.9854     2.9854    -0.0000
  8 C      6.1610     6.0000    -0.1610     3.8451     3.8451     0.0000
  9 C      5.9845     6.0000     0.0155     3.8661     3.8661    -0.0000
 10 C      6.0011     6.0000    -0.0011     3.8575     3.8575    -0.0000
 11 C      5.9974     6.0000     0.0026     3.8251     3.8251    -0.0000
 12 C      5.9968     6.0000     0.0032     3.8340     3.8340    -0.0000
 13 C      5.9949     6.0000     0.0051     3.8805     3.8805    -0.0000
 14 C      6.1628     6.0000    -0.1628     3.8417     3.8417    -0.0000
 15 C      5.9863     6.0000     0.0137     3.8664     3.8664    -0.0000
 16 C      6.0009     6.0000    -0.0009     3.8571     3.8571    -0.0000
 17 C      5.9972     6.0000     0.0028     3.8248     3.8248    -0.0000
 18 C      5.9965     6.0000     0.0035     3.8335     3.8335    -0.0000
 19 C      5.9935     6.0000     0.0065     3.8807     3.8807    -0.0000
 20 H      0.9651     1.0000     0.0349     0.9929     0.9929     0.0000
 21 H      0.9651     1.0000     0.0349     0.9929     0.9929    -0.0000
 22 H      0.9455     1.0000     0.0545     0.9857     0.9857    -0.0000
 23 H      1.0141     1.0000    -0.0141     0.9867     0.9867    -0.0000
 24 H      0.9862     1.0000     0.0138     0.9904     0.9904     0.0000
 25 H      0.9988     1.0000     0.0012     0.9899     0.9899    -0.0000
 26 H      1.0119     1.0000    -0.0119     0.9869     0.9869    -0.0000
 27 H      0.9962     1.0000     0.0038     0.9903     0.9903     0.0000
 28 H      0.9954     1.0000     0.0046     0.9789     0.9789    -0.0000
 29 H      0.9959     1.0000     0.0041     0.9787     0.9787    -0.0000
 30 H      0.9978     1.0000     0.0022     0.9787     0.9787    -0.0000
 31 H      0.9825     1.0000     0.0175     0.9905     0.9905    -0.0000
 32 H      0.9959     1.0000     0.0041     0.9903     0.9903     0.0000
 33 H      0.9953     1.0000     0.0047     0.9789     0.9789    -0.0000
 34 H      0.9958     1.0000     0.0042     0.9787     0.9787     0.0000
 35 H      0.9979     1.0000     0.0021     0.9787     0.9787    -0.0000
 36 H      0.9828     1.0000     0.0172     0.9913     0.9913     0.0000

  Mayer bond orders larger than 0.100000
B(  0-C ,  1-C ) :   1.0721 B(  0-C , 20-H ) :   0.9541 B(  0-C , 21-H ) :   0.9542 
B(  0-C , 22-H ) :   0.9465 B(  1-C ,  2-C ) :   1.3742 B(  1-C ,  6-C ) :   1.3731 
B(  2-C ,  3-C ) :   1.3764 B(  2-C , 23-H ) :   0.9756 B(  3-C ,  4-C ) :   1.3717 
B(  3-C , 24-H ) :   0.9664 B(  4-C ,  5-C ) :   1.3551 B(  4-C ,  7-P ) :   0.9378 
B(  5-C ,  6-C ) :   1.3965 B(  5-C , 25-H ) :   0.9704 B(  6-C , 26-H ) :   0.9763 
B(  7-P ,  8-C ) :   0.9337 B(  7-P , 14-C ) :   0.9320 B(  8-C ,  9-C ) :   1.3617 
B(  8-C , 13-C ) :   1.3854 B(  9-C , 10-C ) :   1.4055 B(  9-C , 27-H ) :   0.9713 
B( 10-C , 11-C ) :   1.3735 B( 10-C , 28-H ) :   0.9757 B( 11-C , 12-C ) :   1.3802 
B( 11-C , 29-H ) :   0.9756 B( 12-C , 13-C ) :   1.3802 B( 12-C , 30-H ) :   0.9746 
B( 13-C , 31-H ) :   0.9664 B( 14-C , 15-C ) :   1.3614 B( 14-C , 19-C ) :   1.3851 
B( 15-C , 16-C ) :   1.4044 B( 15-C , 32-H ) :   0.9715 B( 16-C , 17-C ) :   1.3741 
B( 16-C , 33-H ) :   0.9758 B( 17-C , 18-C ) :   1.3795 B( 17-C , 34-H ) :   0.9756 
B( 18-C , 19-C ) :   1.3809 B( 18-C , 35-H ) :   0.9746 B( 19-C , 36-H ) :   0.9665 


-------
TIMINGS
-------

Total SCF time: 0 days 0 hours 0 min 5 sec 

Total time                  ....       5.436 sec
Sum of individual times     ....       5.350 sec  ( 98.4%)

SCF preparation             ....       0.123 sec  (  2.3%)
Fock matrix formation       ....       4.761 sec  ( 87.6%)
  Startup                   ....       0.024 sec  (  0.5% of F)
  Split-RI-J                ....       1.674 sec  ( 35.2% of F)
  XC integration            ....       2.985 sec  ( 62.7% of F)
    Basis function eval.    ....       0.863 sec  ( 28.9% of XC)
    Density eval.           ....       0.863 sec  ( 28.9% of XC)
    XC-Functional eval.     ....       0.069 sec  (  2.3% of XC)
    XC-Potential eval.      ....       0.645 sec  ( 21.6% of XC)
Diagonalization             ....       0.000 sec  (  0.0%)
Density matrix formation    ....       0.054 sec  (  1.0%)
Total Energy calculation    ....       0.019 sec  (  0.3%)
Population analysis         ....       0.088 sec  (  1.6%)
Orbital Transformation      ....       0.040 sec  (  0.7%)
Orbital Orthonormalization  ....       0.000 sec  (  0.0%)
DIIS solution               ....       0.049 sec  (  0.9%)
SOSCF solution              ....       0.216 sec  (  4.0%)
Finished LeanSCF after   5.5 sec

Maximum memory used throughout the entire LEANSCF-calculation: 39.0 MB


-------------------------------------------------------------------------------
                          DFT DISPERSION CORRECTION                            
                                                                               
                              DFTD3 V3.1  Rev 1                                
                          USING Becke-Johnson damping                          
-------------------------------------------------------------------------------
The BP86 functional is recognized
Active option DFTDOPT                   ...         4   

molecular C6(AA) [au] = 18671.916468 


            DFT-D V3
 parameters
 s6 scaling factor         :     1.0000 
 a1 scaling factor         :     0.3946 
 s8 scaling factor         :     3.2822 
 a2 scaling factor         :     4.8516 
 ad hoc parameters k1-k3   :    16.0000     1.3333    -4.0000 

 Edisp/kcal,au: -54.421192036892  -0.086725680617 
 E6   /kcal   : -19.727500368 
 E8   /kcal   : -34.693691668 
 % E8         :  63.750333960 

-------------------------   ----------------
Dispersion correction           -0.086725681
-------------------------   ----------------


-------------------------   --------------------
FINAL SINGLE POINT ENERGY     -1075.102121869903
-------------------------   --------------------

                                *** OPTIMIZATION RUN DONE ***



           ************************************************************
           *        Program running with 6 parallel MPI-processes     *
           *              working on a common directory               *
           ************************************************************

------------------------------------------------------------------------------
                              ORCA PROPERTY CALCULATIONS
------------------------------------------------------------------------------

GBWName                                 ... data/geom_opt_P_BP86/70575/70575.gbw
Number of atoms                         ...     37
Number of basis functions               ...    369
Max core memory                         ...   1024 MB

Electric properties:
Dipole moment                           ... YES
Quadrupole moment                       ...  NO
Static polarizability (Dipole/Dipole)   ...  NO
Static polarizability (Dipole/Quad.)    ...  NO
Static polarizability (Quad./Quad.)     ...  NO
Static polarizability (Velocity)        ...  NO

Atomic electric properties:
Dipole moment                           ...  NO
Quadrupole moment                       ...  NO
Static polarizability                   ...  NO

Choice of electric origin               ... Center of mass
Position of electric origin             ...    -0.409093    -0.038119    -0.447929

General magnetic properties:
Magnetizability                         ...  NO

EPR properties:
g-Tensor (aka g-matrix)                 ...  NO
Zero-Field splitting spin-orbit         ...  NO
Zero-field splitting spin-spin          ...  NO
Hyperfine couplings                     ...  NO (   0 nuclei)
Quadrupole couplings                    ...  NO (   0 nuclei)
Contact density                         ...  NO (   0 nuclei)

NMR properties:
Chemical shifts                         ...  NO (   0 nuclei)
Spin-rotation constants                 ...  NO (   0 nuclei)
Spin-spin couplings                     ...  NO (   0 nuclei,    0 pairs)

Choice of magnetic origin               ... GIAO
Position of magnetic origin             ...     0.000000     0.000000     0.000000

Properties with geometric perturbations:
SCF Hessian                             ...  NO
IR spectrum                             ...  NO
VCD spectrum                            ...  NO
X-ray spectroscopy properties:
SCF XES/XAS/RIXS spectra                ...  NO


-------------
DIPOLE MOMENT
-------------

Method             : SCF
Type of density    : Electron Density
Multiplicity       :   1
Irrep              :   0
Energy             : -1075.0153961892860934 Eh
Relativity type    : 
Basis              : AO
                                X                 Y                 Z
Electronic contribution:     -7.685032699      -0.653303926      -7.430476342
Nuclear contribution   :      7.947798002       0.686079142       8.018932048
                        -----------------------------------------
Total Dipole Moment    :      0.262765304       0.032775216       0.588455706
                        -----------------------------------------
Magnitude (a.u.)       :      0.645290584
Magnitude (Debye)      :      1.640198316



--------------------
Rotational spectrum 
--------------------
 
Rotational constants in cm-1:             0.011702             0.008922             0.005943 
Rotational constants in MHz :           350.813414           267.464288           178.177336 

Dipole components along the rotational axes: 
x,y,z [a.u.] :     0.281527    -0.015191     0.580441 
x,y,z [Debye]:     0.715585    -0.038614     1.475363 

 

Dipole moment calculation done in   0.0 sec 

Maximum memory used throughout the entire PROP-calculation: 19.7 MB

--------------------------------
SUGGESTED CITATIONS FOR THIS RUN
--------------------------------

Below you find a list of papers that are relevant to this ORCA run
We neither can nor want to force you to cite these papers, but we appreciate if you do
You receive ORCA, which is the product of decades of hard work by many enthusiastic individuals, for free
The only thing we kindly ask in return is that you cite our papers,
We deeply appreciate it, if you show your appreciation for ORCA by not just citing the generic ORCA reference.

Please note that relegating all ORCA citations to the supporting information does *not* help us.
SI sections are not indexed - citations you put there will not count into any citation statistics
But we need these citations in order to attract the funding resources that allow us to do what we are doing

Therefore, if you are a happy ORCA user, please consider citing a few of the papers listed below in the main body of your paper

In addition to the list printed below, the program has created the file data/geom_opt_P_BP86/70575/70575.bibtex that contains the list in bibtex format
You can import this file easily into all common literature databanks and citation aid programs


List of essential papers. We consider these as the minimum necessary citations

  1. Neese,F.
     Software update: the ORCA program system, version 5.0
     WIRES Comput. Molec. Sci., 2022 12(1)e1606
     doi.org/10.1002/wcms.1606

List of papers to cite with high priority. The work reported in these papers was absolutely
necessary for this run to complete.
Our perspective: the developers of density functionals and basis sets usually get cited in chemistry papers
Good! But without the algorithms to do something with them, the functionals or basis sets would not do anything.
Hence, in our opinion, the algorithm design and method developments papers are equally worthy of getting cited

  1. Neese,F.
     An improvement of the resolution of the identity approximation for the formation of the Coulomb matrix
     J. Comp. Chem., 2003 24(14)1740-1747
     doi.org/10.1002/jcc.10318
  2. Neese,F.
     The SHARK Integral Generation and Digestion System
     J. Comp. Chem., 2022  1-16
     doi.org/10.1002/jcc.26942
  3. Grimme,S.; Antony,J.; Ehrlich,S.; Krieg,H.
     A consistent and accurate ab initio parametrization of density functional dispersion correction (DFT-D) for the 94 elements H-Pu
     J. Chem. Phys., 2010 132 154104-XXXX
     doi.org/10.1063/1.3382344
  4. Grimme,S.; Ehrlich,S.; Goerigk,L.
     Effect of the damping function in dispersion corrected density functional theory
     J. Comput. Chem., 2011 32(7)1456-1465
     doi.org/10.1002/jcc.21759

List of suggested additional citations. These are papers that are important in the 'surrounding' of 
of this run, or papers that preceded the highly important papers. If you like your results we are grateful for a citation.

  1. Neese,F.
     The ORCA program system
     WIRES Comput. Molec. Sci., 2012 2(1)73-78
     doi.org/10.1002/wcms.81
  2. Neese,F.
     Software update: the ORCA program system, version 4.0
     WIRES Comput. Molec. Sci., 2018 8(1)1-6
     doi.org/10.1002/wcms.1327
  3. Neese,F.; Wennmohs,F.; Becker,U.; Riplinger,C.
     The ORCA quantum chemistry program package
     J. Chem. Phys., 2020 152 Art. No. L224108
     doi.org/10.1063/5.0004608

List of optional additional citations

  1. Neese,F.
     Approximate second-order SCF convergence for spin unrestricted wavefunctions
     Chem. Phys. Lett., 2000 325(1-3)93-98
     doi.org/10.1016/s0009-2614(00)00662-x

Timings for individual modules:

Sum of individual times          ...      128.460 sec (=   2.141 min)
Startup calculation              ...       11.308 sec (=   0.188 min)   8.8 %
SCF iterations                   ...       76.980 sec (=   1.283 min)  59.9 %
Property calculations            ...        0.182 sec (=   0.003 min)   0.1 %
SCF Gradient evaluation          ...       39.856 sec (=   0.664 min)  31.0 %
Geometry relaxation              ...        0.134 sec (=   0.002 min)   0.1 %
                             ****ORCA TERMINATED NORMALLY****
TOTAL RUN TIME: 0 days 0 hours 2 minutes 10 seconds 18 msec
