
                                 *****************
                                 * O   R   C   A *
                                 *****************

                                            #,                                       
                                            ###                                      
                                            ####                                     
                                            #####                                    
                                            ######                                   
                                           ########,                                 
                                     ,,################,,,,,                         
                               ,,#################################,,                 
                          ,,##########################################,,             
                       ,#########################################, ''#####,          
                    ,#############################################,,   '####,        
                  ,##################################################,,,,####,       
                ,###########''''           ''''###############################       
              ,#####''   ,,,,##########,,,,          '''####'''          '####       
            ,##' ,,,,###########################,,,                        '##       
           ' ,,###''''                  '''############,,,                           
         ,,##''                                '''############,,,,        ,,,,,,###''
      ,#''                                            '''#######################'''  
     '                                                          ''''####''''         
             ,#######,   #######,   ,#######,      ##                                
            ,#'     '#,  ##    ##  ,#'     '#,    #''#        ,####,   ,####,        
            ##       ##  ##   ,#'  ##            #'  '#       #'       #'  '#        
            ##       ##  #######   ##           ,######,      #####,   #    #        
            '#,     ,#'  ##    ##  '#,     ,#' ,#      #,     #,   #   #,  ,#        
             '#######'   ##     ##  '#######'  #'      '#     '####' # '####'        



                #########################################################
                #                        -***-                          #
                #          Department of theory and spectroscopy        #
                #                                                       #
                #                      Frank Neese                      #
                #                                                       #
                #     Directorship, Architecture, Infrastructure        #
                #                    SHARK, DRIVERS                     #
                #        Core code/Algorithms in most modules           #
                #                                                       #
                #        Max Planck Institute fuer Kohlenforschung      #
                #                Kaiser Wilhelm Platz 1                 #
                #                 D-45470 Muelheim/Ruhr                 #
                #                      Germany                          #
                #                                                       #
                #                  All rights reserved                  #
                #                        -***-                          #
                #########################################################


                         Program Version 6.0.0  -   RELEASE   -


 With contributions from (in alphabetic order):
   Daniel Aravena         : Magnetic Suceptibility
   Michael Atanasov       : Ab Initio Ligand Field Theory (pilot matlab implementation)
   Alexander A. Auer      : GIAO ZORA, VPT2 properties, NMR spectrum
   Ute Becker             : All parallelization in ORCA, NUMFREQ, NUMCALC
   Giovanni Bistoni       : ED, misc. LED, open-shell LED, HFLD
   Martin Brehm           : Molecular dynamics
   Dmytro Bykov           : pre 5.0 version of the SCF Hessian
   Marcos Casanova-Páez   : Triplet and SCS-CIS(D). UHF-(DLPNO)-IP/EA/STEOM-CCSD. UHF-CVS-IP/STEOM-CCSD
   Vijay G. Chilkuri      : MRCI spin determinant printing, contributions to CSF-ICE
   Pauline Colinet        : FMM embedding
   Dipayan Datta          : RHF DLPNO-CCSD density
   Achintya Kumar Dutta   : EOM-CC, STEOM-CC
   Nicolas Foglia         : Exact transition moments, OPA infrastructure, MCD improvements
   Dmitry Ganyushin       : Spin-Orbit,Spin-Spin,Magnetic field MRCI
   Miquel Garcia          : C-PCM and meta-GGA Hessian, CCSD/C-PCM, Gaussian charge scheme
   Tiago L. C. Gouveia    : GS-ROHF, GS-ROCIS
   Yang Guo               : DLPNO-NEVPT2, F12-NEVPT2, CIM, IAO-localization
   Andreas Hansen         : Spin unrestricted coupled pair/coupled cluster methods
   Ingolf Harden          : AUTO-CI MPn and infrastructure 
   Benjamin Helmich-Paris : MC-RPA, TRAH-(SCF,CASSCF), AVAS, COSX integrals, SCF dyn. polar.
   Lee Huntington         : MR-EOM, pCC
   Robert Izsak           : Overlap fitted RIJCOSX, COSX-SCS-MP3, EOM
   Riya Kayal             : Wick's Theorem for AUTO-CI, AUTO-CI UHF-CCSDT
   Emily Kempfer          : AUTO-CI, RHF CISDT and CCSDT
   Christian Kollmar      : KDIIS, OOCD, Brueckner-CCSD(T), CCSD density, CASPT2, CASPT2-K, improved NEVPT2
   Axel Koslowski         : Symmetry handling
   Simone Kossmann        : Meta GGA functionals, TD-DFT gradient, OOMP2, (MP2 Hessian; deprecated post 5.0)
   Lucas Lang             : DCDCAS
   Marvin Lechner         : AUTO-CI (C++ implementation), FIC-MRCC
   Spencer Leger          : CASSCF response
   Dagmar Lenk            : GEPOL surface, SMD, ORCA-2-JSON
   Dimitrios Liakos       : Extrapolation schemes; Compound Job, initial MDCI parallelization
   Dimitrios Manganas     : Further ROCIS development; embedding schemes. LFT, Crystal Embedding
   Dimitrios Pantazis     : SARC Basis sets
   Anastasios Papadopoulos: AUTO-CI, single reference methods and gradients
   Taras Petrenko         : pre 6.0 DFT Hessian and TD-DFT gradient, (ASA, deprecated), ECA, 1-Electron XAS/XES, NRVS
   Peter Pinski           : DLPNO-MP2, DLPNO-MP2 Gradient
   Christoph Reimann      : Effective Core Potentials
   Marius Retegan         : Local ZFS, SOC
   Christoph Riplinger    : Optimizer, TS searches, QM/MM, DLPNO-CCSD(T), (RO)-DLPNO pert. Triples
   Michael Roemelt        : Original ROCIS implementation
   Masaaki Saitow         : Open-shell DLPNO-CCSD energy and density
   Barbara Sandhoefer     : DKH picture change effects
   Kantharuban Sivalingam : CASSCF convergence/infrastructure, NEVPT2 and variants, FIC-MRCI
   Bernardo de Souza      : ESD, SOC TD-DFT
   Georgi Stoychev        : AutoAux, RI-MP2 NMR, DLPNO-MP2 response, X2C
   Van Anh Tran           : RI-MP2 g-tensors
   Willem Van den Heuvel  : Paramagnetic NMR
   Zikuan Wang            : NOTCH, Electric field optimization 
   Frank Wennmohs         : Technical directorship and infrastructure
   Hang Xu                : AUTO-CI-Response properties 


 We gratefully acknowledge several colleagues who have allowed us to
 interface, adapt or use parts of their codes:
   Stefan Grimme, W. Hujo, H. Kruse, P. Pracht,  : VdW corrections, initial TS optimization,
                  C. Bannwarth, S. Ehlert,         DFT functionals, gCP, sTDA/sTD-DF
                  L. Wittmann, M. Mueller
   Ed Valeev, F. Pavosevic, A. Kumar             : LibInt (2-el integral package), F12 methods
   Garnet Chan, S. Sharma, J. Yang, R. Olivares  : DMRG
   Ulf Ekstrom                                   : XCFun DFT Library
   Mihaly Kallay                                 : mrcc  (arbitrary order and MRCC methods)
   Frank Weinhold                                : gennbo (NPA and NBO analysis)
   Simon Mueller                                 : openCOSMO-RS
   Christopher J. Cramer and Donald G. Truhlar   : smd solvation model
   Lars Goerigk                                  : TD-DFT with DH, B97 family of functionals
   V. Asgeirsson, H. Jonsson                     : NEB implementation
   FAccTs GmbH                                   : IRC, NEB, NEB-TS, DLPNO-Multilevel, CI-OPT
                                                   MM, QMMM, 2- and 3-layer-ONIOM, Crystal-QMMM,
                                                   LR-CPCM, SF, NACMEs, symmetry and pop. for TD-DFT,
                                                   nearIR, NL-DFT gradient (VV10), updates on ESD,
                                                   ML-optimized integration grids, MBIS, APM,
                                                   GOAT, DOCKER, SOLVATOR, interface openCOSMO-RS
   S Lehtola, MJT Oliveira, MAL Marques          : LibXC Library
   Liviu Ungur et al                             : ANISO software


 Your calculation uses the libint2 library for the computation of 2-el integrals
 For citations please refer to: http://libint.valeyev.net

 Your ORCA version has been built with support for libXC version: 6.2.2
 For citations please refer to: https://libxc.gitlab.io

 This ORCA versions uses:
   CBLAS   interface :  Fast vector & matrix operations
   LAPACKE interface :  Fast linear algebra routines
   Shared memory     :  Shared parallel matrices


Your calculation utilizes the atom-pairwise dispersion correction
with the Becke-Johnson damping scheme (D3BJ)


Warning: RI is on but no J-basis has been assigned. Assigning Def2/J (nothing to worry about!)
================================================================================

----- Orbital basis set information -----
Your calculation utilizes the basis: def2-SVP
   F. Weigend and R. Ahlrichs, Phys. Chem. Chem. Phys. 7, 3297 (2005).

----- AuxJ basis set information -----
Your calculation utilizes the auxiliary basis: def2/J
   F. Weigend, Phys. Chem. Chem. Phys. 8, 1057 (2006).

================================================================================
                                        WARNINGS
                       Please study these warnings very carefully!
================================================================================


WARNING: Geometry Optimization
  ===> : Switching off AutoStart
         For restart on a previous wavefunction, please use MOREAD

================================================================================
                                       INPUT FILE
================================================================================
NAME = data/geom_opt_PO_BP86/27365/27365.inp
|  1> ! RI BP86 def2-SVP D3BJ TIGHTSCF Opt
|  2> %pal
|  3> nprocs 6
|  4> end
|  5> 
|  6> * xyz 0 1
|  7> C      2.574068    0.169305    0.861759
|  8> C      1.588629    0.561238   -0.221990
|  9> P     -0.114653    0.125141    0.139642
| 10> O     -0.583761    0.637165    1.471393
| 11> C     -0.194830   -1.663032    0.004962
| 12> C     -1.551889   -2.251246    0.339036
| 13> C     -1.078120    0.757232   -1.236703
| 14> C     -1.193320    2.268741   -1.272478
| 15> H      2.301930    0.630156    1.816102
| 16> H      3.585347    0.492037    0.596966
| 17> H      2.586545   -0.914555    1.006045
| 18> H      1.647293    1.644849   -0.366933
| 19> H      1.882963    0.095375   -1.168538
| 20> H      0.546461   -2.096865    0.683888
| 21> H      0.090415   -1.957499   -1.010685
| 22> H     -2.318023   -1.883445   -0.349068
| 23> H     -1.853571   -1.974310    1.353682
| 24> H     -1.525092   -3.342870    0.271244
| 25> H     -0.636317    0.402734   -2.174122
| 26> H     -2.086626    0.335086   -1.178628
| 27> H     -1.639259    2.644013   -0.346453
| 28> H     -1.818526    2.586991   -2.111996
| 29> H     -0.209664    2.733758   -1.381604
| 30> **                         ****END OF INPUT****
================================================================================

                       *****************************
                       * Geometry Optimization Run *
                       *****************************

Geometry optimization settings:
Update method            Update   .... BFGS
Choice of coordinates    CoordSys .... (2022) Redundant Internals
Initial Hessian          InHess   .... Almloef's Model
Max. no of cycles        MaxIter  .... 69

Convergence Tolerances:
Energy Change            TolE     ....  5.0000e-06 Eh
Max. Gradient            TolMAXG  ....  3.0000e-04 Eh/bohr
RMS Gradient             TolRMSG  ....  1.0000e-04 Eh/bohr
Max. Displacement        TolMAXD  ....  4.0000e-03 bohr
RMS Displacement         TolRMSD  ....  2.0000e-03 bohr
Strict Convergence                .... False

------------------------------------------------------------------------------
                        ORCA OPTIMIZATION COORDINATE SETUP
------------------------------------------------------------------------------

The optimization will be done in redundant internal coordinates (2022)
Making redundant internal coordinates   ...  (2022 redundants) done
Evaluating the initial hessian          ...  (Almloef) done
Evaluating the coordinates              ...  done
Calculating the B-matrix                .... done
Calculating the G-matrix                .... done
Diagonalizing the G-matrix              .... done
Small eigenvalue found = 1.683e-02
Small eigenvalue found = 2.113e-02
The first mode is                       ....   37
The number of degrees of freedom        ....   63

    -----------------------------------------------------------------
                    Redundant Internal Coordinates


    -----------------------------------------------------------------
         Definition                    Initial Value    Approx d2E/dq
    -----------------------------------------------------------------
      1. B(C   1,C   0)                  1.5163         0.392835   
      2. B(P   2,C   1)                  1.7950         0.474280   
      3. B(O   3,P   2)                  1.5019         1.246790   
      4. B(C   4,P   2)                  1.7950         0.474279   
      5. B(C   5,C   4)                  1.5163         0.392836   
      6. B(C   6,P   2)                  1.7950         0.474278   
      7. B(C   7,C   6)                  1.5163         0.392836   
      8. B(H   8,C   0)                  1.0942         0.354622   
      9. B(H   9,C   0)                  1.0941         0.354775   
     10. B(H  10,C   0)                  1.0935         0.355509   
     11. B(H  11,C   1)                  1.0948         0.353761   
     12. B(H  12,C   1)                  1.0953         0.353197   
     13. B(H  13,C   4)                  1.0948         0.353760   
     14. B(H  14,C   4)                  1.0953         0.353197   
     15. B(H  15,C   5)                  1.0935         0.355509   
     16. B(H  16,C   5)                  1.0942         0.354623   
     17. B(H  17,C   5)                  1.0941         0.354775   
     18. B(H  18,C   6)                  1.0953         0.353197   
     19. B(H  19,C   6)                  1.0948         0.353760   
     20. B(H  20,C   7)                  1.0942         0.354623   
     21. B(H  21,C   7)                  1.0941         0.354776   
     22. B(H  22,C   7)                  1.0935         0.355508   
     23. A(C   1,C   0,H  10)          110.9727         0.326321   
     24. A(C   1,C   0,H   8)          110.6637         0.326187   
     25. A(H   8,C   0,H   9)          108.4666         0.289463   
     26. A(C   1,C   0,H   9)          110.5784         0.326210   
     27. A(H   9,C   0,H  10)          108.2870         0.289577   
     28. A(H   8,C   0,H  10)          107.7718         0.289557   
     29. A(C   0,C   1,P   2)          114.1977         0.406779   
     30. A(H  11,C   1,H  12)          106.9879         0.289151   
     31. A(P   2,C   1,H  12)          109.0122         0.357306   
     32. A(C   0,C   1,H  11)          108.3986         0.326057   
     33. A(P   2,C   1,H  11)          108.5403         0.357403   
     34. A(C   0,C   1,H  12)          109.4564         0.325971   
     35. A(O   3,P   2,C   6)          113.0905         0.533751   
     36. A(C   1,P   2,C   6)          105.6217         0.448799   
     37. A(C   1,P   2,C   4)          105.6218         0.448799   
     38. A(O   3,P   2,C   4)          113.0906         0.533751   
     39. A(C   1,P   2,O   3)          113.0906         0.533751   
     40. A(C   4,P   2,C   6)          105.6218         0.448798   
     41. A(H  13,C   4,H  14)          106.9878         0.289151   
     42. A(C   5,C   4,H  14)          109.4564         0.325971   
     43. A(P   2,C   4,H  14)          109.0122         0.357306   
     44. A(C   5,C   4,H  13)          108.3987         0.326057   
     45. A(P   2,C   4,C   5)          114.1977         0.406779   
     46. A(P   2,C   4,H  13)          108.5403         0.357403   
     47. A(H  15,C   5,H  17)          108.2869         0.289577   
     48. A(C   4,C   5,H  17)          110.5784         0.326211   
     49. A(H  15,C   5,H  16)          107.7719         0.289557   
     50. A(C   4,C   5,H  16)          110.6637         0.326188   
     51. A(C   4,C   5,H  15)          110.9727         0.326322   
     52. A(H  16,C   5,H  17)          108.4666         0.289463   
     53. A(H  18,C   6,H  19)          106.9879         0.289151   
     54. A(P   2,C   6,C   7)          114.1977         0.406779   
     55. A(C   7,C   6,H  19)          108.3986         0.326057   
     56. A(P   2,C   6,H  19)          108.5403         0.357402   
     57. A(C   7,C   6,H  18)          109.4564         0.325971   
     58. A(P   2,C   6,H  18)          109.0122         0.357306   
     59. A(H  21,C   7,H  22)          108.2869         0.289577   
     60. A(H  20,C   7,H  22)          107.7719         0.289557   
     61. A(C   6,C   7,H  22)          110.9727         0.326321   
     62. A(H  20,C   7,H  21)          108.4667         0.289463   
     63. A(C   6,C   7,H  21)          110.5784         0.326211   
     64. A(C   6,C   7,H  20)          110.6637         0.326188   
     65. D(P   2,C   1,C   0,H   9)   -178.0715         0.012261   
     66. D(P   2,C   1,C   0,H   8)    -57.8595         0.012261   
     67. D(H  11,C   1,C   0,H  10)   -177.1393         0.012261   
     68. D(H  11,C   1,C   0,H   9)    -56.9501         0.012261   
     69. D(H  11,C   1,C   0,H   8)     63.2619         0.012261   
     70. D(P   2,C   1,C   0,H  10)     61.7393         0.012261   
     71. D(O   3,P   2,C   1,C   0)     53.1340         0.004822   
     72. D(C   4,P   2,C   1,C   0)    -71.0538         0.004822   
     73. D(C   4,P   2,C   1,H  12)     51.7035         0.004822   
     74. D(C   4,P   2,C   1,H  11)    167.9034         0.004822   
     75. D(O   3,P   2,C   1,H  11)    -67.9089         0.004822   
     76. D(O   3,P   2,C   1,H  12)    175.8913         0.004822   
     77. D(C   5,C   4,P   2,O   3)     53.1338         0.004822   
     78. D(C   5,C   4,P   2,C   6)    -71.0538         0.004822   
     79. D(C   5,C   4,P   2,C   1)    177.3216         0.004822   
     80. D(H  13,C   4,P   2,C   6)    167.9032         0.004822   
     81. D(H  13,C   4,P   2,O   3)    -67.9091         0.004822   
     82. D(H  13,C   4,P   2,C   1)     56.2786         0.004822   
     83. D(H  16,C   5,C   4,H  14)    179.6252         0.012261   
     84. D(H  16,C   5,C   4,H  13)     63.2619         0.012261   
     85. D(H  16,C   5,C   4,P   2)    -57.8595         0.012261   
     86. D(H  15,C   5,C   4,H  14)    -60.7759         0.012261   
     87. D(H  15,C   5,C   4,H  13)   -177.1392         0.012261   
     88. D(H  15,C   5,C   4,P   2)     61.7394         0.012261   
     89. D(H  18,C   6,P   2,C   4)    -59.9209         0.004822   
     90. D(H  18,C   6,P   2,O   3)    175.8914         0.004822   
     91. D(H  18,C   6,P   2,C   1)     51.7038         0.004822   
     92. D(C   7,C   6,P   2,C   4)    177.3218         0.004822   
     93. D(C   7,C   6,P   2,O   3)     53.1341         0.004822   
     94. D(C   7,C   6,P   2,C   1)    -71.0536         0.004822   
     95. D(H  20,C   7,C   6,P   2)    -57.8594         0.012261   
     96. D(H  21,C   7,C   6,H  19)    -56.9501         0.012261   
     97. D(H  21,C   7,C   6,H  18)     59.4132         0.012261   
     98. D(H  21,C   7,C   6,P   2)   -178.0715         0.012261   
     99. D(H  20,C   7,C   6,H  19)     63.2619         0.012261   
    100. D(H  20,C   7,C   6,H  18)    179.6253         0.012261   
    -----------------------------------------------------------------

Number of atoms                         .... 23
Number of degrees of freedom            .... 100


         *************************************************************
         *                GEOMETRY OPTIMIZATION CYCLE   1            *
         *************************************************************
---------------------------------
CARTESIAN COORDINATES (ANGSTROEM)
---------------------------------
  C      2.574068    0.169305    0.861759
  C      1.588629    0.561238   -0.221990
  P     -0.114653    0.125141    0.139642
  O     -0.583761    0.637165    1.471393
  C     -0.194830   -1.663032    0.004962
  C     -1.551889   -2.251246    0.339036
  C     -1.078120    0.757232   -1.236703
  C     -1.193320    2.268741   -1.272478
  H      2.301930    0.630156    1.816102
  H      3.585347    0.492037    0.596966
  H      2.586545   -0.914555    1.006045
  H      1.647293    1.644849   -0.366933
  H      1.882963    0.095375   -1.168538
  H      0.546461   -2.096865    0.683888
  H      0.090415   -1.957499   -1.010685
  H     -2.318023   -1.883445   -0.349068
  H     -1.853571   -1.974310    1.353682
  H     -1.525092   -3.342870    0.271244
  H     -0.636317    0.402734   -2.174122
  H     -2.086626    0.335086   -1.178628
  H     -1.639259    2.644013   -0.346453
  H     -1.818526    2.586991   -2.111996
  H     -0.209664    2.733758   -1.381604

----------------------------
CARTESIAN COORDINATES (A.U.)
----------------------------
  NO LB      ZA    FRAG     MASS         X           Y           Z
   0 C     6.0000    0    12.011    4.864284    0.319940    1.628489
   1 C     6.0000    0    12.011    3.002074    1.060586   -0.419500
   2 P    15.0000    0    30.974   -0.216663    0.236482    0.263885
   3 O     8.0000    0    15.999   -1.103148    1.204067    2.780530
   4 C     6.0000    0    12.011   -0.368175   -3.142675    0.009377
   5 C     6.0000    0    12.011   -2.932645   -4.254238    0.640685
   6 C     6.0000    0    12.011   -2.037352    1.430961   -2.337030
   7 C     6.0000    0    12.011   -2.255048    4.287299   -2.404635
   8 H     1.0000    0     1.008    4.350017    1.190822    3.431935
   9 H     1.0000    0     1.008    6.775324    0.929815    1.128102
  10 H     1.0000    0     1.008    4.887862   -1.728258    1.901150
  11 H     1.0000    0     1.008    3.112933    3.108314   -0.693403
  12 H     1.0000    0     1.008    3.558284    0.180233   -2.208217
  13 H     1.0000    0     1.008    1.032662   -3.962501    1.292361
  14 H     1.0000    0     1.008    0.170860   -3.699137   -1.909918
  15 H     1.0000    0     1.008   -4.380429   -3.559195   -0.659643
  16 H     1.0000    0     1.008   -3.502742   -3.730905    2.558088
  17 H     1.0000    0     1.008   -2.882006   -6.317109    0.512577
  18 H     1.0000    0     1.008   -1.202465    0.761057   -4.108495
  19 H     1.0000    0     1.008   -3.943152    0.633221   -2.227284
  20 H     1.0000    0     1.008   -3.097751    4.996460   -0.654701
  21 H     1.0000    0     1.008   -3.436516    4.888705   -3.991094
  22 H     1.0000    0     1.008   -0.396208    5.166054   -2.610853

--------------------------------
INTERNAL COORDINATES (ANGSTROEM)
--------------------------------
 C      0   0   0     0.000000000000     0.00000000     0.00000000
 C      1   0   0     1.516315730384     0.00000000     0.00000000
 P      2   1   0     1.795028653910   114.19770370     0.00000000
 O      3   2   1     1.501929298683   113.09056417    53.13400443
 C      3   2   1     1.795029172927   105.62182378   288.94623947
 C      5   3   2     1.516314702413   114.19768692   177.32160090
 C      3   2   1     1.795030153339   105.62174654   177.32160959
 C      7   3   2     1.516314725809   114.19769900   288.94642485
 H      1   2   3     1.094172425577   110.66368537   302.14045617
 H      1   2   3     1.094055068319   110.57836543   181.92848088
 H      1   2   3     1.093492855452   110.97271406    61.73927321
 H      2   1   3     1.094834570822   108.39859181   121.12140502
 H      2   1   3     1.095268896038   109.45636527   237.48472715
 H      5   3   2     1.094835116374   108.54027056    56.27863130
 H      5   3   2     1.095269077772   109.01218102   300.07893002
 H      6   5   3     1.093492568047   110.97273675    61.73938690
 H      6   5   3     1.094171870657   110.66368627   302.14049268
 H      6   5   3     1.094055205119   110.57839829   181.92851060
 H      7   3   2     1.095268507889   109.01215458    51.70378044
 H      7   3   2     1.094835285775   108.54026054   167.90356275
 H      8   7   3     1.094172274521   110.66372022   302.14059675
 H      8   7   3     1.094054878541   110.57838084   181.92850662
 H      8   7   3     1.093493676480   110.97265883    61.73945089

---------------------------
INTERNAL COORDINATES (A.U.)
---------------------------
 C      0   0   0     0.000000000000     0.00000000     0.00000000
 C      1   0   0     2.865421462983     0.00000000     0.00000000
 P      2   1   0     3.392112558431   114.19770370     0.00000000
 O      3   2   1     2.838235047022   113.09056417    53.13400443
 C      3   2   1     3.392113539231   105.62182378   288.94623947
 C      5   3   2     2.865419520398   114.19768692   177.32160090
 C      3   2   1     3.392115391941   105.62174654   177.32160959
 C      7   3   2     2.865419564611   114.19769900   288.94642485
 H      1   2   3     2.067686227630   110.66368537   302.14045617
 H      1   2   3     2.067464454551   110.57836543   181.92848088
 H      1   2   3     2.066402026204   110.97271406    61.73927321
 H      2   1   3     2.068937500802   108.39859181   121.12140502
 H      2   1   3     2.069758256515   109.45636527   237.48472715
 H      5   3   2     2.068938531747   108.54027056    56.27863130
 H      5   3   2     2.069758599941   109.01218102   300.07893002
 H      6   5   3     2.066401483086   110.97273675    61.73938690
 H      6   5   3     2.067685178981   110.66368627   302.14049268
 H      6   5   3     2.067464713067   110.57839829   181.92851060
 H      7   3   2     2.069757523019   109.01215458    51.70378044
 H      7   3   2     2.068938851867   108.54026054   167.90356275
 H      8   7   3     2.067685942174   110.66372022   302.14059675
 H      8   7   3     2.067464095924   110.57838084   181.92850662
 H      8   7   3     2.066403577721   110.97265883    61.73945089

---------------------
BASIS SET INFORMATION
---------------------
There are 4 groups of distinct atoms

 Group   1 Type C   : 7s4p1d contracted to 3s2p1d pattern {511/31/1}
 Group   2 Type P   : 10s7p1d contracted to 4s3p1d pattern {5311/511/1}
 Group   3 Type O   : 7s4p1d contracted to 3s2p1d pattern {511/31/1}
 Group   4 Type H   : 4s1p contracted to 2s1p pattern {31/1}

Atom   0C    basis set group =>   1
Atom   1C    basis set group =>   1
Atom   2P    basis set group =>   2
Atom   3O    basis set group =>   3
Atom   4C    basis set group =>   1
Atom   5C    basis set group =>   1
Atom   6C    basis set group =>   1
Atom   7C    basis set group =>   1
Atom   8H    basis set group =>   4
Atom   9H    basis set group =>   4
Atom  10H    basis set group =>   4
Atom  11H    basis set group =>   4
Atom  12H    basis set group =>   4
Atom  13H    basis set group =>   4
Atom  14H    basis set group =>   4
Atom  15H    basis set group =>   4
Atom  16H    basis set group =>   4
Atom  17H    basis set group =>   4
Atom  18H    basis set group =>   4
Atom  19H    basis set group =>   4
Atom  20H    basis set group =>   4
Atom  21H    basis set group =>   4
Atom  22H    basis set group =>   4
---------------------------------
AUXILIARY/J BASIS SET INFORMATION
---------------------------------
There are 4 groups of distinct atoms

 Group   1 Type C   : 12s5p4d2f1g contracted to 6s4p3d1f1g pattern {711111/2111/211/2/1}
 Group   2 Type P   : 14s5p5d2f1g contracted to 8s4p3d1f1g pattern {71111111/2111/311/2/1}
 Group   3 Type O   : 12s5p4d2f1g contracted to 6s4p3d1f1g pattern {711111/2111/211/2/1}
 Group   4 Type H   : 5s2p1d contracted to 3s1p1d pattern {311/2/1}

Atom   0C    basis set group =>   1
Atom   1C    basis set group =>   1
Atom   2P    basis set group =>   2
Atom   3O    basis set group =>   3
Atom   4C    basis set group =>   1
Atom   5C    basis set group =>   1
Atom   6C    basis set group =>   1
Atom   7C    basis set group =>   1
Atom   8H    basis set group =>   4
Atom   9H    basis set group =>   4
Atom  10H    basis set group =>   4
Atom  11H    basis set group =>   4
Atom  12H    basis set group =>   4
Atom  13H    basis set group =>   4
Atom  14H    basis set group =>   4
Atom  15H    basis set group =>   4
Atom  16H    basis set group =>   4
Atom  17H    basis set group =>   4
Atom  18H    basis set group =>   4
Atom  19H    basis set group =>   4
Atom  20H    basis set group =>   4
Atom  21H    basis set group =>   4
Atom  22H    basis set group =>   4


           ************************************************************
           *        Program running with 6 parallel MPI-processes     *
           *              working on a common directory               *
           ************************************************************
------------------------------------------------------------------------------
                             ORCA STARTUP CALCULATIONS
                           -- RI-GTO INTEGRALS CHOSEN --
------------------------------------------------------------------------------
------------------------------------------------------------------------------
                   ___                                                        
                  /   \      - P O W E R E D   B Y -                         
                 /     \                                                     
                 |  |  |   _    _      __       _____    __    __             
                 |  |  |  | |  | |    /  \     |  _  \  |  |  /  |          
                  \  \/   | |  | |   /    \    | | | |  |  | /  /          
                 / \  \   | |__| |  /  /\  \   | |_| |  |  |/  /          
                |  |  |   |  __  | /  /__\  \  |    /   |      \           
                |  |  |   | |  | | |   __   |  |    \   |  |\   \          
                \     /   | |  | | |  |  |  |  | |\  \  |  | \   \       
                 \___/    |_|  |_| |__|  |__|  |_| \__\ |__|  \__/        
                                                                              
                      - O R C A' S   B I G   F R I E N D -                    
                                      &                                       
                       - I N T E G R A L  F E E D E R -                       
                                                                              
 v1 FN, 2020, v2 2021, v3 2022-2024                                           
------------------------------------------------------------------------------


----------------------
SHARK INTEGRAL PACKAGE
----------------------

Number of atoms                             ...     23
Number of basis functions                   ...    191
Number of shells                            ...     95
Maximum angular momentum                    ...      2
Integral batch strategy                     ... SHARK/LIBINT Hybrid
RI-J (if used) integral strategy            ... SPLIT-RIJ (Revised 2003 algorithm where possible)
Printlevel                                  ...      1
Contraction scheme used                     ... SEGMENTED contraction
Prescreening option                         ... SCHWARTZ
   Thresh                                   ... 2.500e-11
   Tcut                                     ... 2.500e-12
   Tpresel                                  ... 2.500e-12 
Coulomb Range Separation                    ... NOT USED
Exchange Range Separation                   ... NOT USED
Multipole approximations                    ... NOT USED
Finite Nucleus Model                        ... NOT USED
CABS basis                                  ... NOT available
Auxiliary Coulomb fitting basis             ... AVAILABLE
   # of basis functions in Aux-J            ...    559
   # of shells in Aux-J                     ...    197
   Maximum angular momentum in Aux-J        ...      4
Auxiliary J/K fitting basis                 ... NOT available
Auxiliary Correlation fitting basis         ... NOT available
Auxiliary 'external' fitting basis          ... NOT available

Checking pre-screening integrals            ... done (  0.0 sec) Dimension = 95
Check shell pair data                       ... done (  0.0 sec)
Shell pair information
Shell pair cut-off parameter TPreSel        ...   2.5e-12
Total number of shell pairs                 ...      4560
Shell pairs after pre-screening             ...      4244
Total number of primitive shell pairs       ...     15912
Primitive shell pairs kept                  ...     10596
          la=0 lb=0:   1455 shell pairs
          la=1 lb=0:   1627 shell pairs
          la=1 lb=1:    476 shell pairs
          la=2 lb=0:    416 shell pairs
          la=2 lb=1:    235 shell pairs
          la=2 lb=2:     35 shell pairs

Calculating one electron integrals          ... done (  0.0 sec)
Calculating RI/J V-Matrix + Cholesky decomp.... done (  0.0 sec)
Calculating Nuclear repulsion               ... done (  0.0 sec) ENN=    513.209610411256 Eh

Diagonalization of the overlap matrix:
Smallest eigenvalue                        ... 2.120e-03
Time for diagonalization                   ...    0.005 sec
Threshold for overlap eigenvalues          ... 1.000e-07
Number of eigenvalues below threshold      ... 0
Time for construction of square roots      ...    0.004 sec
Total time needed                          ...    0.009 sec

-------------------
DFT GRID GENERATION
-------------------

General Integration Accuracy     IntAcc      ... 4.388
Radial Grid Type                 RadialGrid  ... OptM3 with GC (2021)
Angular Grid (max. ang.)         AngularGrid ... 4 (Lebedev-302)
Angular grid pruning method      GridPruning ... 4 (adaptive)
Weight generation scheme         WeightScheme... mBecke (2022)
Basis function cutoff            BFCut       ... 1.0000e-11
Integration weight cutoff        WCut        ... 1.0000e-14
Partially contracted basis set               ... off
Rotationally invariant grid construction     ... off
Angular grids for H and He will be reduced by one unit

Total number of grid points                  ...    97210
Total number of batches                      ...     1529
Average number of points per batch           ...       63
Average number of grid points per atom       ...     4227
Initializing property integral containers    ... done (  0.0 sec)

SHARK setup successfully completed in   0.6 seconds

Maximum memory used throughout the entire STARTUP-calculation: 27.5 MB


           ************************************************************
           *        Program running with 6 parallel MPI-processes     *
           *              working on a common directory               *
           ************************************************************
-------------------------------------------------------------------------------
                                 ORCA GUESS
                   Start orbitals & Density for SCF / CASSCF
-------------------------------------------------------------------------------

------------
SCF SETTINGS
------------
Hamiltonian:
 Density Functional     Method          .... DFT(GTOs)
 Exchange Functional    Exchange        .... B88
   X-Alpha parameter    XAlpha          ....  0.666667
   Becke's b parameter  XBeta           ....  0.004200
 Correlation Functional Correlation     .... P86
 LDA part of GGA corr.  LDAOpt          .... PW91-LDA
 Gradients option       PostSCFGGA      .... off
   NL short-range parameter             ....  4.400000
 RI-approximation to the Coulomb term is turned on
   Number of AuxJ basis functions       .... 559


General Settings:
 Integral files         IntName         .... data/geom_opt_PO_BP86/27365/27365
 Hartree-Fock type      HFTyp           .... RHF
 Total Charge           Charge          ....    0
 Multiplicity           Mult            ....    1
 Number of Electrons    NEL             ....   74
 Basis Dimension        Dim             ....  191
 Nuclear Repulsion      ENuc            ....    513.2096104113 Eh

Convergence Acceleration:
 AO-DIIS                CNVDIIS         .... on
   Start iteration      DIISMaxIt       ....    12
   Startup error        DIISStart       ....  0.200000
   # of expansion vecs  DIISMaxEq       ....     5
   Bias factor          DIISBfac        ....   1.050
   Max. coefficient     DIISMaxC        ....  10.000
 MO-DIIS                CNVKDIIS        .... off
 Trust-Rad. Augm. Hess. CNVTRAH         .... auto
   Auto Start mean grad. ratio tolernc. ....  1.125000
   Auto Start start iteration           ....    50
   Auto Start num. interpolation iter.  ....    10
   Max. Number of Micro iterations      ....    24
   Max. Number of Macro iterations      .... Maxiter - #DIIS iter
   Number of Davidson start vectors     ....     2
   Converg. threshold    (grad. norm)   ....   1.000e-05
   Grad. Scal. Fac. for Micro threshold ....   0.100
   Minimum threshold for Micro iter.    ....   1.000e-02
   NR start threshold (gradient norm)   ....   1.000e-04
   Initial trust radius                 ....   0.400
   Minimum AH scaling param. (alpha)    ....   1.000
   Maximum AH scaling param. (alpha)    .... 1000.000
   Quad. conv. algorithm                .... NR
   White noise on init. David. guess    .... on
   Maximum white noise                  ....   0.010
   Pseudo random numbers                .... off
   Inactive MOs                         .... canonical
   Orbital update algorithm             .... Taylor
   Preconditioner                       .... Diag
   Full preconditioner red. dimension   ....   250
 SOSCF                  CNVSOSCF        .... on
   Start iteration      SOSCFMaxIt      ....   150
   Startup grad/error   SOSCFStart      ....  0.003300
   Hessian update       SOSCFHessUp     .... L-BFGS
 Level Shifting         CNVShift        .... on
   Level shift para.    LevelShift      ....    0.2500
   Turn off err/grad.   ShiftErr        ....    0.0010
 Zerner damping         CNVZerner       .... off
 Static damping         CNVDamp         .... on
   Fraction old density DampFac         ....    0.7000
   Max. Damping (<1)    DampMax         ....    0.9800
   Min. Damping (>=0)   DampMin         ....    0.0000
   Turn off err/grad.   DampErr         ....    0.1000

SCF Procedure:
 Maximum # iterations   MaxIter         ....   125
 SCF integral mode      SCFMode         .... Direct
   Integral package                     .... SHARK and LIBINT hybrid scheme
 Reset frequency        DirectResetFreq ....    20
 Integral Threshold     Thresh          ....  2.500e-11 Eh
 Primitive CutOff       TCut            ....  2.500e-12 Eh

Convergence Tolerance:
 Convergence Check Mode ConvCheckMode   .... Total+1el-Energy
 Convergence forced     ConvForced      .... 0
 Energy Change          TolE            ....  1.000e-08 Eh
 1-El. energy change                    ....  1.000e-05 Eh
 Orbital Gradient       TolG            ....  1.000e-05
 Orbital Rotation angle TolX            ....  1.000e-05
 DIIS Error             TolErr          ....  5.000e-07

------------------------------
INITIAL GUESS: MODEL POTENTIAL
------------------------------
Loading Hartree-Fock densities                     ... done
Calculating cut-offs                               ... done
Initializing the effective Hamiltonian             ... done
Setting up the integral package (SHARK)            ... done
Starting the Coulomb interaction                   ... done (   0.1 sec)
Making the grid                                    ... done (   0.1 sec)
Mapping shells                                     ... done
Starting the XC term evaluation                    ... done (   0.1 sec)
  promolecular density results
     # of electrons  =     73.995154615
     EX              =    -66.215186382
     EC              =     -2.762067705
     EX+EC           =    -68.977254087
Transforming the Hamiltonian                       ... done (   0.0 sec)
Diagonalizing the Hamiltonian                      ... done (   0.0 sec)
Back transforming the eigenvectors                 ... done (   0.0 sec)
Now organizing SCF variables                       ... done
                      ------------------
                      INITIAL GUESS DONE (   0.2 sec)
                      ------------------
             **** ENERGY FILE WAS UPDATED (data/geom_opt_PO_BP86/27365/27365.en.tmp) ****
Finished Guess after   0.3 sec
Maximum memory used throughout the entire GUESS-calculation: 14.5 MB


           ************************************************************
           *        Program running with 6 parallel MPI-processes     *
           *              working on a common directory               *
           ************************************************************

-------------------------------------------------------------------------------------------
                                      ORCA LEAN-SCF
                              memory conserving SCF solver
-------------------------------------------------------------------------------------------

----------------------------------------D-I-I-S--------------------------------------------
Iteration    Energy (Eh)           Delta-E    RMSDP     MaxDP     DIISErr   Damp  Time(sec)
-------------------------------------------------------------------------------------------
               ***  Starting incremental Fock matrix formation  ***
    1    -653.5989682603914162     0.00e+00  5.60e-03  1.42e-01  3.37e-01  0.700   0.3
    2    -653.7863773418008577    -1.87e-01  3.31e-03  7.54e-02  8.58e-02  0.700   0.3
                               ***Turning on AO-DIIS***
    3    -653.8411822188032829    -5.48e-02  1.00e-03  2.02e-02  2.62e-02  0.700   0.3
    4    -653.8787836919387928    -3.76e-02  1.60e-03  3.77e-02  1.16e-02  0.000   0.3
    5    -653.9648845635123280    -8.61e-02  4.68e-04  9.31e-03  9.55e-03  0.000   0.3
                              *** Initializing SOSCF ***
---------------------------------------S-O-S-C-F--------------------------------------
Iteration    Energy (Eh)           Delta-E    RMSDP     MaxDP     MaxGrad    Time(sec)
--------------------------------------------------------------------------------------
    6    -653.9659277113345297    -1.04e-03  1.65e-04  3.10e-03  2.11e-03     0.3
               *** Restarting incremental Fock matrix formation ***
    7    -653.9659979651836466    -7.03e-05  1.22e-04  1.87e-03  3.11e-04     0.3
    8    -653.9659956506239951     2.31e-06  5.34e-05  1.16e-03  3.79e-04     0.3
    9    -653.9660048257975404    -9.18e-06  6.24e-05  1.61e-03  2.81e-04     0.3
   10    -653.9660025241572612     2.30e-06  3.39e-05  8.31e-04  4.52e-04     0.3
   11    -653.9660060953048060    -3.57e-06  4.29e-06  6.64e-05  1.43e-05     0.3
   12    -653.9660061007997456    -5.49e-09  1.47e-06  1.94e-05  9.40e-06     0.3
                 **** Energy Check signals convergence ****

               *****************************************************
               *                     SUCCESS                       *
               *           SCF CONVERGED AFTER  12 CYCLES          *
               *****************************************************

             **** ENERGY FILE WAS UPDATED (data/geom_opt_PO_BP86/27365/27365.en.tmp) ****

----------------
TOTAL SCF ENERGY
----------------

Total Energy       :       -653.96600610079975 Eh          -17795.31972 eV

Components:
Nuclear Repulsion  :        513.20961041125599 Eh           13965.14347 eV
Electronic Energy  :      -1167.17561651205574 Eh          -31760.46320 eV
One Electron Energy:      -1913.30721054775290 Eh          -52063.73607 eV
Two Electron Energy:        746.13159403569716 Eh           20303.27287 eV

Virial components:
Potential Energy   :      -1303.36139446506013 Eh          -35466.26661 eV
Kinetic Energy     :        649.39538836426038 Eh           17670.94689 eV
Virial Ratio       :          2.00703826639122

DFT components:
N(Alpha)           :       36.999960537661 electrons
N(Beta)            :       36.999960537661 electrons
N(Total)           :       73.999921075321 electrons
E(X)               :      -67.384266129868 Eh       
E(C)               :       -2.762760460790 Eh       
E(XC)              :      -70.147026590659 Eh       

---------------
SCF CONVERGENCE
---------------

  Last Energy change         ...    5.4949e-09  Tolerance :   1.0000e-08
  Last MAX-Density change    ...    1.9370e-05  Tolerance :   1.0000e-07
  Last RMS-Density change    ...    1.4712e-06  Tolerance :   5.0000e-09
  Last DIIS Error            ...    2.1051e-03  Tolerance :   5.0000e-07
  Last Orbital Gradient      ...    9.4020e-06  Tolerance :   1.0000e-05
  Last Orbital Rotation      ...    9.6742e-06  Tolerance :   1.0000e-05


----------------
ORBITAL ENERGIES
----------------

  NO   OCC          E(Eh)            E(eV) 
   0   2.0000     -76.391026     -2078.7055 
   1   2.0000     -18.696794      -508.7656 
   2   2.0000      -9.915726      -269.8206 
   3   2.0000      -9.915722      -269.8205 
   4   2.0000      -9.915681      -269.8194 
   5   2.0000      -9.911604      -269.7085 
   6   2.0000      -9.911603      -269.7084 
   7   2.0000      -9.911599      -269.7083 
   8   2.0000      -6.353732      -172.8938 
   9   2.0000      -4.574649      -124.4825 
  10   2.0000      -4.574648      -124.4825 
  11   2.0000      -4.574537      -124.4795 
  12   2.0000      -0.841676       -22.9032 
  13   2.0000      -0.720084       -19.5945 
  14   2.0000      -0.694266       -18.8919 
  15   2.0000      -0.694264       -18.8919 
  16   2.0000      -0.600065       -16.3286 
  17   2.0000      -0.558529       -15.1984 
  18   2.0000      -0.558527       -15.1983 
  19   2.0000      -0.467284       -12.7154 
  20   2.0000      -0.421028       -11.4568 
  21   2.0000      -0.421024       -11.4566 
  22   2.0000      -0.414426       -11.2771 
  23   2.0000      -0.401735       -10.9318 
  24   2.0000      -0.401733       -10.9317 
  25   2.0000      -0.359482        -9.7820 
  26   2.0000      -0.341225        -9.2852 
  27   2.0000      -0.341223        -9.2851 
  28   2.0000      -0.340792        -9.2734 
  29   2.0000      -0.327585        -8.9140 
  30   2.0000      -0.314808        -8.5664 
  31   2.0000      -0.314805        -8.5663 
  32   2.0000      -0.295872        -8.0511 
  33   2.0000      -0.295871        -8.0511 
  34   2.0000      -0.281470        -7.6592 
  35   2.0000      -0.203533        -5.5384 
  36   2.0000      -0.203530        -5.5383 
  37   0.0000       0.018700         0.5089 
  38   0.0000       0.039292         1.0692 
  39   0.0000       0.039308         1.0696 
  40   0.0000       0.056654         1.5416 
  41   0.0000       0.068546         1.8652 
  42   0.0000       0.079217         2.1556 
  43   0.0000       0.079221         2.1557 
  44   0.0000       0.099163         2.6984 
  45   0.0000       0.099166         2.6985 
  46   0.0000       0.110352         3.0028 
  47   0.0000       0.111382         3.0308 
*Only the first 10 virtual orbitals were printed.

                    ********************************
                    * MULLIKEN POPULATION ANALYSIS *
                    ********************************

-----------------------
MULLIKEN ATOMIC CHARGES
-----------------------
   0 C :   -0.022070
   1 C :   -0.153816
   2 P :    0.398610
   3 O :   -0.471625
   4 C :   -0.153695
   5 C :   -0.022076
   6 C :   -0.153971
   7 C :   -0.022006
   8 H :    0.053001
   9 H :    0.033307
  10 H :    0.026272
  11 H :    0.054998
  12 H :    0.032648
  13 H :    0.054957
  14 H :    0.032647
  15 H :    0.026281
  16 H :    0.052983
  17 H :    0.033305
  18 H :    0.032707
  19 H :    0.055012
  20 H :    0.052972
  21 H :    0.033317
  22 H :    0.026242
Sum of atomic charges:   -0.0000000

--------------------------------
MULLIKEN REDUCED ORBITAL CHARGES
--------------------------------
  0 C s       :     2.995015  s :     2.995015
      pz      :     1.006588  p :     2.999919
      px      :     0.973535
      py      :     1.019796
      dz2     :     0.007124  d :     0.027136
      dxz     :     0.004930
      dyz     :     0.004259
      dx2y2   :     0.008191
      dxy     :     0.002632

  1 C s       :     3.048777  s :     3.048777
      pz      :     1.019940  p :     3.077006
      px      :     1.023709
      py      :     1.033357
      dz2     :     0.007593  d :     0.028034
      dxz     :     0.004841
      dyz     :     0.004680
      dx2y2   :     0.008040
      dxy     :     0.002879

  2 P s       :     5.291445  s :     5.291445
      pz      :     2.877572  p :     8.809468
      px      :     2.967114
      py      :     2.964781
      dz2     :     0.128794  d :     0.500477
      dxz     :     0.121935
      dyz     :     0.097203
      dx2y2   :     0.107536
      dxy     :     0.045009

  3 O s       :     3.819105  s :     3.819105
      pz      :     1.409505  p :     4.640321
      px      :     1.618243
      py      :     1.612572
      dz2     :     0.004138  d :     0.012199
      dxz     :     0.003204
      dyz     :     0.003314
      dx2y2   :     0.000732
      dxy     :     0.000811

  4 C s       :     3.048759  s :     3.048759
      pz      :     0.999496  p :     3.076902
      px      :     1.042148
      py      :     1.035257
      dz2     :     0.005843  d :     0.028034
      dxz     :     0.007331
      dyz     :     0.002719
      dx2y2   :     0.007286
      dxy     :     0.004854

  5 C s       :     2.995063  s :     2.995063
      pz      :     1.044985  p :     2.999878
      px      :     0.965077
      py      :     0.989815
      dz2     :     0.005836  d :     0.027135
      dxz     :     0.007158
      dyz     :     0.002038
      dx2y2   :     0.007911
      dxy     :     0.004192

  6 C s       :     3.048884  s :     3.048884
      pz      :     1.023534  p :     3.077053
      px      :     1.028876
      py      :     1.024643
      dz2     :     0.005103  d :     0.028034
      dxz     :     0.004231
      dyz     :     0.006384
      dx2y2   :     0.005383
      dxy     :     0.006934

  7 C s       :     2.994989  s :     2.994989
      pz      :     1.027815  p :     2.999881
      px      :     1.019845
      py      :     0.952222
      dz2     :     0.004999  d :     0.027136
      dxz     :     0.004860
      dyz     :     0.005305
      dx2y2   :     0.005491
      dxy     :     0.006481

  8 H s       :     0.924085  s :     0.924085
      pz      :     0.010866  p :     0.022914
      px      :     0.005469
      py      :     0.006579

  9 H s       :     0.943890  s :     0.943890
      pz      :     0.005268  p :     0.022803
      px      :     0.011525
      py      :     0.006011

 10 H s       :     0.950564  s :     0.950564
      pz      :     0.005205  p :     0.023165
      px      :     0.005232
      py      :     0.012727

 11 H s       :     0.921750  s :     0.921750
      pz      :     0.005156  p :     0.023252
      px      :     0.005136
      py      :     0.012960

 12 H s       :     0.944375  s :     0.944375
      pz      :     0.010580  p :     0.022977
      px      :     0.005809
      py      :     0.006589

 13 H s       :     0.921790  s :     0.921790
      pz      :     0.008431  p :     0.023253
      px      :     0.008346
      py      :     0.006477

 14 H s       :     0.944372  s :     0.944372
      pz      :     0.011873  p :     0.022981
      px      :     0.005094
      py      :     0.006014

 15 H s       :     0.950553  s :     0.950553
      pz      :     0.008347  p :     0.023166
      px      :     0.008542
      py      :     0.006277

 16 H s       :     0.924102  s :     0.924102
      pz      :     0.012130  p :     0.022915
      px      :     0.004984
      py      :     0.005801

 17 H s       :     0.943891  s :     0.943891
      pz      :     0.005435  p :     0.022804
      px      :     0.004599
      py      :     0.012770

 18 H s       :     0.944314  s :     0.944314
      pz      :     0.011181  p :     0.022979
      px      :     0.006530
      py      :     0.005268

 19 H s       :     0.921737  s :     0.921737
      pz      :     0.005481  p :     0.023252
      px      :     0.011948
      py      :     0.005823

 20 H s       :     0.924114  s :     0.924114
      pz      :     0.011347  p :     0.022913
      px      :     0.006512
      py      :     0.005054

 21 H s       :     0.943879  s :     0.943879
      pz      :     0.009748  p :     0.022804
      px      :     0.007905
      py      :     0.005150

 22 H s       :     0.950593  s :     0.950593
      pz      :     0.005801  p :     0.023165
      px      :     0.011377
      py      :     0.005988



                     *******************************
                     * LOEWDIN POPULATION ANALYSIS *
                     *******************************

----------------------
LOEWDIN ATOMIC CHARGES
----------------------
   0 C :   -0.070302
   1 C :   -0.197426
   2 P :    0.846979
   3 O :   -0.507837
   4 C :   -0.197410
   5 C :   -0.070298
   6 C :   -0.197438
   7 C :   -0.070300
   8 H :    0.036164
   9 H :    0.030620
  10 H :    0.023931
  11 H :    0.036362
  12 H :    0.027609
  13 H :    0.036352
  14 H :    0.027602
  15 H :    0.023929
  16 H :    0.036157
  17 H :    0.030622
  18 H :    0.027615
  19 H :    0.036363
  20 H :    0.036158
  21 H :    0.030623
  22 H :    0.023926

-------------------------------
LOEWDIN REDUCED ORBITAL CHARGES
-------------------------------
  0 C s       :     2.835757  s :     2.835757
      pz      :     1.051579  p :     3.163145
      px      :     1.043422
      py      :     1.068145
      dz2     :     0.017521  d :     0.071399
      dxz     :     0.014973
      dyz     :     0.010515
      dx2y2   :     0.021934
      dxy     :     0.006456

  1 C s       :     2.884944  s :     2.884944
      pz      :     1.065233  p :     3.240093
      px      :     1.092725
      py      :     1.082134
      dz2     :     0.018335  d :     0.072389
      dxz     :     0.013939
      dyz     :     0.011563
      dx2y2   :     0.021690
      dxy     :     0.006863

  2 P s       :     4.928918  s :     4.928918
      pz      :     2.802403  p :     8.523518
      px      :     2.861351
      py      :     2.859765
      dz2     :     0.183694  d :     0.700586
      dxz     :     0.169767
      dyz     :     0.133105
      dx2y2   :     0.158332
      dxy     :     0.055688

  3 O s       :     3.654101  s :     3.654101
      pz      :     1.527258  p :     4.834835
      px      :     1.655532
      py      :     1.652044
      dz2     :     0.006994  d :     0.018901
      dxz     :     0.004816
      dyz     :     0.005139
      dx2y2   :     0.000843
      dxy     :     0.001109

  4 C s       :     2.884946  s :     2.884946
      pz      :     1.072553  p :     3.240074
      px      :     1.062017
      py      :     1.105505
      dz2     :     0.016346  d :     0.072389
      dxz     :     0.017503
      dyz     :     0.006881
      dx2y2   :     0.019476
      dxy     :     0.012183

  5 C s       :     2.835762  s :     2.835762
      pz      :     1.080219  p :     3.163136
      px      :     1.023225
      py      :     1.059692
      dz2     :     0.016030  d :     0.071400
      dxz     :     0.017592
      dyz     :     0.005043
      dx2y2   :     0.020893
      dxy     :     0.011842

  6 C s       :     2.884947  s :     2.884947
      pz      :     1.092469  p :     3.240101
      px      :     1.090467
      py      :     1.057165
      dz2     :     0.014365  d :     0.072389
      dxz     :     0.012292
      dyz     :     0.014097
      dx2y2   :     0.015962
      dxy     :     0.015674

  7 C s       :     2.835757  s :     2.835757
      pz      :     1.079826  p :     3.163144
      px      :     1.071245
      py      :     1.012072
      dz2     :     0.013863  d :     0.071400
      dxz     :     0.013373
      dyz     :     0.012222
      dx2y2   :     0.016699
      dxy     :     0.015243

  8 H s       :     0.896525  s :     0.896525
      pz      :     0.034771  p :     0.067311
      px      :     0.014828
      py      :     0.017712

  9 H s       :     0.903266  s :     0.903266
      pz      :     0.014951  p :     0.066114
      px      :     0.035818
      py      :     0.015346

 10 H s       :     0.909753  s :     0.909753
      pz      :     0.013946  p :     0.066316
      px      :     0.013099
      py      :     0.039271

 11 H s       :     0.892342  s :     0.892342
      pz      :     0.013971  p :     0.071296
      px      :     0.016271
      py      :     0.041055

 12 H s       :     0.900304  s :     0.900304
      pz      :     0.034172  p :     0.072087
      px      :     0.019640
      py      :     0.018274

 13 H s       :     0.892353  s :     0.892353
      pz      :     0.023943  p :     0.071295
      px      :     0.026210
      py      :     0.021143

 14 H s       :     0.900310  s :     0.900310
      pz      :     0.036366  p :     0.072088
      px      :     0.015727
      py      :     0.019994

 15 H s       :     0.909755  s :     0.909755
      pz      :     0.023719  p :     0.066316
      px      :     0.026391
      py      :     0.016206

 16 H s       :     0.896532  s :     0.896532
      pz      :     0.037631  p :     0.067312
      px      :     0.014721
      py      :     0.014960

 17 H s       :     0.903264  s :     0.903264
      pz      :     0.013543  p :     0.066114
      px      :     0.013110
      py      :     0.039461

 18 H s       :     0.900297  s :     0.900297
      pz      :     0.037130  p :     0.072088
      px      :     0.018196
      py      :     0.016762

 19 H s       :     0.892341  s :     0.892341
      pz      :     0.014789  p :     0.071296
      px      :     0.038495
      py      :     0.018013

 20 H s       :     0.896531  s :     0.896531
      pz      :     0.034362  p :     0.067311
      px      :     0.017223
      py      :     0.015726

 21 H s       :     0.903263  s :     0.903263
      pz      :     0.028813  p :     0.066115
      px      :     0.021771
      py      :     0.015531

 22 H s       :     0.909759  s :     0.909759
      pz      :     0.013566  p :     0.066315
      px      :     0.034678
      py      :     0.018071



                      *****************************
                      * MAYER POPULATION ANALYSIS *
                      *****************************

  NA   - Mulliken gross atomic population
  ZA   - Total nuclear charge
  QA   - Mulliken gross atomic charge
  VA   - Mayer's total valence
  BVA  - Mayer's bonded valence
  FA   - Mayer's free valence

  ATOM       NA         ZA         QA         VA         BVA        FA
  0 C      6.0221     6.0000    -0.0221     4.0187     4.0187    -0.0000
  1 C      6.1538     6.0000    -0.1538     3.9433     3.9433    -0.0000
  2 P     14.6014    15.0000     0.3986     4.9605     4.9605    -0.0000
  3 O      8.4716     8.0000    -0.4716     2.1146     2.1146    -0.0000
  4 C      6.1537     6.0000    -0.1537     3.9432     3.9432    -0.0000
  5 C      6.0221     6.0000    -0.0221     4.0186     4.0186    -0.0000
  6 C      6.1540     6.0000    -0.1540     3.9433     3.9433    -0.0000
  7 C      6.0220     6.0000    -0.0220     4.0187     4.0187    -0.0000
  8 H      0.9470     1.0000     0.0530     1.0063     1.0063    -0.0000
  9 H      0.9667     1.0000     0.0333     0.9834     0.9834    -0.0000
 10 H      0.9737     1.0000     0.0263     0.9974     0.9974    -0.0000
 11 H      0.9450     1.0000     0.0550     0.9936     0.9936    -0.0000
 12 H      0.9674     1.0000     0.0326     0.9815     0.9815     0.0000
 13 H      0.9450     1.0000     0.0550     0.9936     0.9936    -0.0000
 14 H      0.9674     1.0000     0.0326     0.9815     0.9815    -0.0000
 15 H      0.9737     1.0000     0.0263     0.9974     0.9974    -0.0000
 16 H      0.9470     1.0000     0.0530     1.0063     1.0063    -0.0000
 17 H      0.9667     1.0000     0.0333     0.9834     0.9834    -0.0000
 18 H      0.9673     1.0000     0.0327     0.9815     0.9815    -0.0000
 19 H      0.9450     1.0000     0.0550     0.9936     0.9936    -0.0000
 20 H      0.9470     1.0000     0.0530     1.0063     1.0063    -0.0000
 21 H      0.9667     1.0000     0.0333     0.9834     0.9834    -0.0000
 22 H      0.9738     1.0000     0.0262     0.9974     0.9974    -0.0000

  Mayer bond orders larger than 0.100000
B(  0-C ,  1-C ) :   1.0974 B(  0-C ,  8-H ) :   0.9606 B(  0-C ,  9-H ) :   0.9598 
B(  0-C , 10-H ) :   0.9670 B(  1-C ,  2-P ) :   0.9404 B(  1-C , 11-H ) :   0.9238 
B(  1-C , 12-H ) :   0.9136 B(  2-P ,  3-O ) :   1.9148 B(  2-P ,  4-C ) :   0.9405 
B(  2-P ,  6-C ) :   0.9404 B(  4-C ,  5-C ) :   1.0972 B(  4-C , 13-H ) :   0.9238 
B(  4-C , 14-H ) :   0.9136 B(  5-C , 15-H ) :   0.9670 B(  5-C , 16-H ) :   0.9606 
B(  5-C , 17-H ) :   0.9598 B(  6-C ,  7-C ) :   1.0973 B(  6-C , 18-H ) :   0.9136 
B(  6-C , 19-H ) :   0.9238 B(  7-C , 20-H ) :   0.9606 B(  7-C , 21-H ) :   0.9598 
B(  7-C , 22-H ) :   0.9670 

-------
TIMINGS
-------

Total SCF time: 0 days 0 hours 0 min 3 sec 

Total time                  ....       3.685 sec
Sum of individual times     ....       3.644 sec  ( 98.9%)

SCF preparation             ....       0.086 sec  (  2.3%)
Fock matrix formation       ....       3.229 sec  ( 87.6%)
  Startup                   ....       0.028 sec  (  0.9% of F)
  Split-RI-J                ....       0.876 sec  ( 27.1% of F)
  XC integration            ....       2.216 sec  ( 68.6% of F)
    Basis function eval.    ....       0.654 sec  ( 29.5% of XC)
    Density eval.           ....       0.475 sec  ( 21.4% of XC)
    XC-Functional eval.     ....       0.083 sec  (  3.7% of XC)
    XC-Potential eval.      ....       0.509 sec  ( 23.0% of XC)
Diagonalization             ....       0.000 sec  (  0.0%)
Density matrix formation    ....       0.055 sec  (  1.5%)
Total Energy calculation    ....       0.026 sec  (  0.7%)
Population analysis         ....       0.032 sec  (  0.9%)
Orbital Transformation      ....       0.023 sec  (  0.6%)
Orbital Orthonormalization  ....       0.000 sec  (  0.0%)
DIIS solution               ....       0.119 sec  (  3.2%)
SOSCF solution              ....       0.074 sec  (  2.0%)
Finished LeanSCF after   3.7 sec

Maximum memory used throughout the entire LEANSCF-calculation: 19.1 MB


-------------------------------------------------------------------------------
                          DFT DISPERSION CORRECTION                            
                                                                               
                              DFTD3 V3.1  Rev 1                                
                          USING Becke-Johnson damping                          
-------------------------------------------------------------------------------
The BP86 functional is recognized
Active option DFTDOPT                   ...         4   

molecular C6(AA) [au] = 4563.845169 


            DFT-D V3
 parameters
 s6 scaling factor         :     1.0000 
 a1 scaling factor         :     0.3946 
 s8 scaling factor         :     3.2822 
 a2 scaling factor         :     4.8516 
 ad hoc parameters k1-k3   :    16.0000     1.3333    -4.0000 

 Edisp/kcal,au: -22.955571751538  -0.036582028243 
 E6   /kcal   :  -8.639881004 
 E8   /kcal   : -14.315690748 
 % E8         :  62.362597206 

-------------------------   ----------------
Dispersion correction           -0.036582028
-------------------------   ----------------


-------------------------   --------------------
FINAL SINGLE POINT ENERGY      -654.002588129043
-------------------------   --------------------



           ************************************************************
           *        Program running with 6 parallel MPI-processes     *
           *              working on a common directory               *
           ************************************************************
------------------------------------------------------------------------------
                         ORCA SCF GRADIENT CALCULATION
------------------------------------------------------------------------------

Nuc. rep. gradient        (SHARK) ... done (  0.0 sec)
HCore & Overlap gradient  (SHARK) ... done (  0.1 sec)
Split-RIJ-J gradient      (SHARK) ... done (  0.3 sec)
XC gradient                       ... done (  1.5 sec)
Dispersion correction             ... done (  0.1 sec)

-------------------
DISPERSION GRADIENT
-------------------

   1   C   :    0.000592876    0.000093421    0.000187800
   2   C   :    0.000581811    0.000109532    0.000043766
   3   P   :   -0.000039070    0.000042644    0.000110916
   4   O   :   -0.000217790    0.000237714    0.000618283
   5   C   :   -0.000170256   -0.000567363    0.000039100
   6   C   :   -0.000286326   -0.000546032    0.000123956
   7   C   :   -0.000312633    0.000349858   -0.000363699
   8   C   :   -0.000318911    0.000466104   -0.000276662
   9   H   :    0.000252458    0.000072867    0.000192440
  10   H   :    0.000266357    0.000031674    0.000051500
  11   H   :    0.000321093   -0.000068428    0.000121306
  12   H   :    0.000262267    0.000152133   -0.000016605
  13   H   :    0.000288998    0.000009371   -0.000139551
  14   H   :    0.000011570   -0.000295866    0.000067331
  15   H   :    0.000002663   -0.000296660   -0.000122751
  16   H   :   -0.000241384   -0.000253376   -0.000005718
  17   H   :   -0.000181729   -0.000222711    0.000153140
  18   H   :   -0.000111537   -0.000247971    0.000025903
  19   H   :   -0.000094131    0.000071688   -0.000298467
  20   H   :   -0.000231882    0.000097940   -0.000169832
  21   H   :   -0.000180007    0.000269121   -0.000035350
  22   H   :   -0.000129772    0.000188959   -0.000148509
  23   H   :   -0.000064664    0.000305382   -0.000158298

Difference to translation invariance:
           :    0.0000000000    0.0000000000    0.0000000000

Difference to rotation invariance:
           :   -0.0000000000    0.0000000000    0.0000000000

Norm of the Dispersion gradient    ...    0.0020593688
RMS gradient                       ...    0.0002479189
MAX gradient                       ...    0.0006182831

------------------
CARTESIAN GRADIENT
------------------

   1   C   :    0.002822524    0.000054842   -0.002191079
   2   C   :   -0.014830803   -0.000283861    0.003810196
   3   P   :    0.003306012   -0.003688461   -0.009393258
   4   O   :    0.007105745   -0.007729112   -0.020170212
   5   C   :    0.002428675    0.014526264    0.004038732
   6   C   :    0.000533231   -0.003067659   -0.001772297
   7   C   :    0.005072039   -0.006186276    0.013036188
   8   C   :   -0.000772520    0.000045296   -0.003465754
   9   H   :    0.002629273   -0.003288359   -0.008007635
  10   H   :   -0.008814823   -0.001866167    0.001548947
  11   H   :   -0.002109870    0.009914074   -0.002567572
  12   H   :    0.003242063   -0.010058050    0.003005613
  13   H   :   -0.001568398    0.003198763    0.011285353
  14   H   :   -0.009397468    0.000828469   -0.005613126
  15   H   :   -0.005546814    0.002556077    0.010189773
  16   H   :    0.008629172   -0.001679550    0.005725376
  17   H   :    0.002802529   -0.002818818   -0.008138819
  18   H   :    0.000875977    0.009065793    0.000762609
  19   H   :   -0.003754238    0.006196233    0.009401083
  20   H   :    0.007766333    0.007388256   -0.002131793
  21   H   :    0.003069403   -0.003113459   -0.007907944
  22   H   :    0.004660254   -0.003627302    0.006979069
  23   H   :   -0.008148294   -0.006366992    0.001576546

Difference to translation invariance:
           :   -0.0000000000    0.0000000000   -0.0000000000

Difference to rotation invariance:
           :   -0.0001215413    0.0004441265    0.0008460541

Norm of the Cartesian gradient     ...    0.0545667849
RMS gradient                       ...    0.0065690689
MAX gradient                       ...    0.0201702117

-------
TIMINGS
-------

Total SCF gradient time     ....        1.906 sec

Densities                   ....       0.001 sec  (  0.1%)
One electron gradient       ....       0.081 sec  (  4.2%)
RI-J Coulomb gradient       ....       0.275 sec  ( 14.4%)
XC gradient                 ....       1.484 sec  ( 77.9%)

Maximum memory used throughout the entire SCFGRAD-calculation: 30.4 MB
------------------------------------------------------------------------------
                         ORCA GEOMETRY RELAXATION STEP
------------------------------------------------------------------------------

Reading the OPT-File                    .... done
Getting information on internals        .... done
Copying old internal coords+grads       .... done
Making the new internal coordinates     .... (2022 redundants) done
Validating the new internal coordinates .... (2022 redundants) done
Calculating the B-matrix                .... done
Calculating the G,G- and P matrices     .... done
Transforming gradient to internals      .... done
Projecting the internal gradient        .... done
Number of atoms                         ....  23
Number of internal coordinates          .... 100
Current Energy                          ....  -654.002588129 Eh
Current gradient norm                   ....     0.054566785 Eh/bohr
Maximum allowed component of the step   ....  0.300
Current trust radius                    ....  0.300
Evaluating the initial hessian          ....  (Almloef) done
Projecting the Hessian                  .... done
Forming the augmented Hessian           .... done
Diagonalizing the augmented Hessian     .... done
Last element of RFO vector              ....  0.982659632
Lowest eigenvalues of augmented Hessian:
 -0.009543967  0.004822002  0.004822023  0.004931791  0.012261065
Length of the computed step             ....  0.188690540
The final length of the internal step   ....  0.188690540
Converting the step to Cartesian space:
 Initial RMS(Int)=    0.0188690540
Transforming coordinates:
 Iter   0:  RMS(Cart)=    0.0438489207 RMS(Int)=    0.8870802998
done
Storing new coordinates                 .... done

                                .--------------------.
          ----------------------|Geometry convergence|-------------------------
          Item                value                   Tolerance       Converged
          ---------------------------------------------------------------------
          RMS gradient        0.0063306687            0.0001000000      NO
          MAX gradient        0.0227391211            0.0003000000      NO
          RMS step            0.0188690540            0.0020000000      NO
          MAX step            0.0408372030            0.0040000000      NO
          ........................................................
          Max(Bonds)      0.0216      Max(Angles)    1.01
          Max(Dihed)        1.89      Max(Improp)    0.00
          ---------------------------------------------------------------------

The optimization has not yet converged - more geometry cycles are needed


    ---------------------------------------------------------------------------
                         Redundant Internal Coordinates
                            (Angstroem and degrees)

        Definition                    Value    dE/dq     Step     New-Value
    ----------------------------------------------------------------------------
     1. B(C   1,C   0)                1.5163 -0.012800  0.0168    1.5331   
     2. B(P   2,C   1)                1.7950 -0.019648  0.0215    1.8165   
     3. B(O   3,P   2)                1.5019 -0.022739  0.0096    1.5115   
     4. B(C   4,P   2)                1.7950 -0.019758  0.0216    1.8166   
     5. B(C   5,C   4)                1.5163 -0.012810  0.0168    1.5332   
     6. B(C   6,P   2)                1.7950 -0.019646  0.0215    1.8165   
     7. B(C   7,C   6)                1.5163 -0.012852  0.0169    1.5332   
     8. B(H   8,C   0)                1.0942 -0.009022  0.0131    1.1073   
     9. B(H   9,C   0)                1.0941 -0.009078  0.0132    1.1072   
    10. B(H  10,C   0)                1.0935 -0.010181  0.0148    1.1083   
    11. B(H  11,C   1)                1.0948 -0.010184  0.0148    1.1097   
    12. B(H  12,C   1)                1.0953 -0.011535  0.0168    1.1121   
    13. B(H  13,C   4)                1.0948 -0.010176  0.0148    1.1097   
    14. B(H  14,C   4)                1.0953 -0.011582  0.0169    1.1122   
    15. B(H  15,C   5)                1.0935 -0.010205  0.0148    1.1083   
    16. B(H  16,C   5)                1.0942 -0.009033  0.0131    1.1073   
    17. B(H  17,C   5)                1.0941 -0.009076  0.0132    1.1072   
    18. B(H  18,C   6)                1.0953 -0.011564  0.0169    1.1121   
    19. B(H  19,C   6)                1.0948 -0.010121  0.0147    1.1096   
    20. B(H  20,C   7)                1.0942 -0.009016  0.0131    1.1073   
    21. B(H  21,C   7)                1.0941 -0.009076  0.0132    1.1072   
    22. B(H  22,C   7)                1.0935 -0.010185  0.0148    1.1083   
    23. A(C   1,C   0,H  10)          110.97 -0.003027    0.53    111.51   
    24. A(C   1,C   0,H   8)          110.66  0.000744   -0.12    110.54   
    25. A(H   8,C   0,H   9)          108.47  0.000153   -0.03    108.44   
    26. A(C   1,C   0,H   9)          110.58 -0.000929    0.17    110.75   
    27. A(H   9,C   0,H  10)          108.29  0.002027   -0.37    107.92   
    28. A(H   8,C   0,H  10)          107.77  0.001174   -0.21    107.56   
    29. A(C   0,C   1,P   2)          114.20  0.005445   -0.78    113.42   
    30. A(H  11,C   1,H  12)          106.99  0.000762   -0.19    106.80   
    31. A(P   2,C   1,H  12)          109.01 -0.000143    0.20    109.21   
    32. A(C   0,C   1,H  11)          108.40 -0.004453    0.64    109.04   
    33. A(P   2,C   1,H  11)          108.54  0.001925   -0.86    107.68   
    34. A(C   0,C   1,H  12)          109.46 -0.003755    1.00    110.46   
    35. A(O   3,P   2,C   6)          113.09 -0.000903    0.18    113.27   
    36. A(C   1,P   2,C   6)          105.62  0.000673   -0.25    105.37   
    37. A(C   1,P   2,C   4)          105.62  0.000812   -0.23    105.39   
    38. A(O   3,P   2,C   4)          113.09 -0.000535    0.21    113.30   
    39. A(C   1,P   2,O   3)          113.09 -0.000687    0.20    113.29   
    40. A(C   4,P   2,C   6)          105.62  0.000903   -0.18    105.44   
    41. A(H  13,C   4,H  14)          106.99  0.002305   -0.21    106.77   
    42. A(C   5,C   4,H  14)          109.46 -0.004675    0.97    110.43   
    43. A(P   2,C   4,H  14)          109.01 -0.000930    0.27    109.28   
    44. A(C   5,C   4,H  13)          108.40 -0.004190    0.62    109.01   
    45. A(P   2,C   4,C   5)          114.20  0.004582   -0.75    113.45   
    46. A(P   2,C   4,H  13)          108.54  0.002884   -0.88    107.66   
    47. A(H  15,C   5,H  17)          108.29  0.001690   -0.32    107.97   
    48. A(C   4,C   5,H  17)          110.58 -0.000894    0.16    110.74   
    49. A(H  15,C   5,H  16)          107.77  0.001201   -0.21    107.56   
    50. A(C   4,C   5,H  16)          110.66  0.000875   -0.14    110.53   
    51. A(C   4,C   5,H  15)          110.97 -0.003264    0.57    111.54   
    52. A(H  16,C   5,H  17)          108.47  0.000539   -0.10    108.37   
    53. A(H  18,C   6,H  19)          106.99  0.002142   -0.29    106.70   
    54. A(P   2,C   6,C   7)          114.20  0.004816   -0.74    113.45   
    55. A(C   7,C   6,H  19)          108.40 -0.005418    0.68    109.08   
    56. A(P   2,C   6,H  19)          108.54  0.002659   -0.89    107.65   
    57. A(C   7,C   6,H  18)          109.46 -0.003370    1.01    110.46   
    58. A(P   2,C   6,H  18)          109.01 -0.000902    0.24    109.25   
    59. A(H  21,C   7,H  22)          108.29  0.002320   -0.43    107.86   
    60. A(H  20,C   7,H  22)          107.77  0.000882   -0.15    107.62   
    61. A(C   6,C   7,H  22)          110.97 -0.003019    0.53    111.50   
    62. A(H  20,C   7,H  21)          108.47  0.000133   -0.03    108.44   
    63. A(C   6,C   7,H  21)          110.58 -0.000784    0.14    110.72   
    64. A(C   6,C   7,H  20)          110.66  0.000609   -0.10    110.57   
    65. D(P   2,C   1,C   0,H   9)   -178.07 -0.001701    1.22   -176.85   
    66. D(P   2,C   1,C   0,H   8)    -57.86 -0.001631    1.22    -56.64   
    67. D(H  11,C   1,C   0,H  10)   -177.14  0.001180    0.07   -177.07   
    68. D(H  11,C   1,C   0,H   9)    -56.95  0.001123    0.07    -56.88   
    69. D(H  11,C   1,C   0,H   8)     63.26  0.001193    0.07     63.33   
    70. D(P   2,C   1,C   0,H  10)     61.74 -0.001644    1.22     62.96   
    71. D(O   3,P   2,C   1,C   0)     53.13  0.000216   -1.57     51.57   
    72. D(C   4,P   2,C   1,C   0)    -71.05  0.000746   -1.79    -72.85   
    73. D(C   4,P   2,C   1,H  12)     51.70 -0.000439   -0.89     50.81   
    74. D(C   4,P   2,C   1,H  11)    167.90  0.001446   -1.48    166.43   
    75. D(O   3,P   2,C   1,H  11)    -67.91  0.000916   -1.25    -69.16   
    76. D(O   3,P   2,C   1,H  12)    175.89 -0.000968   -0.66    175.23   
[...]

 20 H s       :     0.916954  s :     0.916954
      pz      :     0.012030  p :     0.022435
      px      :     0.006096
      py      :     0.004309

 21 H s       :     0.939269  s :     0.939269
      pz      :     0.008761  p :     0.022034
      px      :     0.008037
      py      :     0.005237

 22 H s       :     0.943783  s :     0.943783
      pz      :     0.005494  p :     0.022200
      px      :     0.010515
      py      :     0.006191



                     *******************************
                     * LOEWDIN POPULATION ANALYSIS *
                     *******************************

----------------------
LOEWDIN ATOMIC CHARGES
----------------------
   0 C :   -0.080065
   1 C :   -0.201481
   2 P :    0.863429
   3 O :   -0.507068
   4 C :   -0.201596
   5 C :   -0.080061
   6 C :   -0.201520
   7 C :   -0.080076
   8 H :    0.038395
   9 H :    0.031886
  10 H :    0.027206
  11 H :    0.035934
  12 H :    0.029352
  13 H :    0.035916
  14 H :    0.029358
  15 H :    0.027238
  16 H :    0.038379
  17 H :    0.031866
  18 H :    0.029346
  19 H :    0.036044
  20 H :    0.038412
  21 H :    0.031916
  22 H :    0.027192

-------------------------------
LOEWDIN REDUCED ORBITAL CHARGES
-------------------------------
  0 C s       :     2.851517  s :     2.851517
      pz      :     1.041925  p :     3.160907
      px      :     1.048743
      py      :     1.070239
      dz2     :     0.015593  d :     0.067641
      dxz     :     0.015367
      dyz     :     0.011121
      dx2y2   :     0.018991
      dxy     :     0.006571

  1 C s       :     2.906143  s :     2.906143
      pz      :     1.059171  p :     3.227243
      px      :     1.087579
      py      :     1.080493
      dz2     :     0.015948  d :     0.068095
      dxz     :     0.013265
      dyz     :     0.014303
      dx2y2   :     0.019295
      dxy     :     0.005284

  2 P s       :     4.975517  s :     4.975517
      pz      :     2.799165  p :     8.522373
      px      :     2.862386
      py      :     2.860822
      dz2     :     0.170085  d :     0.638681
      dxz     :     0.150695
      dyz     :     0.125986
      dx2y2   :     0.145206
      dxy     :     0.046709

  3 O s       :     3.669824  s :     3.669824
      pz      :     1.514623  p :     4.819034
      px      :     1.653939
      py      :     1.650473
      dz2     :     0.006766  d :     0.018210
      dxz     :     0.004654
      dyz     :     0.004931
      dx2y2   :     0.000802
      dxy     :     0.001058

  4 C s       :     2.906190  s :     2.906190
      pz      :     1.069876  p :     3.227321
      px      :     1.058384
      py      :     1.099061
      dz2     :     0.017149  d :     0.068086
      dxz     :     0.015336
      dyz     :     0.006031
      dx2y2   :     0.018703
      dxy     :     0.010868

  5 C s       :     2.851528  s :     2.851528
      pz      :     1.077004  p :     3.160901
      px      :     1.021222
      py      :     1.062674
      dz2     :     0.014794  d :     0.067632
      dxz     :     0.015746
      dyz     :     0.006466
      dx2y2   :     0.020667
      dxy     :     0.009958

  6 C s       :     2.906133  s :     2.906133
      pz      :     1.085385  p :     3.227278
      px      :     1.088168
      py      :     1.053724
      dz2     :     0.013576  d :     0.068109
      dxz     :     0.012428
      dyz     :     0.012129
      dx2y2   :     0.013361
      dxy     :     0.016615

  7 C s       :     2.851516  s :     2.851516
      pz      :     1.080590  p :     3.160921
      px      :     1.070977
      py      :     1.009354
      dz2     :     0.014558  d :     0.067639
      dxz     :     0.012585
      dyz     :     0.009769
      dx2y2   :     0.014228
      dxy     :     0.016499

  8 H s       :     0.895632  s :     0.895632
      pz      :     0.030925  p :     0.065974
      px      :     0.016995
      py      :     0.018054

  9 H s       :     0.904179  s :     0.904179
      pz      :     0.013111  p :     0.063935
      px      :     0.035671
      py      :     0.015153

 10 H s       :     0.909199  s :     0.909199
      pz      :     0.013603  p :     0.063594
      px      :     0.012253
      py      :     0.037739

 11 H s       :     0.895687  s :     0.895687
      pz      :     0.013854  p :     0.068379
      px      :     0.015241
      py      :     0.039284

 12 H s       :     0.901899  s :     0.901899
      pz      :     0.030647  p :     0.068749
      px      :     0.018691
      py      :     0.019411

 13 H s       :     0.895712  s :     0.895712
      pz      :     0.020214  p :     0.068372
      px      :     0.028003
      py      :     0.020155

 14 H s       :     0.901902  s :     0.901902
      pz      :     0.037298  p :     0.068740
      px      :     0.013085
      py      :     0.018358

 15 H s       :     0.909177  s :     0.909177
      pz      :     0.020967  p :     0.063585
      px      :     0.027756
      py      :     0.014862

 16 H s       :     0.895632  s :     0.895632
      pz      :     0.037280  p :     0.065990
      px      :     0.012321
      py      :     0.016388

 17 H s       :     0.904200  s :     0.904200
      pz      :     0.012789  p :     0.063934
      px      :     0.012127
      py      :     0.039018

 18 H s       :     0.901912  s :     0.901912
      pz      :     0.035920  p :     0.068742
      px      :     0.018655
      py      :     0.014167

 19 H s       :     0.895581  s :     0.895581
      pz      :     0.013949  p :     0.068375
      px      :     0.035833
      py      :     0.018593

 20 H s       :     0.895628  s :     0.895628
      pz      :     0.037143  p :     0.065961
      px      :     0.016137
      py      :     0.012680

 21 H s       :     0.904150  s :     0.904150
      pz      :     0.025799  p :     0.063934
      px      :     0.022495
      py      :     0.015640

 22 H s       :     0.909218  s :     0.909218
      pz      :     0.012678  p :     0.063591
      px      :     0.032203
      py      :     0.018709



                      *****************************
                      * MAYER POPULATION ANALYSIS *
                      *****************************

  NA   - Mulliken gross atomic population
  ZA   - Total nuclear charge
  QA   - Mulliken gross atomic charge
  VA   - Mayer's total valence
  BVA  - Mayer's bonded valence
  FA   - Mayer's free valence

  ATOM       NA         ZA         QA         VA         BVA        FA
  0 C      6.0410     6.0000    -0.0410     4.0026     4.0026    -0.0000
  1 C      6.1771     6.0000    -0.1771     3.9350     3.9350    -0.0000
  2 P     14.5714    15.0000     0.4286     4.8136     4.8136    -0.0000
  3 O      8.4737     8.0000    -0.4737     2.1113     2.1113    -0.0000
  4 C      6.1774     6.0000    -0.1774     3.9351     3.9351    -0.0000
  5 C      6.0409     6.0000    -0.0409     4.0027     4.0027    -0.0000
  6 C      6.1770     6.0000    -0.1770     3.9351     3.9351    -0.0000
  7 C      6.0411     6.0000    -0.0411     4.0026     4.0026    -0.0000
  8 H      0.9394     1.0000     0.0606     1.0109     1.0109    -0.0000
  9 H      0.9613     1.0000     0.0387     0.9821     0.9821    -0.0000
 10 H      0.9660     1.0000     0.0340     0.9923     0.9923    -0.0000
 11 H      0.9433     1.0000     0.0567     0.9892     0.9892    -0.0000
 12 H      0.9568     1.0000     0.0432     0.9802     0.9802    -0.0000
 13 H      0.9434     1.0000     0.0566     0.9892     0.9892    -0.0000
 14 H      0.9568     1.0000     0.0432     0.9803     0.9803    -0.0000
 15 H      0.9660     1.0000     0.0340     0.9921     0.9921    -0.0000
 16 H      0.9394     1.0000     0.0606     1.0110     1.0110    -0.0000
 17 H      0.9614     1.0000     0.0386     0.9822     0.9822    -0.0000
 18 H      0.9568     1.0000     0.0432     0.9802     0.9802     0.0000
 19 H      0.9432     1.0000     0.0568     0.9891     0.9891    -0.0000
 20 H      0.9394     1.0000     0.0606     1.0107     1.0107    -0.0000
 21 H      0.9613     1.0000     0.0387     0.9822     0.9822    -0.0000
 22 H      0.9660     1.0000     0.0340     0.9922     0.9922    -0.0000

  Mayer bond orders larger than 0.100000
B(  0-C ,  1-C ) :   1.0860 B(  0-C ,  8-H ) :   0.9589 B(  0-C ,  9-H ) :   0.9609 
B(  0-C , 10-H ) :   0.9672 B(  1-C ,  2-P ) :   0.9169 B(  1-C , 11-H ) :   0.9290 
B(  1-C , 12-H ) :   0.9209 B(  2-P ,  3-O ) :   1.8634 B(  2-P ,  4-C ) :   0.9169 
B(  2-P ,  6-C ) :   0.9172 B(  4-C ,  5-C ) :   1.0861 B(  4-C , 13-H ) :   0.9290 
B(  4-C , 14-H ) :   0.9210 B(  5-C , 15-H ) :   0.9673 B(  5-C , 16-H ) :   0.9589 
B(  5-C , 17-H ) :   0.9609 B(  6-C ,  7-C ) :   1.0862 B(  6-C , 18-H ) :   0.9209 
B(  6-C , 19-H ) :   0.9290 B(  7-C , 20-H ) :   0.9589 B(  7-C , 21-H ) :   0.9609 
B(  7-C , 22-H ) :   0.9673 

-------
TIMINGS
-------

Total SCF time: 0 days 0 hours 0 min 1 sec 

Total time                  ....       1.743 sec
Sum of individual times     ....       1.697 sec  ( 97.4%)

SCF preparation             ....       0.084 sec  (  4.8%)
Fock matrix formation       ....       1.444 sec  ( 82.8%)
  Startup                   ....       0.015 sec  (  1.0% of F)
  Split-RI-J                ....       0.406 sec  ( 28.1% of F)
  XC integration            ....       0.974 sec  ( 67.5% of F)
    Basis function eval.    ....       0.272 sec  ( 27.9% of XC)
    Density eval.           ....       0.219 sec  ( 22.5% of XC)
    XC-Functional eval.     ....       0.035 sec  (  3.6% of XC)
    XC-Potential eval.      ....       0.211 sec  ( 21.7% of XC)
Diagonalization             ....       0.000 sec  (  0.0%)
Density matrix formation    ....       0.023 sec  (  1.3%)
Total Energy calculation    ....       0.012 sec  (  0.7%)
Population analysis         ....       0.045 sec  (  2.6%)
Orbital Transformation      ....       0.012 sec  (  0.7%)
Orbital Orthonormalization  ....       0.000 sec  (  0.0%)
DIIS solution               ....       0.016 sec  (  0.9%)
SOSCF solution              ....       0.061 sec  (  3.5%)
Finished LeanSCF after   1.8 sec

Maximum memory used throughout the entire LEANSCF-calculation: 19.8 MB


-------------------------------------------------------------------------------
                          DFT DISPERSION CORRECTION                            
                                                                               
                              DFTD3 V3.1  Rev 1                                
                          USING Becke-Johnson damping                          
-------------------------------------------------------------------------------
The BP86 functional is recognized
Active option DFTDOPT                   ...         4   

molecular C6(AA) [au] = 4566.444663 


            DFT-D V3
 parameters
 s6 scaling factor         :     1.0000 
 a1 scaling factor         :     0.3946 
 s8 scaling factor         :     3.2822 
 a2 scaling factor         :     4.8516 
 ad hoc parameters k1-k3   :    16.0000     1.3333    -4.0000 

 Edisp/kcal,au: -22.532708393826  -0.035908152660 
 E6   /kcal   :  -8.476388507 
 E8   /kcal   : -14.056319886 
 % E8         :  62.381847938 

-------------------------   ----------------
Dispersion correction           -0.035908153
-------------------------   ----------------


-------------------------   --------------------
FINAL SINGLE POINT ENERGY      -654.010819751155
-------------------------   --------------------

                                *** OPTIMIZATION RUN DONE ***



           ************************************************************
           *        Program running with 6 parallel MPI-processes     *
           *              working on a common directory               *
           ************************************************************

------------------------------------------------------------------------------
                              ORCA PROPERTY CALCULATIONS
------------------------------------------------------------------------------

GBWName                                 ... data/geom_opt_PO_BP86/27365/27365.gbw
Number of atoms                         ...     23
Number of basis functions               ...    191
Max core memory                         ...   1024 MB

Electric properties:
Dipole moment                           ... YES
Quadrupole moment                       ...  NO
Static polarizability (Dipole/Dipole)   ...  NO
Static polarizability (Dipole/Quad.)    ...  NO
Static polarizability (Quad./Quad.)     ...  NO
Static polarizability (Velocity)        ...  NO

Atomic electric properties:
Dipole moment                           ...  NO
Quadrupole moment                       ...  NO
Static polarizability                   ...  NO

Choice of electric origin               ... Center of mass
Position of electric origin             ...    -0.130291     0.140951     0.015456

General magnetic properties:
Magnetizability                         ...  NO

EPR properties:
g-Tensor (aka g-matrix)                 ...  NO
Zero-Field splitting spin-orbit         ...  NO
Zero-field splitting spin-spin          ...  NO
Hyperfine couplings                     ...  NO (   0 nuclei)
Quadrupole couplings                    ...  NO (   0 nuclei)
Contact density                         ...  NO (   0 nuclei)

NMR properties:
Chemical shifts                         ...  NO (   0 nuclei)
Spin-rotation constants                 ...  NO (   0 nuclei)
Spin-spin couplings                     ...  NO (   0 nuclei,    0 pairs)

Choice of magnetic origin               ... GIAO
Position of magnetic origin             ...     0.000000     0.000000     0.000000

Properties with geometric perturbations:
SCF Hessian                             ...  NO
IR spectrum                             ...  NO
VCD spectrum                            ...  NO
X-ray spectroscopy properties:
SCF XES/XAS/RIXS spectra                ...  NO


-------------
DIPOLE MOMENT
-------------

Method             : SCF
Type of density    : Electron Density
Multiplicity       :   1
Irrep              :   0
Energy             :  -653.9749115984946002 Eh
Relativity type    : 
Basis              : AO
                                X                 Y                 Z
Electronic contribution:     -0.992469707       1.072947436       2.783228603
Nuclear contribution   :      1.433042792      -1.550227608      -4.031722284
                        -----------------------------------------
Total Dipole Moment    :      0.440573085      -0.477280172      -1.248493681
                        -----------------------------------------
Magnitude (a.u.)       :      1.407351227
Magnitude (Debye)      :      3.577202534



--------------------
Rotational spectrum 
--------------------
 
Rotational constants in cm-1:             0.052198             0.052087             0.033403 
Rotational constants in MHz :          1564.846966          1561.520119          1001.400563 

Dipole components along the rotational axes: 
x,y,z [a.u.] :     0.003209     0.000528    -1.407347 
x,y,z [Debye]:     0.008157     0.001342    -3.577193 

 

Dipole moment calculation done in   0.0 sec 

Maximum memory used throughout the entire PROP-calculation: 9.4 MB

--------------------------------
SUGGESTED CITATIONS FOR THIS RUN
--------------------------------

Below you find a list of papers that are relevant to this ORCA run
We neither can nor want to force you to cite these papers, but we appreciate if you do
You receive ORCA, which is the product of decades of hard work by many enthusiastic individuals, for free
The only thing we kindly ask in return is that you cite our papers,
We deeply appreciate it, if you show your appreciation for ORCA by not just citing the generic ORCA reference.

Please note that relegating all ORCA citations to the supporting information does *not* help us.
SI sections are not indexed - citations you put there will not count into any citation statistics
But we need these citations in order to attract the funding resources that allow us to do what we are doing

Therefore, if you are a happy ORCA user, please consider citing a few of the papers listed below in the main body of your paper

In addition to the list printed below, the program has created the file data/geom_opt_PO_BP86/27365/27365.bibtex that contains the list in bibtex format
You can import this file easily into all common literature databanks and citation aid programs


List of essential papers. We consider these as the minimum necessary citations

  1. Neese,F.
     Software update: the ORCA program system, version 5.0
     WIRES Comput. Molec. Sci., 2022 12(1)e1606
     doi.org/10.1002/wcms.1606

List of papers to cite with high priority. The work reported in these papers was absolutely
necessary for this run to complete.
Our perspective: the developers of density functionals and basis sets usually get cited in chemistry papers
Good! But without the algorithms to do something with them, the functionals or basis sets would not do anything.
Hence, in our opinion, the algorithm design and method developments papers are equally worthy of getting cited

  1. Neese,F.
     An improvement of the resolution of the identity approximation for the formation of the Coulomb matrix
     J. Comp. Chem., 2003 24(14)1740-1747
     doi.org/10.1002/jcc.10318
  2. Neese,F.
     The SHARK Integral Generation and Digestion System
     J. Comp. Chem., 2022  1-16
     doi.org/10.1002/jcc.26942
  3. Grimme,S.; Antony,J.; Ehrlich,S.; Krieg,H.
     A consistent and accurate ab initio parametrization of density functional dispersion correction (DFT-D) for the 94 elements H-Pu
     J. Chem. Phys., 2010 132 154104-XXXX
     doi.org/10.1063/1.3382344
  4. Grimme,S.; Ehrlich,S.; Goerigk,L.
     Effect of the damping function in dispersion corrected density functional theory
     J. Comput. Chem., 2011 32(7)1456-1465
     doi.org/10.1002/jcc.21759

List of suggested additional citations. These are papers that are important in the 'surrounding' of 
of this run, or papers that preceded the highly important papers. If you like your results we are grateful for a citation.

  1. Neese,F.
     The ORCA program system
     WIRES Comput. Molec. Sci., 2012 2(1)73-78
     doi.org/10.1002/wcms.81
  2. Neese,F.
     Software update: the ORCA program system, version 4.0
     WIRES Comput. Molec. Sci., 2018 8(1)1-6
     doi.org/10.1002/wcms.1327
  3. Neese,F.; Wennmohs,F.; Becker,U.; Riplinger,C.
     The ORCA quantum chemistry program package
     J. Chem. Phys., 2020 152 Art. No. L224108
     doi.org/10.1063/5.0004608

List of optional additional citations

  1. Neese,F.
     Approximate second-order SCF convergence for spin unrestricted wavefunctions
     Chem. Phys. Lett., 2000 325(1-3)93-98
     doi.org/10.1016/s0009-2614(00)00662-x

Timings for individual modules:

Sum of individual times          ...       42.716 sec (=   0.712 min)
Startup calculation              ...        4.887 sec (=   0.081 min)  11.4 %
SCF iterations                   ...       22.978 sec (=   0.383 min)  53.8 %
Property calculations            ...        0.140 sec (=   0.002 min)   0.3 %
SCF Gradient evaluation          ...       14.647 sec (=   0.244 min)  34.3 %
Geometry relaxation              ...        0.064 sec (=   0.001 min)   0.1 %
                             ****ORCA TERMINATED NORMALLY****
TOTAL RUN TIME: 0 days 0 hours 0 minutes 44 seconds 229 msec
