
                                 *****************
                                 * O   R   C   A *
                                 *****************

                                            #,                                       
                                            ###                                      
                                            ####                                     
                                            #####                                    
                                            ######                                   
                                           ########,                                 
                                     ,,################,,,,,                         
                               ,,#################################,,                 
                          ,,##########################################,,             
                       ,#########################################, ''#####,          
                    ,#############################################,,   '####,        
                  ,##################################################,,,,####,       
                ,###########''''           ''''###############################       
              ,#####''   ,,,,##########,,,,          '''####'''          '####       
            ,##' ,,,,###########################,,,                        '##       
           ' ,,###''''                  '''############,,,                           
         ,,##''                                '''############,,,,        ,,,,,,###''
      ,#''                                            '''#######################'''  
     '                                                          ''''####''''         
             ,#######,   #######,   ,#######,      ##                                
            ,#'     '#,  ##    ##  ,#'     '#,    #''#        ,####,   ,####,        
            ##       ##  ##   ,#'  ##            #'  '#       #'       #'  '#        
            ##       ##  #######   ##           ,######,      #####,   #    #        
            '#,     ,#'  ##    ##  '#,     ,#' ,#      #,     #,   #   #,  ,#        
             '#######'   ##     ##  '#######'  #'      '#     '####' # '####'        



                #########################################################
                #                        -***-                          #
                #          Department of theory and spectroscopy        #
                #                                                       #
                #                      Frank Neese                      #
                #                                                       #
                #     Directorship, Architecture, Infrastructure        #
                #                    SHARK, DRIVERS                     #
                #        Core code/Algorithms in most modules           #
                #                                                       #
                #        Max Planck Institute fuer Kohlenforschung      #
                #                Kaiser Wilhelm Platz 1                 #
                #                 D-45470 Muelheim/Ruhr                 #
                #                      Germany                          #
                #                                                       #
                #                  All rights reserved                  #
                #                        -***-                          #
                #########################################################


                         Program Version 6.0.0  -   RELEASE   -


 With contributions from (in alphabetic order):
   Daniel Aravena         : Magnetic Suceptibility
   Michael Atanasov       : Ab Initio Ligand Field Theory (pilot matlab implementation)
   Alexander A. Auer      : GIAO ZORA, VPT2 properties, NMR spectrum
   Ute Becker             : All parallelization in ORCA, NUMFREQ, NUMCALC
   Giovanni Bistoni       : ED, misc. LED, open-shell LED, HFLD
   Martin Brehm           : Molecular dynamics
   Dmytro Bykov           : pre 5.0 version of the SCF Hessian
   Marcos Casanova-Páez   : Triplet and SCS-CIS(D). UHF-(DLPNO)-IP/EA/STEOM-CCSD. UHF-CVS-IP/STEOM-CCSD
   Vijay G. Chilkuri      : MRCI spin determinant printing, contributions to CSF-ICE
   Pauline Colinet        : FMM embedding
   Dipayan Datta          : RHF DLPNO-CCSD density
   Achintya Kumar Dutta   : EOM-CC, STEOM-CC
   Nicolas Foglia         : Exact transition moments, OPA infrastructure, MCD improvements
   Dmitry Ganyushin       : Spin-Orbit,Spin-Spin,Magnetic field MRCI
   Miquel Garcia          : C-PCM and meta-GGA Hessian, CCSD/C-PCM, Gaussian charge scheme
   Tiago L. C. Gouveia    : GS-ROHF, GS-ROCIS
   Yang Guo               : DLPNO-NEVPT2, F12-NEVPT2, CIM, IAO-localization
   Andreas Hansen         : Spin unrestricted coupled pair/coupled cluster methods
   Ingolf Harden          : AUTO-CI MPn and infrastructure 
   Benjamin Helmich-Paris : MC-RPA, TRAH-(SCF,CASSCF), AVAS, COSX integrals, SCF dyn. polar.
   Lee Huntington         : MR-EOM, pCC
   Robert Izsak           : Overlap fitted RIJCOSX, COSX-SCS-MP3, EOM
   Riya Kayal             : Wick's Theorem for AUTO-CI, AUTO-CI UHF-CCSDT
   Emily Kempfer          : AUTO-CI, RHF CISDT and CCSDT
   Christian Kollmar      : KDIIS, OOCD, Brueckner-CCSD(T), CCSD density, CASPT2, CASPT2-K, improved NEVPT2
   Axel Koslowski         : Symmetry handling
   Simone Kossmann        : Meta GGA functionals, TD-DFT gradient, OOMP2, (MP2 Hessian; deprecated post 5.0)
   Lucas Lang             : DCDCAS
   Marvin Lechner         : AUTO-CI (C++ implementation), FIC-MRCC
   Spencer Leger          : CASSCF response
   Dagmar Lenk            : GEPOL surface, SMD, ORCA-2-JSON
   Dimitrios Liakos       : Extrapolation schemes; Compound Job, initial MDCI parallelization
   Dimitrios Manganas     : Further ROCIS development; embedding schemes. LFT, Crystal Embedding
   Dimitrios Pantazis     : SARC Basis sets
   Anastasios Papadopoulos: AUTO-CI, single reference methods and gradients
   Taras Petrenko         : pre 6.0 DFT Hessian and TD-DFT gradient, (ASA, deprecated), ECA, 1-Electron XAS/XES, NRVS
   Peter Pinski           : DLPNO-MP2, DLPNO-MP2 Gradient
   Christoph Reimann      : Effective Core Potentials
   Marius Retegan         : Local ZFS, SOC
   Christoph Riplinger    : Optimizer, TS searches, QM/MM, DLPNO-CCSD(T), (RO)-DLPNO pert. Triples
   Michael Roemelt        : Original ROCIS implementation
   Masaaki Saitow         : Open-shell DLPNO-CCSD energy and density
   Barbara Sandhoefer     : DKH picture change effects
   Kantharuban Sivalingam : CASSCF convergence/infrastructure, NEVPT2 and variants, FIC-MRCI
   Bernardo de Souza      : ESD, SOC TD-DFT
   Georgi Stoychev        : AutoAux, RI-MP2 NMR, DLPNO-MP2 response, X2C
   Van Anh Tran           : RI-MP2 g-tensors
   Willem Van den Heuvel  : Paramagnetic NMR
   Zikuan Wang            : NOTCH, Electric field optimization 
   Frank Wennmohs         : Technical directorship and infrastructure
   Hang Xu                : AUTO-CI-Response properties 


 We gratefully acknowledge several colleagues who have allowed us to
 interface, adapt or use parts of their codes:
   Stefan Grimme, W. Hujo, H. Kruse, P. Pracht,  : VdW corrections, initial TS optimization,
                  C. Bannwarth, S. Ehlert,         DFT functionals, gCP, sTDA/sTD-DF
                  L. Wittmann, M. Mueller
   Ed Valeev, F. Pavosevic, A. Kumar             : LibInt (2-el integral package), F12 methods
   Garnet Chan, S. Sharma, J. Yang, R. Olivares  : DMRG
   Ulf Ekstrom                                   : XCFun DFT Library
   Mihaly Kallay                                 : mrcc  (arbitrary order and MRCC methods)
   Frank Weinhold                                : gennbo (NPA and NBO analysis)
   Simon Mueller                                 : openCOSMO-RS
   Christopher J. Cramer and Donald G. Truhlar   : smd solvation model
   Lars Goerigk                                  : TD-DFT with DH, B97 family of functionals
   V. Asgeirsson, H. Jonsson                     : NEB implementation
   FAccTs GmbH                                   : IRC, NEB, NEB-TS, DLPNO-Multilevel, CI-OPT
                                                   MM, QMMM, 2- and 3-layer-ONIOM, Crystal-QMMM,
                                                   LR-CPCM, SF, NACMEs, symmetry and pop. for TD-DFT,
                                                   nearIR, NL-DFT gradient (VV10), updates on ESD,
                                                   ML-optimized integration grids, MBIS, APM,
                                                   GOAT, DOCKER, SOLVATOR, interface openCOSMO-RS
   S Lehtola, MJT Oliveira, MAL Marques          : LibXC Library
   Liviu Ungur et al                             : ANISO software


 Your calculation uses the libint2 library for the computation of 2-el integrals
 For citations please refer to: http://libint.valeyev.net

 Your ORCA version has been built with support for libXC version: 6.2.2
 For citations please refer to: https://libxc.gitlab.io

 This ORCA versions uses:
   CBLAS   interface :  Fast vector & matrix operations
   LAPACKE interface :  Fast linear algebra routines
   Shared memory     :  Shared parallel matrices


Your calculation utilizes the atom-pairwise dispersion correction
with the Becke-Johnson damping scheme (D3BJ)


Warning: RI is on but no J-basis has been assigned. Assigning Def2/J (nothing to worry about!)
================================================================================

----- Orbital basis set information -----
Your calculation utilizes the basis: def2-SVP
   F. Weigend and R. Ahlrichs, Phys. Chem. Chem. Phys. 7, 3297 (2005).

----- AuxJ basis set information -----
Your calculation utilizes the auxiliary basis: def2/J
   F. Weigend, Phys. Chem. Chem. Phys. 8, 1057 (2006).

================================================================================
                                        WARNINGS
                       Please study these warnings very carefully!
================================================================================


WARNING: Geometry Optimization
  ===> : Switching off AutoStart
         For restart on a previous wavefunction, please use MOREAD

================================================================================
                                       INPUT FILE
================================================================================
NAME = data/geom_opt/87021/87021.inp
|  1> ! RIJONX B3LYP def2-SVP D3BJ TIGHTSCF Opt
|  2> %pal
|  3> nprocs 6
|  4> end
|  5> 
|  6> * xyz 0 1
|  7> C     -3.030930   -3.284337   -0.981055
|  8> C     -1.675783   -3.534638   -0.789495
|  9> C     -0.860761   -2.568228   -0.190836
| 10> C     -1.377135   -1.323324    0.204382
| 11> C     -2.756792   -1.110571    0.037536
| 12> C     -3.573966   -2.074717   -0.560551
| 13> P     -0.345560   -0.072851    1.032682
| 14> C     -0.818498    1.531756    0.301556
| 15> C     -0.650901    2.680475    1.094184
| 16> C     -0.981274    3.948121    0.607403
| 17> C     -1.482524    4.089595   -0.683066
| 18> C     -1.649702    2.965072   -1.486501
| 19> C     -1.317880    1.697215   -0.998637
| 20> C      1.335319   -0.259789    0.319382
| 21> C      1.514544   -0.407078   -1.071930
| 22> C      2.782242   -0.582438   -1.635364
| 23> C      3.908261   -0.612937   -0.822508
| 24> C      3.766321   -0.458947    0.554049
| 25> C      2.493196   -0.277678    1.127344
| 26> C      2.440831   -0.071727    2.595413
| 27> O      1.821379    0.776587    3.206409
| 28> O      3.203506   -0.979854    3.235048
| 29> H     -3.665465   -4.036808   -1.441477
| 30> H     -1.250119   -4.487149   -1.094619
| 31> H      0.186837   -2.813950   -0.030197
| 32> H     -3.218237   -0.185001    0.378649
| 33> H     -4.635994   -1.880707   -0.686527
| 34> H     -0.252737    2.598069    2.105489
| 35> H     -0.842590    4.821950    1.238521
| 36> H     -1.738770    5.074866   -1.062935
| 37> H     -2.036774    3.071801   -2.496483
| 38> H     -1.455551    0.843374   -1.656962
| 39> H      0.659512   -0.396557   -1.744749
| 40> H      2.884037   -0.695731   -2.712110
| 41> H      4.894676   -0.748827   -1.258389
| 42> H      4.653498   -0.470264    1.183949
| 43> H      3.073783   -0.764774    4.182392
| 44> **                         ****END OF INPUT****
================================================================================

                       *****************************
                       * Geometry Optimization Run *
                       *****************************

Geometry optimization settings:
Update method            Update   .... BFGS
Choice of coordinates    CoordSys .... (2022) Redundant Internals
Initial Hessian          InHess   .... Almloef's Model
Max. no of cycles        MaxIter  .... 111

Convergence Tolerances:
Energy Change            TolE     ....  5.0000e-06 Eh
Max. Gradient            TolMAXG  ....  3.0000e-04 Eh/bohr
RMS Gradient             TolRMSG  ....  1.0000e-04 Eh/bohr
Max. Displacement        TolMAXD  ....  4.0000e-03 bohr
RMS Displacement         TolRMSD  ....  2.0000e-03 bohr
Strict Convergence                .... False

------------------------------------------------------------------------------
                        ORCA OPTIMIZATION COORDINATE SETUP
------------------------------------------------------------------------------

The optimization will be done in redundant internal coordinates (2022)
Making redundant internal coordinates   ...  (2022 redundants) done
Evaluating the initial hessian          ...  (Almloef) done
Evaluating the coordinates              ...  done
Calculating the B-matrix                .... done
Calculating the G-matrix                .... done
Diagonalizing the G-matrix              .... done
Small eigenvalue found = 4.658e-03
Small eigenvalue found = 6.621e-03
Small eigenvalue found = 8.027e-03
Small eigenvalue found = 1.373e-02
Small eigenvalue found = 2.079e-02
The first mode is                       ....   85
The number of degrees of freedom        ....  105

    -----------------------------------------------------------------
                    Redundant Internal Coordinates


    -----------------------------------------------------------------
         Definition                    Initial Value    Approx d2E/dq
    -----------------------------------------------------------------
      1. B(C   1,C   0)                  1.3913         0.621776   
      2. B(C   2,C   1)                  1.3988         0.604953   
      3. B(C   3,C   2)                  1.4045         0.592382   
      4. B(C   4,C   3)                  1.4059         0.589347   
      5. B(C   5,C   4)                  1.3982         0.606180   
      6. B(C   5,C   0)                  1.3910         0.622496   
      7. B(P   6,C   3)                  1.8204         0.432049   
      8. B(C   7,P   6)                  1.8256         0.423827   
      9. B(C   8,C   7)                  1.4057         0.589849   
     10. B(C   9,C   8)                  1.3975         0.607799   
     11. B(C  10,C   9)                  1.3916         0.621113   
     12. B(C  11,C  10)                  1.3921         0.619941   
     13. B(C  12,C  11)                  1.3984         0.605766   
     14. B(C  12,C   7)                  1.4026         0.596555   
     15. B(C  13,P   6)                  1.8355         0.408742   
     16. B(C  14,C  13)                  1.4105         0.579430   
     17. B(C  15,C  14)                  1.3983         0.606014   
     18. B(C  16,C  15)                  1.3891         0.626878   
     19. B(C  17,C  16)                  1.3924         0.619319   
     20. B(C  18,C  17)                  1.4080         0.584887   
     21. B(C  18,C  13)                  1.4120         0.576244   
     22. B(C  19,C  18)                  1.4834         0.443378   
     23. B(O  20,C  19)                  1.2152         1.063610   
     24. B(O  21,C  19)                  1.3474         0.654384   
     25. B(H  22,C   0)                  1.0867         0.364542   
     26. B(H  23,C   1)                  1.0870         0.364091   
     27. B(H  24,C   2)                  1.0880         0.362816   
     28. B(H  25,C   4)                  1.0890         0.361396   
     29. B(H  26,C   5)                  1.0869         0.364186   
     30. B(H  27,C   8)                  1.0900         0.360122   
     31. B(H  28,C   9)                  1.0868         0.364367   
     32. B(H  29,C  10)                  1.0866         0.364613   
     33. B(H  30,C  11)                  1.0869         0.364269   
     34. B(H  31,C  12)                  1.0869         0.364201   
     35. B(H  32,C  14)                  1.0881         0.362675   
     36. B(H  33,C  15)                  1.0875         0.363470   
     37. B(H  34,C  16)                  1.0870         0.364150   
     38. B(H  35,C  17)                  1.0881         0.362608   
     39. B(H  36,O  21)                  0.9801         0.482989   
     40. A(C   1,C   0,H  22)          120.1662         0.353814   
     41. A(C   5,C   0,H  22)          120.1516         0.353883   
     42. A(C   1,C   0,C   5)          119.6739         0.434604   
     43. A(C   0,C   1,H  23)          120.0272         0.353740   
     44. A(C   0,C   1,C   2)          120.1423         0.432375   
     45. A(C   2,C   1,H  23)          119.8268         0.352101   
     46. A(C   3,C   2,H  24)          120.8413         0.350646   
     47. A(C   1,C   2,C   3)          121.2381         0.428631   
     48. A(C   1,C   2,H  24)          117.9176         0.351892   
     49. A(C   2,C   3,C   4)          117.4860         0.426628   
     50. A(C   2,C   3,P   6)          121.9079         0.430456   
     51. A(C   4,C   3,P   6)          120.4071         0.430059   
     52. A(C   3,C   4,C   5)          121.3281         0.428392   
     53. A(C   3,C   4,H  25)          120.4813         0.350110   
     54. A(C   5,C   4,H  25)          118.1898         0.351779   
     55. A(C   0,C   5,C   4)          120.0517         0.432622   
     56. A(C   4,C   5,H  26)          119.8374         0.352237   
     57. A(C   0,C   5,H  26)          120.1079         0.353825   
     58. A(C   7,P   6,C  13)           99.8526         0.428146   
     59. A(C   3,P   6,C  13)          105.7924         0.429624   
     60. A(C   3,P   6,C   7)          105.9461         0.432429   
     61. A(C   8,C   7,C  12)          117.9539         0.427230   
     62. A(P   6,C   7,C  12)          124.5521         0.429515   
     63. A(P   6,C   7,C   8)          117.4876         0.428645   
     64. A(C   7,C   8,C   9)          121.1091         0.428663   
     65. A(C   9,C   8,H  27)          118.5621         0.351728   
     66. A(C   7,C   8,H  27)          120.3279         0.349952   
     67. A(C  10,C   9,H  28)          120.1810         0.353721   
     68. A(C   8,C   9,H  28)          119.7942         0.352426   
     69. A(C   8,C   9,C  10)          120.0246         0.432657   
     70. A(C   9,C  10,C  11)          119.7568         0.434199   
     71. A(C  11,C  10,H  29)          120.1564         0.353648   
     72. A(C   9,C  10,H  29)          120.0864         0.353761   
     73. A(C  12,C  11,H  30)          119.8496         0.352210   
     74. A(C  10,C  11,H  30)          119.9833         0.353592   
     75. A(C  10,C  11,C  12)          120.1669         0.432249   
     76. A(C   7,C  12,H  31)          120.9232         0.351288   
     77. A(C  11,C  12,H  31)          118.0902         0.352199   
     78. A(C   7,C  12,C  11)          120.9864         0.429275   
     79. A(C  14,C  13,C  18)          117.3158         0.423238   
     80. A(P   6,C  13,C  18)          121.9959         0.424096   
     81. A(P   6,C  13,C  14)          120.6847         0.424514   
     82. A(C  15,C  14,H  32)          117.6765         0.351973   
     83. A(C  13,C  14,H  32)          120.6029         0.349317   
     84. A(C  13,C  14,C  15)          121.7183         0.427070   
     85. A(C  16,C  15,H  33)          120.0817         0.354127   
     86. A(C  14,C  15,H  33)          119.7949         0.352104   
     87. A(C  14,C  15,C  16)          120.1233         0.433147   
     88. A(C  17,C  16,H  34)          120.1844         0.353512   
     89. A(C  15,C  16,H  34)          120.2464         0.354239   
     90. A(C  15,C  16,C  17)          119.5677         0.434843   
     91. A(C  18,C  17,H  35)          120.1905         0.349859   
     92. A(C  16,C  17,H  35)          119.2120         0.353258   
     93. A(C  16,C  17,C  18)          120.5947         0.429458   
     94. A(C  17,C  18,C  19)          116.9218         0.404655   
     95. A(C  13,C  18,C  19)          122.3842         0.403593   
     96. A(C  13,C  18,C  17)          120.6720         0.423948   
     97. A(C  18,C  19,O  21)          110.8708         0.410115   
     98. A(C  18,C  19,O  20)          127.7729         0.447432   
     99. A(O  20,C  19,O  21)          121.3561         0.477224   
    100. A(C  19,O  21,H  36)          103.6526         0.368861   
    101. D(H  23,C   1,C   0,C   5)    178.5609         0.026761   
    102. D(C   2,C   1,C   0,C   5)     -0.7299         0.026761   
    103. D(C   2,C   1,C   0,H  22)   -179.6876         0.026761   
    104. D(H  23,C   1,C   0,H  22)     -0.3968         0.026761   
    105. D(C   3,C   2,C   1,H  23)    179.4487         0.025252   
    106. D(C   3,C   2,C   1,C   0)     -1.2591         0.025252   
    107. D(H  24,C   2,C   1,C   0)    178.1151         0.025252   
    108. D(H  24,C   2,C   1,H  23)     -1.1772         0.025252   
    109. D(P   6,C   3,C   2,H  24)     -1.3341         0.024159   
    110. D(C   4,C   3,C   2,C   1)      3.1309         0.024159   
    111. D(P   6,C   3,C   2,C   1)    178.0219         0.024159   
    112. D(C   4,C   3,C   2,H  24)   -176.2250         0.024159   
    113. D(H  25,C   4,C   3,C   2)    176.5608         0.023900   
    114. D(C   5,C   4,C   3,C   2)     -3.1319         0.023900   
    115. D(C   5,C   4,C   3,P   6)   -178.1033         0.023900   
    116. D(H  25,C   4,C   3,P   6)      1.5894         0.023900   
    117. D(H  26,C   5,C   4,H  25)      0.9204         0.025360   
    118. D(C   0,C   5,C   4,H  25)   -178.4443         0.025360   
    119. D(H  26,C   5,C   0,H  22)      0.3261         0.026827   
    120. D(H  26,C   5,C   0,C   1)   -178.6318         0.026827   
    121. D(C   4,C   5,C   0,H  22)    179.6891         0.026827   
    122. D(H  26,C   5,C   4,C   3)   -179.3800         0.025360   
    123. D(C   4,C   5,C   0,C   1)      0.7312         0.026827   
    124. D(C   0,C   5,C   4,C   3)      1.2553         0.025360   
    125. D(C  13,P   6,C   3,C   4)   -151.6277         0.003825   
    126. D(C  13,P   6,C   3,C   2)     33.6280         0.003825   
    127. D(C   7,P   6,C   3,C   4)    -46.2159         0.003825   
    128. D(C   7,P   6,C   3,C   2)    139.0398         0.003825   
    129. D(C  12,C   7,P   6,C   3)    -28.1373         0.003735   
    130. D(C   8,C   7,P   6,C  13)    -97.5074         0.003735   
    131. D(C   8,C   7,P   6,C   3)    152.8043         0.003735   
    132. D(C  12,C   7,P   6,C  13)     81.5511         0.003735   
    133. D(H  27,C   8,C   7,C  12)   -179.1587         0.023942   
    134. D(H  27,C   8,C   7,P   6)     -0.0366         0.023942   
    135. D(C   9,C   8,C   7,C  12)      0.5082         0.023942   
    136. D(C   9,C   8,C   7,P   6)    179.6303         0.023942   
    137. D(H  28,C   9,C   8,H  27)     -0.2973         0.025503   
    138. D(H  28,C   9,C   8,C   7)   -179.9700         0.025503   
    139. D(C  10,C   9,C   8,H  27)    179.5176         0.025503   
    140. D(C  10,C   9,C   8,C   7)     -0.1550         0.025503   
    141. D(H  29,C  10,C   9,H  28)     -0.1230         0.026701   
    142. D(H  29,C  10,C   9,C   8)   -179.9373         0.026701   
    143. D(C  11,C  10,C   9,H  28)    179.6468         0.026701   
    144. D(C  11,C  10,C   9,C   8)     -0.1675         0.026701   
    145. D(H  30,C  11,C  10,H  29)      0.0388         0.026594   
    146. D(H  30,C  11,C  10,C   9)   -179.7309         0.026594   
    147. D(C  12,C  11,C  10,H  29)    179.8924         0.026594   
    148. D(C  12,C  11,C  10,C   9)      0.1227         0.026594   
    149. D(H  31,C  12,C  11,H  30)      0.2595         0.025323   
    150. D(C   7,C  12,C  11,H  30)   -179.8999         0.025323   
    151. D(C   7,C  12,C  11,C  10)      0.2463         0.025323   
    152. D(H  31,C  12,C   7,C   8)    179.2831         0.024518   
    153. D(H  31,C  12,C   7,P   6)      0.2287         0.024518   
    154. D(H  31,C  12,C  11,C  10)   -179.5943         0.025323   
    155. D(C  11,C  12,C   7,C   8)     -0.5530         0.024518   
    156. D(C  11,C  12,C   7,P   6)   -179.6074         0.024518   
    157. D(C  18,C  13,P   6,C   7)    115.6766         0.003574   
    158. D(C  18,C  13,P   6,C   3)   -134.5133         0.003574   
    159. D(C  14,C  13,P   6,C   7)    -65.0327         0.003574   
    160. D(C  14,C  13,P   6,C   3)     44.7774         0.003574   
    161. D(H  32,C  14,C  13,P   6)      0.9545         0.023064   
    162. D(C  15,C  14,C  13,C  18)      0.8492         0.023064   
    163. D(C  15,C  14,C  13,P   6)   -178.4737         0.023064   
    164. D(H  32,C  14,C  13,C  18)   -179.7225         0.023064   
    165. D(H  33,C  15,C  14,H  32)      0.3825         0.025345   
    166. D(H  33,C  15,C  14,C  13)    179.8268         0.025345   
    167. D(C  16,C  15,C  14,H  32)   -179.5677         0.025345   
    168. D(C  16,C  15,C  14,C  13)     -0.1234         0.025345   
    169. D(H  34,C  16,C  15,H  33)      0.0692         0.027230   
    170. D(H  34,C  16,C  15,C  14)   -179.9807         0.027230   
    171. D(C  17,C  16,C  15,H  33)    179.6244         0.027230   
    172. D(C  17,C  16,C  15,C  14)     -0.4256         0.027230   
    173. D(H  35,C  17,C  16,H  34)      0.3786         0.026537   
    174. D(H  35,C  17,C  16,C  15)   -179.1768         0.026537   
    175. D(C  18,C  17,C  16,H  34)    179.7759         0.026537   
    176. D(C  18,C  17,C  16,C  15)      0.2205         0.026537   
    177. D(C  19,C  18,C  17,H  35)      1.5918         0.023522   
    178. D(C  19,C  18,C  17,C  16)   -177.7997         0.023522   
    179. D(C  13,C  18,C  17,H  35)    179.9281         0.023522   
    180. D(C  13,C  18,C  17,C  16)      0.5366         0.023522   
    181. D(C  19,C  18,C  13,C  14)    177.1969         0.022800   
    182. D(C  19,C  18,C  13,P   6)     -3.4897         0.022800   
    183. D(C  17,C  18,C  13,C  14)     -1.0465         0.022800   
    184. D(C  17,C  18,C  13,P   6)    178.2669         0.022800   
    185. D(O  21,C  19,C  18,C  17)    -47.1485         0.013409   
    186. D(O  21,C  19,C  18,C  13)    134.5460         0.013409   
    187. D(O  20,C  19,C  18,C  17)    132.7279         0.013409   
    188. D(O  20,C  19,C  18,C  13)    -45.5776         0.013409   
    189. D(H  36,O  21,C  19,O  20)      1.5889         0.031683   
    190. D(H  36,O  21,C  19,C  18)   -178.5255         0.031683   
    -----------------------------------------------------------------

Number of atoms                         .... 37
Number of degrees of freedom            .... 190


         *************************************************************
         *                GEOMETRY OPTIMIZATION CYCLE   1            *
         *************************************************************
---------------------------------
CARTESIAN COORDINATES (ANGSTROEM)
---------------------------------
  C     -3.030930   -3.284337   -0.981055
  C     -1.675783   -3.534638   -0.789495
  C     -0.860761   -2.568228   -0.190836
  C     -1.377135   -1.323324    0.204382
  C     -2.756792   -1.110571    0.037536
  C     -3.573966   -2.074717   -0.560551
  P     -0.345560   -0.072851    1.032682
  C     -0.818498    1.531756    0.301556
  C     -0.650901    2.680475    1.094184
  C     -0.981274    3.948121    0.607403
  C     -1.482524    4.089595   -0.683066
  C     -1.649702    2.965072   -1.486501
  C     -1.317880    1.697215   -0.998637
  C      1.335319   -0.259789    0.319382
  C      1.514544   -0.407078   -1.071930
  C      2.782242   -0.582438   -1.635364
  C      3.908261   -0.612937   -0.822508
  C      3.766321   -0.458947    0.554049
  C      2.493196   -0.277678    1.127344
  C      2.440831   -0.071727    2.595413
  O      1.821379    0.776587    3.206409
  O      3.203506   -0.979854    3.235048
  H     -3.665465   -4.036808   -1.441477
  H     -1.250119   -4.487149   -1.094619
  H      0.186837   -2.813950   -0.030197
  H     -3.218237   -0.185001    0.378649
  H     -4.635994   -1.880707   -0.686527
  H     -0.252737    2.598069    2.105489
  H     -0.842590    4.821950    1.238521
  H     -1.738770    5.074866   -1.062935
  H     -2.036774    3.071801   -2.496483
  H     -1.455551    0.843374   -1.656962
  H      0.659512   -0.396557   -1.744749
  H      2.884037   -0.695731   -2.712110
  H      4.894676   -0.748827   -1.258389
  H      4.653498   -0.470264    1.183949
  H      3.073783   -0.764774    4.182392

----------------------------
CARTESIAN COORDINATES (A.U.)
----------------------------
  NO LB      ZA    FRAG     MASS         X           Y           Z
   0 C     6.0000    0    12.011   -5.727628   -6.206497   -1.853925
   1 C     6.0000    0    12.011   -3.166771   -6.679498   -1.491929
   2 C     6.0000    0    12.011   -1.626603   -4.853248   -0.360628
   3 C     6.0000    0    12.011   -2.602408   -2.500720    0.386226
   4 C     6.0000    0    12.011   -5.209582   -2.098675    0.070933
   5 C     6.0000    0    12.011   -6.753817   -3.920647   -1.059288
   6 P    15.0000    0    30.974   -0.653014   -0.137668    1.951486
   7 C     6.0000    0    12.011   -1.546737    2.894599    0.569858
   8 C     6.0000    0    12.011   -1.230025    5.065364    2.067708
   9 C     6.0000    0    12.011   -1.854339    7.460867    1.147825
  10 C     6.0000    0    12.011   -2.801564    7.728215   -1.290808
  11 C     6.0000    0    12.011   -3.117485    5.603174   -2.809080
  12 C     6.0000    0    12.011   -2.490432    3.207272   -1.887150
  13 C     6.0000    0    12.011    2.523387   -0.490930    0.603545
  14 C     6.0000    0    12.011    2.862073   -0.769266   -2.025654
  15 C     6.0000    0    12.011    5.257675   -1.100648   -3.090390
  16 C     6.0000    0    12.011    7.385543   -1.158283   -1.554315
  17 C     6.0000    0    12.011    7.117315   -0.867284    1.047001
  18 C     6.0000    0    12.011    4.711458   -0.524735    2.130371
  19 C     6.0000    0    12.011    4.612502   -0.135544    4.904620
  20 O     8.0000    0    15.999    3.441907    1.467537    6.059235
  21 O     8.0000    0    15.999    6.053749   -1.851656    6.113355
  22 H     1.0000    0     1.008   -6.926725   -7.628462   -2.723997
  23 H     1.0000    0     1.008   -2.362383   -8.479483   -2.068530
  24 H     1.0000    0     1.008    0.353071   -5.317595   -0.057064
  25 H     1.0000    0     1.008   -6.081587   -0.349601    0.715543
  26 H     1.0000    0     1.008   -8.760759   -3.554021   -1.297348
  27 H     1.0000    0     1.008   -0.477604    4.909639    3.978798
  28 H     1.0000    0     1.008   -1.592264    9.112165    2.340466
  29 H     1.0000    0     1.008   -3.285799    9.590107   -2.008656
  30 H     1.0000    0     1.008   -3.848945    5.804863   -4.717669
  31 H     1.0000    0     1.008   -2.750593    1.593746   -3.131204
  32 H     1.0000    0     1.008    1.246297   -0.749384   -3.297098
  33 H     1.0000    0     1.008    5.450040   -1.314741   -5.125145
  34 H     1.0000    0     1.008    9.249597   -1.415078   -2.378011
  35 H     1.0000    0     1.008    8.793837   -0.888670    2.237339
  36 H     1.0000    0     1.008    5.808608   -1.445213    7.903575

--------------------------------
INTERNAL COORDINATES (ANGSTROEM)
--------------------------------
 C      0   0   0     0.000000000000     0.00000000     0.00000000
 C      1   0   0     1.391319235765     0.00000000     0.00000000
 C      2   1   0     1.398785811647   120.14225333     0.00000000
 C      3   2   1     1.404501813675   121.23812313   358.74091815
 C      4   3   2     1.405900019338   117.48599103     3.13092803
 C      1   2   3     1.391004045901   119.67391631   359.27011193
 P      4   3   2     1.820414951145   121.90794274   178.02185040
 C      7   4   3     1.825644873509   105.94608211   139.03975243
 C      8   7   4     1.405668254516   117.48756034   152.80427434
 C      9   8   7     1.397507940015   121.10914242   179.63033584
 C     10   9   8     1.391609390288   120.02455178   359.84500245
 C     11  10   9     1.392123651275   119.75677004   359.83253088
 C     12  11  10     1.398419999367   120.16690864     0.12274476
 C      7   4   3     1.835509988664   105.79235503    33.62798075
 C     14   7   4     1.410519312697   120.68469540    44.77743218
 C     15  14   7     1.398308700238   121.71826009   181.52626711
 C     16  15  14     1.389094616683   120.12331230   359.87663925
 C     17  16  15     1.392396875158   119.56767030   359.57436914
 C     18  17  16     1.407967639192   120.59470700     0.22054690
 C     19  18  17     1.483369305462   116.92184839   182.20032517
 O     20  19  18     1.215184568251   127.77291919   132.72794367
 O     20  19  18     1.347405186638   110.87082446   312.85151837
 H      1   2   3     1.086662638610   120.16620952   180.31237599
 H      2   1   3     1.086999402665   120.02715259   179.29082869
 H      3   2   1     1.087954851641   117.91756225   178.11509418
 H      5   4   3     1.089022218182   120.48134516   176.56079066
 H      6   1   2     1.086928381017   120.10785840   181.36821210
 H      9   8   7     1.089983083702   120.32790068   359.96343768
 H     10   9   8     1.086793588047   119.79420775   180.03004633
 H     11  10   9     1.086610055686   120.08641901   180.06272581
 H     12  11  10     1.086866805524   119.98334636   180.26912298
 H     13  12  11     1.086917459215   118.09018846   180.40569248
 H     15  14   7     1.088060577002   120.60290802     0.95453771
 H     16  15  14     1.087464700296   119.79493884   179.82679386
 H     17  16  15     1.086955790493   120.24637890   180.01925515
 H     18  17  16     1.088110800341   119.21201049   180.82317980
 H     22  20  19     0.980075567222   103.65263205   181.47447682

---------------------------
INTERNAL COORDINATES (A.U.)
---------------------------
 C      0   0   0     0.000000000000     0.00000000     0.00000000
 C      1   0   0     2.629212320453     0.00000000     0.00000000
 C      2   1   0     2.643322104028   120.14225333     0.00000000
 C      3   2   1     2.654123782441   121.23812313   358.74091815
 C      4   3   2     2.656766008223   117.48599103     3.13092803
 C      1   2   3     2.628616697929   119.67391631   359.27011193
 P      4   3   2     3.440085707761   121.90794274   178.02185040
 C      7   4   3     3.449968828729   105.94608211   139.03975243
 C      8   7   4     2.656328036182   117.48756034   152.80427434
 C      9   8   7     2.640907276609   121.10914242   179.63033584
 C     10   9   8     2.629760633037   120.02455178   359.84500245
 C     11  10   9     2.630732445463   119.75677004   359.83253088
 C     12  11  10     2.642630819002   120.16690864     0.12274476
 C      7   4   3     3.468611194652   105.79235503    33.62798075
 C     14   7   4     2.665495207603   120.68469540    44.77743218
 C     15  14   7     2.642420494128   121.71826009   181.52626711
 C     16  15  14     2.625008399635   120.12331230   359.87663925
 C     17  16  15     2.631248763776   119.56767030   359.57436914
 C     18  17  16     2.660673243496   120.59470700     0.22054690
 C     19  18  17     2.803161742788   116.92184839   182.20032517
 O     20  19  18     2.296366036162   127.77291919   132.72794367
 O     20  19  18     2.546226794171   110.87082446   312.85151837
 H      1   2   3     2.053494786936   120.16620952   180.31237599
 H      2   1   3     2.054131178772   120.02715259   179.29082869
 H      3   2   1     2.055936715672   117.91756225   178.11509418
 H      5   4   3     2.057953746119   120.48134516   176.56079066
 H      6   1   2     2.053996967308   120.10785840   181.36821210
 H      9   8   7     2.059769518804   120.32790068   359.96343768
 H     10   9   8     2.053742245511   119.79420775   180.03004633
 H     11  10   9     2.053395419612   120.08641901   180.06272581
 H     12  11  10     2.053880606489   119.98334636   180.26912298
 H     13  12  11     2.053976328094   118.09018846   180.40569248
 H     15  14   7     2.056136507650   120.60290802     0.95453771
 H     16  15  14     2.055010463866   119.79493884   179.82679386
 H     17  16  15     2.054048763711   120.24637890   180.01925515
 H     18  17  16     2.056231416006   119.21201049   180.82317980
 H     22  20  19     1.852074412597   103.65263205   181.47447682

---------------------
BASIS SET INFORMATION
---------------------
There are 4 groups of distinct atoms

 Group   1 Type C   : 7s4p1d contracted to 3s2p1d pattern {511/31/1}
 Group   2 Type P   : 10s7p1d contracted to 4s3p1d pattern {5311/511/1}
 Group   3 Type O   : 7s4p1d contracted to 3s2p1d pattern {511/31/1}
 Group   4 Type H   : 4s1p contracted to 2s1p pattern {31/1}

Atom   0C    basis set group =>   1
Atom   1C    basis set group =>   1
Atom   2C    basis set group =>   1
Atom   3C    basis set group =>   1
Atom   4C    basis set group =>   1
Atom   5C    basis set group =>   1
Atom   6P    basis set group =>   2
Atom   7C    basis set group =>   1
Atom   8C    basis set group =>   1
Atom   9C    basis set group =>   1
Atom  10C    basis set group =>   1
Atom  11C    basis set group =>   1
Atom  12C    basis set group =>   1
Atom  13C    basis set group =>   1
Atom  14C    basis set group =>   1
Atom  15C    basis set group =>   1
Atom  16C    basis set group =>   1
Atom  17C    basis set group =>   1
Atom  18C    basis set group =>   1
Atom  19C    basis set group =>   1
Atom  20O    basis set group =>   3
Atom  21O    basis set group =>   3
Atom  22H    basis set group =>   4
Atom  23H    basis set group =>   4
Atom  24H    basis set group =>   4
Atom  25H    basis set group =>   4
Atom  26H    basis set group =>   4
Atom  27H    basis set group =>   4
Atom  28H    basis set group =>   4
Atom  29H    basis set group =>   4
Atom  30H    basis set group =>   4
Atom  31H    basis set group =>   4
Atom  32H    basis set group =>   4
Atom  33H    basis set group =>   4
Atom  34H    basis set group =>   4
Atom  35H    basis set group =>   4
Atom  36H    basis set group =>   4
---------------------------------
AUXILIARY/J BASIS SET INFORMATION
---------------------------------
There are 4 groups of distinct atoms

 Group   1 Type C   : 12s5p4d2f1g contracted to 6s4p3d1f1g pattern {711111/2111/211/2/1}
 Group   2 Type P   : 14s5p5d2f1g contracted to 8s4p3d1f1g pattern {71111111/2111/311/2/1}
 Group   3 Type O   : 12s5p4d2f1g contracted to 6s4p3d1f1g pattern {711111/2111/211/2/1}
 Group   4 Type H   : 5s2p1d contracted to 3s1p1d pattern {311/2/1}

Atom   0C    basis set group =>   1
Atom   1C    basis set group =>   1
Atom   2C    basis set group =>   1
Atom   3C    basis set group =>   1
Atom   4C    basis set group =>   1
Atom   5C    basis set group =>   1
Atom   6P    basis set group =>   2
Atom   7C    basis set group =>   1
Atom   8C    basis set group =>   1
Atom   9C    basis set group =>   1
Atom  10C    basis set group =>   1
Atom  11C    basis set group =>   1
Atom  12C    basis set group =>   1
Atom  13C    basis set group =>   1
Atom  14C    basis set group =>   1
Atom  15C    basis set group =>   1
Atom  16C    basis set group =>   1
Atom  17C    basis set group =>   1
Atom  18C    basis set group =>   1
Atom  19C    basis set group =>   1
Atom  20O    basis set group =>   3
Atom  21O    basis set group =>   3
Atom  22H    basis set group =>   4
Atom  23H    basis set group =>   4
Atom  24H    basis set group =>   4
Atom  25H    basis set group =>   4
Atom  26H    basis set group =>   4
Atom  27H    basis set group =>   4
Atom  28H    basis set group =>   4
Atom  29H    basis set group =>   4
Atom  30H    basis set group =>   4
Atom  31H    basis set group =>   4
Atom  32H    basis set group =>   4
Atom  33H    basis set group =>   4
Atom  34H    basis set group =>   4
Atom  35H    basis set group =>   4
Atom  36H    basis set group =>   4


           ************************************************************
           *        Program running with 6 parallel MPI-processes     *
           *              working on a common directory               *
           ************************************************************
------------------------------------------------------------------------------
                             ORCA STARTUP CALCULATIONS
                           -- RI-GTO INTEGRALS CHOSEN --
------------------------------------------------------------------------------
------------------------------------------------------------------------------
                   ___                                                        
                  /   \      - P O W E R E D   B Y -                         
                 /     \                                                     
                 |  |  |   _    _      __       _____    __    __             
                 |  |  |  | |  | |    /  \     |  _  \  |  |  /  |          
                  \  \/   | |  | |   /    \    | | | |  |  | /  /          
                 / \  \   | |__| |  /  /\  \   | |_| |  |  |/  /          
                |  |  |   |  __  | /  /__\  \  |    /   |      \           
                |  |  |   | |  | | |   __   |  |    \   |  |\   \          
                \     /   | |  | | |  |  |  |  | |\  \  |  | \   \       
                 \___/    |_|  |_| |__|  |__|  |_| \__\ |__|  \__/        
                                                                              
                      - O R C A' S   B I G   F R I E N D -                    
                                      &                                       
                       - I N T E G R A L  F E E D E R -                       
                                                                              
 v1 FN, 2020, v2 2021, v3 2022-2024                                           
------------------------------------------------------------------------------


----------------------
SHARK INTEGRAL PACKAGE
----------------------

Number of atoms                             ...     37
Number of basis functions                   ...    387
Number of shells                            ...    179
Maximum angular momentum                    ...      2
Integral batch strategy                     ... SHARK/LIBINT Hybrid
RI-J (if used) integral strategy            ... SPLIT-RIJ (Revised 2003 algorithm where possible)
Printlevel                                  ...      1
Contraction scheme used                     ... SEGMENTED contraction
Prescreening option                         ... SCHWARTZ
   Thresh                                   ... 2.500e-11
   Tcut                                     ... 2.500e-12
   Tpresel                                  ... 2.500e-12 
Coulomb Range Separation                    ... NOT USED
Exchange Range Separation                   ... NOT USED
Multipole approximations                    ... NOT USED
Finite Nucleus Model                        ... NOT USED
CABS basis                                  ... NOT available
Auxiliary Coulomb fitting basis             ... AVAILABLE
   # of basis functions in Aux-J            ...   1245
   # of shells in Aux-J                     ...    407
   Maximum angular momentum in Aux-J        ...      4
Auxiliary J/K fitting basis                 ... NOT available
Auxiliary Correlation fitting basis         ... NOT available
Auxiliary 'external' fitting basis          ... NOT available

Checking pre-screening integrals            ... done (  0.0 sec) Dimension = 179
Check shell pair data                       ... done (  0.0 sec)
Shell pair information
Shell pair cut-off parameter TPreSel        ...   2.5e-12
Total number of shell pairs                 ...     16110
Shell pairs after pre-screening             ...     12181
Total number of primitive shell pairs       ...     60026
Primitive shell pairs kept                  ...     28751
          la=0 lb=0:   3660 shell pairs
          la=1 lb=0:   4522 shell pairs
          la=1 lb=1:   1445 shell pairs
          la=2 lb=0:   1498 shell pairs
          la=2 lb=1:    909 shell pairs
          la=2 lb=2:    147 shell pairs

Calculating one electron integrals          ... done (  0.0 sec)
Calculating RI/J V-Matrix + Cholesky decomp.... done (  0.1 sec)
Calculating Nuclear repulsion               ... done (  0.0 sec) ENN=   1809.746964265965 Eh

Diagonalization of the overlap matrix:
Smallest eigenvalue                        ... 2.642e-04
Time for diagonalization                   ...    0.021 sec
Threshold for overlap eigenvalues          ... 1.000e-07
Number of eigenvalues below threshold      ... 0
Time for construction of square roots      ...    0.011 sec
Total time needed                          ...    0.036 sec

-------------------
DFT GRID GENERATION
-------------------

General Integration Accuracy     IntAcc      ... 4.388
Radial Grid Type                 RadialGrid  ... OptM3 with GC (2021)
Angular Grid (max. ang.)         AngularGrid ... 4 (Lebedev-302)
Angular grid pruning method      GridPruning ... 4 (adaptive)
Weight generation scheme         WeightScheme... mBecke (2022)
Basis function cutoff            BFCut       ... 1.0000e-11
Integration weight cutoff        WCut        ... 1.0000e-14
Partially contracted basis set               ... off
Rotationally invariant grid construction     ... off
Angular grids for H and He will be reduced by one unit

Total number of grid points                  ...   180516
Total number of batches                      ...     2837
Average number of points per batch           ...       63
Average number of grid points per atom       ...     4879
Initializing property integral containers    ... done (  0.0 sec)

SHARK setup successfully completed in   1.3 seconds

Maximum memory used throughout the entire STARTUP-calculation: 49.3 MB


           ************************************************************
           *        Program running with 6 parallel MPI-processes     *
           *              working on a common directory               *
           ************************************************************
-------------------------------------------------------------------------------
                                 ORCA GUESS
                   Start orbitals & Density for SCF / CASSCF
-------------------------------------------------------------------------------

------------
SCF SETTINGS
------------
Hamiltonian:
 Density Functional     Method          .... DFT(GTOs)
 Exchange Functional    Exchange        .... B88
   X-Alpha parameter    XAlpha          ....  0.666667
   Becke's b parameter  XBeta           ....  0.004200
 Correlation Functional Correlation     .... LYP
 LDA part of GGA corr.  LDAOpt          .... VWN-5
 Gradients option       PostSCFGGA      .... off
 Hybrid DFT is turned on
   Fraction HF Exchange ScalHFX         ....  0.200000
   Scaling of DF-GGA-X  ScalDFX         ....  0.720000
   Scaling of DF-GGA-C  ScalDFC         ....  0.810000
   Scaling of DF-LDA-C  ScalLDAC        ....  1.000000
   Perturbative correction              ....  0.000000
   NL short-range parameter             ....  4.800000
 RI-approximation to the Coulomb term is turned on
   Number of AuxJ basis functions       .... 1245
   RIJ-ON(X) (HFX calculated with O(N)) .... on


General Settings:
 Integral files         IntName         .... data/geom_opt/87021/87021
 Hartree-Fock type      HFTyp           .... RHF
 Total Charge           Charge          ....    0
 Multiplicity           Mult            ....    1
 Number of Electrons    NEL             ....  160
 Basis Dimension        Dim             ....  387
 Nuclear Repulsion      ENuc            ....   1809.7469642660 Eh

Convergence Acceleration:
 AO-DIIS                CNVDIIS         .... on
   Start iteration      DIISMaxIt       ....    12
   Startup error        DIISStart       ....  0.200000
   # of expansion vecs  DIISMaxEq       ....     5
   Bias factor          DIISBfac        ....   1.050
   Max. coefficient     DIISMaxC        ....  10.000
 MO-DIIS                CNVKDIIS        .... off
 Trust-Rad. Augm. Hess. CNVTRAH         .... auto
   Auto Start mean grad. ratio tolernc. ....  1.125000
   Auto Start start iteration           ....    50
   Auto Start num. interpolation iter.  ....    10
   Max. Number of Micro iterations      ....    24
   Max. Number of Macro iterations      .... Maxiter - #DIIS iter
   Number of Davidson start vectors     ....     2
   Converg. threshold    (grad. norm)   ....   1.000e-05
   Grad. Scal. Fac. for Micro threshold ....   0.100
   Minimum threshold for Micro iter.    ....   1.000e-02
   NR start threshold (gradient norm)   ....   1.000e-04
   Initial trust radius                 ....   0.400
   Minimum AH scaling param. (alpha)    ....   1.000
   Maximum AH scaling param. (alpha)    .... 1000.000
   Quad. conv. algorithm                .... NR
   White noise on init. David. guess    .... on
   Maximum white noise                  ....   0.010
   Pseudo random numbers                .... off
   Inactive MOs                         .... canonical
   Orbital update algorithm             .... Taylor
   Preconditioner                       .... Diag
   Full preconditioner red. dimension   ....   250
   COSX micro iterations for RIJONX calc.... off
 SOSCF                  CNVSOSCF        .... on
   Start iteration      SOSCFMaxIt      ....   150
   Startup grad/error   SOSCFStart      ....  0.003300
   Hessian update       SOSCFHessUp     .... L-BFGS
 Level Shifting         CNVShift        .... on
   Level shift para.    LevelShift      ....    0.2500
   Turn off err/grad.   ShiftErr        ....    0.0010
 Zerner damping         CNVZerner       .... off
 Static damping         CNVDamp         .... on
   Fraction old density DampFac         ....    0.7000
   Max. Damping (<1)    DampMax         ....    0.9800
   Min. Damping (>=0)   DampMin         ....    0.0000
   Turn off err/grad.   DampErr         ....    0.1000

SCF Procedure:
 Maximum # iterations   MaxIter         ....   125
 SCF integral mode      SCFMode         .... Direct
   Integral package                     .... SHARK and LIBINT hybrid scheme
 Reset frequency        DirectResetFreq ....    20
 Integral Threshold     Thresh          ....  2.500e-11 Eh
 Primitive CutOff       TCut            ....  2.500e-12 Eh

Convergence Tolerance:
 Convergence Check Mode ConvCheckMode   .... Total+1el-Energy
 Convergence forced     ConvForced      .... 0
 Energy Change          TolE            ....  1.000e-08 Eh
 1-El. energy change                    ....  1.000e-05 Eh
 Orbital Gradient       TolG            ....  1.000e-05
 Orbital Rotation angle TolX            ....  1.000e-05
 DIIS Error             TolErr          ....  5.000e-07

------------------------------
INITIAL GUESS: MODEL POTENTIAL
------------------------------
Loading Hartree-Fock densities                     ... done
Calculating cut-offs                               ... done
Initializing the effective Hamiltonian             ... done
Setting up the integral package (SHARK)            ... done
Starting the Coulomb interaction                   ... done (   0.2 sec)
Making the grid                                    ... done (   0.3 sec)
Mapping shells                                     ... done
Starting the XC term evaluation                    ... done (   0.2 sec)
  promolecular density results
     # of electrons  =    159.993692730
     EX              =   -141.162385059
     EC              =     -5.525896142
     EX+EC           =   -146.688281202
Transforming the Hamiltonian                       ... done (   0.0 sec)
Diagonalizing the Hamiltonian                      ... done (   0.0 sec)
Back transforming the eigenvectors                 ... done (   0.0 sec)
Now organizing SCF variables                       ... done
                      ------------------
                      INITIAL GUESS DONE (   0.7 sec)
                      ------------------
             **** ENERGY FILE WAS UPDATED (data/geom_opt/87021/87021.en.tmp) ****
Finished Guess after   0.8 sec
Maximum memory used throughout the entire GUESS-calculation: 28.3 MB


           ************************************************************
           *        Program running with 6 parallel MPI-processes     *
           *              working on a common directory               *
           ************************************************************

-------------------------------------------------------------------------------------------
                                      ORCA LEAN-SCF
                              memory conserving SCF solver
-------------------------------------------------------------------------------------------

----------------------------------------D-I-I-S--------------------------------------------
Iteration    Energy (Eh)           Delta-E    RMSDP     MaxDP     DIISErr   Damp  Time(sec)
-------------------------------------------------------------------------------------------
               ***  Starting incremental Fock matrix formation  ***
    1    -1223.0520912128517921     0.00e+00  2.49e-03  8.97e-02  2.58e-01  0.700   5.5
    2    -1223.2787893647705459    -2.27e-01  1.70e-03  4.85e-02  9.57e-02  0.700   4.8
                               ***Turning on AO-DIIS***
    3    -1223.3692181894048190    -9.04e-02  8.07e-04  3.19e-02  3.97e-02  0.700   5.0
    4    -1223.4238340358806454    -5.46e-02  1.52e-03  8.08e-02  1.91e-02  0.000   4.4
    5    -1223.5430404244666533    -1.19e-01  2.33e-04  1.29e-02  5.97e-03  0.000   4.6
                              *** Initializing SOSCF ***
---------------------------------------S-O-S-C-F--------------------------------------
Iteration    Energy (Eh)           Delta-E    RMSDP     MaxDP     MaxGrad    Time(sec)
--------------------------------------------------------------------------------------
    6    -1223.5437809469117383    -7.41e-04  8.02e-05  2.72e-03  2.36e-03     4.1
               *** Restarting incremental Fock matrix formation ***
    7    -1223.5438256796637688    -4.47e-05  7.15e-05  3.61e-03  8.12e-04     5.3
    8    -1223.5437891267224586     3.66e-05  4.14e-05  2.60e-03  2.07e-03     3.8
    9    -1223.5438388298830432    -4.97e-05  1.10e-05  4.25e-04  5.08e-05     3.4
   10    -1223.5438383937485014     4.36e-07  6.50e-06  2.97e-04  1.11e-04     3.1
   11    -1223.5438392560126886    -8.62e-07  3.26e-06  1.12e-04  2.87e-05     3.1
   12    -1223.5438392409273547     1.51e-08  1.97e-06  6.38e-05  2.98e-05     2.7
   13    -1223.5438392971204848    -5.62e-08  4.84e-07  2.77e-05  3.28e-06     2.6
   14    -1223.5438392997702977    -2.65e-09  2.76e-07  9.95e-06  6.14e-06     2.2
                 **** Energy Check signals convergence ****

               *****************************************************
               *                     SUCCESS                       *
               *           SCF CONVERGED AFTER  14 CYCLES          *
               *****************************************************

             **** ENERGY FILE WAS UPDATED (data/geom_opt/87021/87021.en.tmp) ****

----------------
TOTAL SCF ENERGY
----------------

Total Energy       :      -1223.54383929977030 Eh          -33294.32052 eV

Components:
Nuclear Repulsion  :       1809.74696426596483 Eh           49245.71850 eV
Electronic Energy  :      -3033.29080356573513 Eh          -82540.03902 eV
One Electron Energy:      -5266.47648822025440 Eh         -143308.11089 eV
Two Electron Energy:       2233.18568465451926 Eh           60768.07187 eV

Virial components:
Potential Energy   :      -2437.51913840743146 Eh          -66328.26782 eV
Kinetic Energy     :       1213.97529910766139 Eh           33033.94730 eV
Virial Ratio       :          2.00788198919627

DFT components:
N(Alpha)           :       80.000065618670 electrons
N(Beta)            :       80.000065618670 electrons
N(Total)           :      160.000131237341 electrons
E(X)               :     -113.401475637078 Eh       
E(C)               :       -6.508582299874 Eh       
E(XC)              :     -119.910057936952 Eh       

---------------
SCF CONVERGENCE
---------------

  Last Energy change         ...    2.6498e-09  Tolerance :   1.0000e-08
  Last MAX-Density change    ...    9.9534e-06  Tolerance :   1.0000e-07
  Last RMS-Density change    ...    2.7631e-07  Tolerance :   5.0000e-09
  Last DIIS Error            ...    2.3611e-03  Tolerance :   5.0000e-07
  Last Orbital Gradient      ...    6.1428e-06  Tolerance :   1.0000e-05
  Last Orbital Rotation      ...    9.3798e-06  Tolerance :   1.0000e-05


----------------
ORBITAL ENERGIES
----------------

  NO   OCC          E(Eh)            E(eV) 
   0   2.0000     -77.047357     -2096.5652 
   1   2.0000     -19.181012      -521.9419 
   2   2.0000     -19.123597      -520.3795 
   3   2.0000     -10.317446      -280.7520 
   4   2.0000     -10.212779      -277.9038 
   5   2.0000     -10.206998      -277.7465 
   6   2.0000     -10.204144      -277.6689 
   7   2.0000     -10.201736      -277.6034 
   8   2.0000     -10.201345      -277.5927 
   9   2.0000     -10.200856      -277.5794 
  10   2.0000     -10.192681      -277.3569 
  11   2.0000     -10.190389      -277.2946 
  12   2.0000     -10.189242      -277.2634 
  13   2.0000     -10.188683      -277.2482 
  14   2.0000     -10.188449      -277.2418 
  15   2.0000     -10.187590      -277.2184 
  16   2.0000     -10.187252      -277.2092 
  17   2.0000     -10.187151      -277.2065 
  18   2.0000     -10.187120      -277.2056 
  19   2.0000     -10.186204      -277.1807 
  20   2.0000     -10.185478      -277.1609 
  21   2.0000     -10.184871      -277.1444 
  22   2.0000      -6.544111      -178.0743 
  23   2.0000      -4.709563      -128.1537 
  24   2.0000      -4.709410      -128.1496 
  25   2.0000      -4.706508      -128.0706 
  26   2.0000      -1.097946       -29.8766 
  27   2.0000      -0.999442       -27.1962 
  28   2.0000      -0.864045       -23.5119 
  29   2.0000      -0.848076       -23.0773 
  30   2.0000      -0.843221       -22.9452 
  31   2.0000      -0.772882       -21.0312 
  32   2.0000      -0.766707       -20.8632 
  33   2.0000      -0.742801       -20.2126 
  34   2.0000      -0.735794       -20.0220 
  35   2.0000      -0.735240       -20.0069 
  36   2.0000      -0.732475       -19.9317 
  37   2.0000      -0.666106       -18.1257 
  38   2.0000      -0.641351       -17.4520 
  39   2.0000      -0.612043       -16.6545 
  40   2.0000      -0.599922       -16.3247 
  41   2.0000      -0.596893       -16.2423 
  42   2.0000      -0.589888       -16.0517 
  43   2.0000      -0.582350       -15.8465 
  44   2.0000      -0.555603       -15.1187 
  45   2.0000      -0.527692       -14.3592 
  46   2.0000      -0.514206       -13.9923 
  47   2.0000      -0.498945       -13.5770 
  48   2.0000      -0.483405       -13.1541 
  49   2.0000      -0.475695       -12.9443 
  50   2.0000      -0.474122       -12.9015 
  51   2.0000      -0.454209       -12.3596 
  52   2.0000      -0.452635       -12.3168 
  53   2.0000      -0.447077       -12.1656 
  54   2.0000      -0.444659       -12.0998 
  55   2.0000      -0.442035       -12.0284 
  56   2.0000      -0.433009       -11.7828 
  57   2.0000      -0.418905       -11.3990 
  58   2.0000      -0.417732       -11.3671 
  59   2.0000      -0.415766       -11.3136 
  60   2.0000      -0.406675       -11.0662 
  61   2.0000      -0.402256       -10.9459 
  62   2.0000      -0.380145       -10.3443 
  63   2.0000      -0.375004       -10.2044 
  64   2.0000      -0.367511       -10.0005 
  65   2.0000      -0.366394        -9.9701 
  66   2.0000      -0.365101        -9.9349 
  67   2.0000      -0.345718        -9.4075 
  68   2.0000      -0.343208        -9.3392 
  69   2.0000      -0.333716        -9.0809 
  70   2.0000      -0.326159        -8.8752 
  71   2.0000      -0.321079        -8.7370 
  72   2.0000      -0.287996        -7.8368 
  73   2.0000      -0.275129        -7.4866 
  74   2.0000      -0.273140        -7.4325 
  75   2.0000      -0.263738        -7.1767 
  76   2.0000      -0.256142        -6.9700 
  77   2.0000      -0.251456        -6.8425 
  78   2.0000      -0.248077        -6.7505 
  79   2.0000      -0.203476        -5.5369 
  80   0.0000      -0.047987        -1.3058 
  81   0.0000      -0.033516        -0.9120 
  82   0.0000      -0.017604        -0.4790 
  83   0.0000      -0.011681        -0.3179 
  84   0.0000      -0.010714        -0.2915 
  85   0.0000       0.000656         0.0179 
  86   0.0000       0.030335         0.8255 
  87   0.0000       0.055087         1.4990 
  88   0.0000       0.064672         1.7598 
  89   0.0000       0.065566         1.7841 
  90   0.0000       0.070325         1.9136 
*Only the first 10 virtual orbitals were printed.

                    ********************************
                    * MULLIKEN POPULATION ANALYSIS *
                    ********************************

-----------------------
MULLIKEN ATOMIC CHARGES
-----------------------
   0 C :    0.019970
   1 C :    0.025685
   2 C :   -0.002208
   3 C :   -0.111012
   4 C :   -0.003215
   5 C :    0.023734
   6 P :    0.361129
   7 C :   -0.133296
   8 C :    0.024717
   9 C :    0.025611
  10 C :    0.027276
  11 C :    0.028269
  12 C :    0.002529
  13 C :   -0.117605
  14 C :    0.019545
  15 C :    0.041825
  16 C :    0.026662
  17 C :    0.026321
  18 C :   -0.002831
  19 C :    0.143510
  20 O :   -0.212572
  21 O :   -0.177158
  22 H :   -0.022178
  23 H :   -0.022007
  24 H :   -0.015814
  25 H :   -0.014080
  26 H :   -0.020440
  27 H :   -0.001630
  28 H :   -0.018410
  29 H :   -0.020082
  30 H :   -0.024017
  31 H :   -0.007347
  32 H :   -0.012255
  33 H :   -0.015181
  34 H :   -0.012399
  35 H :   -0.011957
  36 H :    0.180913
Sum of atomic charges:   -0.0000000

--------------------------------
MULLIKEN REDUCED ORBITAL CHARGES
--------------------------------
  0 C s       :     3.157007  s :     3.157007
      pz      :     0.964311  p :     2.787621
      px      :     0.920002
      py      :     0.903308
      dz2     :     0.002971  d :     0.035402
      dxz     :     0.006246
      dyz     :     0.004819
      dx2y2   :     0.009906
      dxy     :     0.011460

  1 C s       :     3.156928  s :     3.156928
      pz      :     0.971768  p :     2.782000
      px      :     0.942294
      py      :     0.867938
      dz2     :     0.003751  d :     0.035387
      dxz     :     0.006852
      dyz     :     0.003710
      dx2y2   :     0.010379
      dxy     :     0.010696

  2 C s       :     3.214687  s :     3.214687
      pz      :     0.973176  p :     2.752718
      px      :     0.844662
      py      :     0.934880
      dz2     :     0.004205  d :     0.034803
      dxz     :     0.003644
      dyz     :     0.006164
      dx2y2   :     0.011175
      dxy     :     0.009615

  3 C s       :     3.054491  s :     3.054491
      pz      :     0.983835  p :     3.019989
      px      :     1.021104
      py      :     1.015050
      dz2     :     0.004179  d :     0.036532
      dxz     :     0.006403
      dyz     :     0.005444
      dx2y2   :     0.009658
      dxy     :     0.010849

  4 C s       :     3.215454  s :     3.215454
      pz      :     0.959155  p :     2.753010
      px      :     0.928760
      py      :     0.865096
      dz2     :     0.003648  d :     0.034751
      dxz     :     0.006619
      dyz     :     0.003680
      dx2y2   :     0.010036
      dxy     :     0.010767

  5 C s       :     3.158152  s :     3.158152
      pz      :     0.980659  p :     2.782687
      px      :     0.838475
      py      :     0.963553
      dz2     :     0.004458  d :     0.035426
      dxz     :     0.003863
      dyz     :     0.006256
      dx2y2   :     0.011357
      dxy     :     0.009492

  6 P s       :     5.644180  s :     5.644180
      pz      :     3.341403  p :     8.816033
      px      :     2.734090
      py      :     2.740540
      dz2     :     0.014639  d :     0.178659
      dxz     :     0.034099
      dyz     :     0.038419
      dx2y2   :     0.045353
      dxy     :     0.046148

  7 C s       :     3.066000  s :     3.066000
      pz      :     1.004570  p :     3.030543
      px      :     1.021083
      py      :     1.004890
      dz2     :     0.009521  d :     0.036753
      dxz     :     0.005606
      dyz     :     0.011833
      dx2y2   :     0.005262
      dxy     :     0.004531

  8 C s       :     3.222281  s :     3.222281
      pz      :     0.872224  p :     2.718225
      px      :     0.937995
      py      :     0.908006
      dz2     :     0.007994  d :     0.034777
      dxz     :     0.003468
      dyz     :     0.010118
      dx2y2   :     0.006375
      dxy     :     0.006821

  9 C s       :     3.159529  s :     3.159529
      pz      :     0.917953  p :     2.779794
      px      :     0.981084
      py      :     0.880757
      dz2     :     0.008203  d :     0.035065
      dxz     :     0.004873
      dyz     :     0.011832
      dx2y2   :     0.005480
      dxy     :     0.004676

 10 C s       :     3.157638  s :     3.157638
      pz      :     0.949904  p :     2.779576
      px      :     0.969499
      py      :     0.860174
      dz2     :     0.009338  d :     0.035509
      dxz     :     0.005648
      dyz     :     0.010934
      dx2y2   :     0.005197
      dxy     :     0.004392

 11 C s       :     3.157942  s :     3.157942
      pz      :     0.845950  p :     2.778662
      px      :     0.971502
      py      :     0.961210
      dz2     :     0.008336  d :     0.035127
      dxz     :     0.003497
      dyz     :     0.010150
      dx2y2   :     0.006345
      dxy     :     0.006799

 12 C s       :     3.212303  s :     3.212303
      pz      :     0.931232  p :     2.749987
      px      :     0.970171
      py      :     0.848584
      dz2     :     0.008026  d :     0.035181
      dxz     :     0.004831
      dyz     :     0.012190
      dx2y2   :     0.005324
      dxy     :     0.004810

 13 C s       :     3.081090  s :     3.081090
      pz      :     0.985044  p :     3.000477
      px      :     1.020784
      py      :     0.994649
      dz2     :     0.009627  d :     0.036038
      dxz     :     0.012348
      dyz     :     0.005579
      dx2y2   :     0.004670
      dxy     :     0.003815

 14 C s       :     3.219040  s :     3.219040
      pz      :     0.926563  p :     2.726616
      px      :     0.845683
      py      :     0.954371
      dz2     :     0.008683  d :     0.034799
      dxz     :     0.013199
      dyz     :     0.004672
      dx2y2   :     0.004440
      dxy     :     0.003805

 15 C s       :     3.158450  s :     3.158450
      pz      :     0.827698  p :     2.764391
      px      :     0.966638
      py      :     0.970055
      dz2     :     0.009905  d :     0.035335
      dxz     :     0.010861
      dyz     :     0.002614
      dx2y2   :     0.005762
      dxy     :     0.006193

 16 C s       :     3.161449  s :     3.161449
      pz      :     0.943520  p :     2.776451
      px      :     0.862131
      py      :     0.970799
      dz2     :     0.009900  d :     0.035438
      dxz     :     0.012067
      dyz     :     0.005649
      dx2y2   :     0.004524
      dxy     :     0.003298

 17 C s       :     3.220109  s :     3.220109
      pz      :     0.877518  p :     2.719023
      px      :     0.875821
      py      :     0.965685
      dz2     :     0.008762  d :     0.034547
      dxz     :     0.012391
      dyz     :     0.005140
      dx2y2   :     0.004528
      dxy     :     0.003726

 18 C s       :     3.096262  s :     3.096262
      pz      :     0.927250  p :     2.867563
      px      :     0.946856
      py      :     0.993458
      dz2     :     0.012146  d :     0.039006
      dxz     :     0.010476
      dyz     :     0.003609
      dx2y2   :     0.005882
      dxy     :     0.006894

 19 C s       :     3.067949  s :     3.067949
      pz      :     0.991454  p :     2.655341
      px      :     0.827540
      py      :     0.836348
      dz2     :     0.031142  d :     0.133199
      dxz     :     0.020671
      dyz     :     0.031266
      dx2y2   :     0.026899
      dxy     :     0.023220

 20 O s       :     3.740187  s :     3.740187
      pz      :     1.635962  p :     4.454267
      px      :     1.412412
      py      :     1.405894
      dz2     :     0.002314  d :     0.018118
      dxz     :     0.002982
      dyz     :     0.004220
      dx2y2   :     0.004435
      dxy     :     0.004168

 21 O s       :     3.689679  s :     3.689679
      pz      :     1.223299  p :     4.473393
      px      :     1.648491
      py      :     1.601603
      dz2     :     0.003391  d :     0.014085
      dxz     :     0.001679
      dyz     :     0.002883
      dx2y2   :     0.002705
      dxy     :     0.003426

 22 H s       :     0.999157  s :     0.999157
      pz      :     0.006573  p :     0.023021
      px      :     0.007348
      py      :     0.009100

 23 H s       :     0.999020  s :     0.999020
      pz      :     0.005377  p :     0.022987
      px      :     0.005207
      py      :     0.012403

 24 H s       :     0.992454  s :     0.992454
      pz      :     0.004804  p :     0.023360
      px      :     0.014289
      py      :     0.004267

 25 H s       :     0.990865  s :     0.990865
      pz      :     0.005608  p :     0.023215
      px      :     0.005476
      py      :     0.012131

 26 H s       :     0.997448  s :     0.997448
      pz      :     0.004622  p :     0.022992
      px      :     0.014394
      py      :     0.003976

 27 H s       :     0.978338  s :     0.978338
      pz      :     0.013796  p :     0.023292
      px      :     0.006029
      py      :     0.003467

 28 H s       :     0.995424  s :     0.995424
      pz      :     0.007456  p :     0.022987
      px      :     0.004719
      py      :     0.010812

 29 H s       :     0.997128  s :     0.997128
      pz      :     0.004961  p :     0.022954
      px      :     0.005138
      py      :     0.012854

 30 H s       :     1.001016  s :     1.001016
      pz      :     0.013434  p :     0.023001
      px      :     0.006037
      py      :     0.003530

 31 H s       :     0.984062  s :     0.984062
      pz      :     0.007608  p :     0.023285
      px      :     0.004922
      py      :     0.010755

 32 H s       :     0.989070  s :     0.989070
      pz      :     0.007712  p :     0.023185
      px      :     0.010836
      py      :     0.004637

 33 H s       :     0.992238  s :     0.992238
      pz      :     0.014797  p :     0.022943
      px      :     0.003479
      py      :     0.004668

 34 H s       :     0.989425  s :     0.989425
      pz      :     0.005241  p :     0.022973
      px      :     0.012994
      py      :     0.004737

 35 H s       :     0.988736  s :     0.988736
      pz      :     0.007576  p :     0.023221
      px      :     0.011060
      py      :     0.004585

 36 H s       :     0.753564  s :     0.753564
      pz      :     0.036002  p :     0.065522
      px      :     0.014801
      py      :     0.014719



                     *******************************
                     * LOEWDIN POPULATION ANALYSIS *
                     *******************************

----------------------
LOEWDIN ATOMIC CHARGES
----------------------
   0 C :   -0.029600
   1 C :   -0.024124
   2 C :   -0.035086
   3 C :   -0.180289
   4 C :   -0.030467
   5 C :   -0.023852
   6 P :    0.532096
   7 C :   -0.175741
   8 C :   -0.016148
   9 C :   -0.024400
  10 C :   -0.019645
  11 C :   -0.027088
  12 C :   -0.026896
  13 C :   -0.151704
  14 C :   -0.010462
  15 C :   -0.014372
  16 C :   -0.015273
  17 C :   -0.002117
  18 C :   -0.061291
  19 C :    0.082238
  20 O :   -0.179158
  21 O :   -0.037921
  22 H :    0.024485
  23 H :    0.025661
  24 H :    0.023441
  25 H :    0.025245
  26 H :    0.026354
  27 H :    0.030422
  28 H :    0.026946
  29 H :    0.025309
  30 H :    0.024996
  31 H :    0.022492
  32 H :    0.027385
  33 H :    0.029071
  34 H :    0.029842
  35 H :    0.031449
  36 H :    0.098200

-------------------------------
LOEWDIN REDUCED ORBITAL CHARGES
-------------------------------
  0 C s       :     2.858362  s :     2.858362
      pz      :     0.985227  p :     3.079281
      px      :     1.055158
      py      :     1.038897
      dz2     :     0.006824  d :     0.091957
      dxz     :     0.014584
      dyz     :     0.011391
      dx2y2   :     0.027658
      dxy     :     0.031500

  1 C s       :     2.859947  s :     2.859947
      pz      :     0.984822  p :     3.072602
      px      :     1.060365
      py      :     1.027415
      dz2     :     0.008488  d :     0.091575
      dxz     :     0.016389
      dyz     :     0.008718
      dx2y2   :     0.028702
      dxy     :     0.029279

  2 C s       :     2.862425  s :     2.862425
      pz      :     0.991647  p :     3.081537
      px      :     1.039004
      py      :     1.050886
      dz2     :     0.009188  d :     0.091123
      dxz     :     0.008489
      dyz     :     0.015688
      dx2y2   :     0.030943
      dxy     :     0.026814

  3 C s       :     2.912916  s :     2.912916
      pz      :     1.004211  p :     3.175738
      px      :     1.088673
      py      :     1.082855
      dz2     :     0.009032  d :     0.091635
      dxz     :     0.014455
      dyz     :     0.012601
      dx2y2   :     0.027163
      dxy     :     0.028384

  4 C s       :     2.862705  s :     2.862705
      pz      :     0.989425  p :     3.076953
      px      :     1.054171
      py      :     1.033357
      dz2     :     0.008085  d :     0.090809
      dxz     :     0.016112
      dyz     :     0.008661
      dx2y2   :     0.028274
      dxy     :     0.029677

  5 C s       :     2.859741  s :     2.859741
      pz      :     0.987376  p :     3.072455
      px      :     1.034172
      py      :     1.050907
      dz2     :     0.009928  d :     0.091657
      dxz     :     0.008963
      dyz     :     0.015694
      dx2y2   :     0.030545
      dxy     :     0.026527

  6 P s       :     5.235412  s :     5.235412
      pz      :     3.413522  p :     8.986132
      px      :     2.782345
      py      :     2.790265
      dz2     :     0.021146  d :     0.246360
      dxz     :     0.045732
      dyz     :     0.051299
      dx2y2   :     0.063957
      dxy     :     0.064226

  7 C s       :     2.910909  s :     2.910909
      pz      :     1.083538  p :     3.172403
      px      :     1.009778
      py      :     1.079088
      dz2     :     0.024908  d :     0.092428
      dxz     :     0.013350
      dyz     :     0.032295
      dx2y2   :     0.012462
      dxy     :     0.009413

  8 C s       :     2.867417  s :     2.867417
      pz      :     1.035208  p :     3.058078
      px      :     0.959649
      py      :     1.063221
      dz2     :     0.021115  d :     0.090652
      dxz     :     0.007489
      dyz     :     0.028149
      dx2y2   :     0.018164
      dxy     :     0.015735

  9 C s       :     2.860212  s :     2.860212
      pz      :     1.045678  p :     3.073181
      px      :     0.980069
      py      :     1.047435
      dz2     :     0.022323  d :     0.091006
      dxz     :     0.011692
      dyz     :     0.032236
      dx2y2   :     0.014130
      dxy     :     0.010625

 10 C s       :     2.859823  s :     2.859823
      pz      :     1.054337  p :     3.067830
      px      :     0.971348
      py      :     1.042145
      dz2     :     0.025176  d :     0.091991
      dxz     :     0.013551
      dyz     :     0.030437
      dx2y2   :     0.013203
      dxy     :     0.009625

 11 C s       :     2.860252  s :     2.860252
      pz      :     1.029553  p :     3.075718
      px      :     0.980124
      py      :     1.066040
      dz2     :     0.021685  d :     0.091118
      dxz     :     0.007529
      dyz     :     0.028584
      dx2y2   :     0.017625
      dxy     :     0.015696

 12 C s       :     2.864376  s :     2.864376
      pz      :     1.042542  p :     3.070442
      px      :     0.977258
      py      :     1.050642
      dz2     :     0.021915  d :     0.092079
      dxz     :     0.011691
      dyz     :     0.033786
      dx2y2   :     0.013669
      dxy     :     0.011017

 13 C s       :     2.913565  s :     2.913565
      pz      :     1.083880  p :     3.147077
      px      :     1.084094
      py      :     0.979104
      dz2     :     0.027424  d :     0.091061
      dxz     :     0.034090
      dyz     :     0.011570
      dx2y2   :     0.010998
      dxy     :     0.006979

 14 C s       :     2.866584  s :     2.866584
      pz      :     1.054280  p :     3.052923
      px      :     1.052146
      py      :     0.946496
      dz2     :     0.024777  d :     0.090955
      dxz     :     0.037079
      dyz     :     0.009956
      dx2y2   :     0.011582
      dxy     :     0.007562

 15 C s       :     2.861296  s :     2.861296
      pz      :     1.039265  p :     3.061616
[...]
      dx2y2   :     0.015376
      dxy     :     0.016823

 15 C s       :     2.865035  s :     2.865035
      pz      :     1.008277  p :     3.049458
      px      :     1.065045
      py      :     0.976136
      dz2     :     0.015059  d :     0.091167
      dxz     :     0.024181
      dyz     :     0.011593
      dx2y2   :     0.020702
      dxy     :     0.019631

 16 C s       :     2.861340  s :     2.861340
      pz      :     1.028878  p :     3.075269
      px      :     1.041791
      py      :     1.004601
      dz2     :     0.016884  d :     0.090454
      dxz     :     0.025137
      dyz     :     0.014190
      dx2y2   :     0.018225
      dxy     :     0.016017

 17 C s       :     2.863310  s :     2.863310
      pz      :     1.021047  p :     3.042818
      px      :     1.041634
      py      :     0.980137
      dz2     :     0.019406  d :     0.090368
      dxz     :     0.024870
      dyz     :     0.014430
      dx2y2   :     0.014925
      dxy     :     0.016738

 18 C s       :     2.864906  s :     2.864906
      pz      :     1.019747  p :     3.114737
      px      :     1.073167
      py      :     1.021823
      dz2     :     0.018861  d :     0.103935
      dxz     :     0.025330
      dyz     :     0.017002
      dx2y2   :     0.023296
      dxy     :     0.019446

 19 C s       :     2.842387  s :     2.842387
      pz      :     0.966551  p :     2.780616
      px      :     0.934045
      py      :     0.880020
      dz2     :     0.059551  d :     0.290315
      dxz     :     0.066952
      dyz     :     0.028696
      dx2y2   :     0.072082
      dxy     :     0.063034

 20 O s       :     3.546540  s :     3.546540
      pz      :     1.549139  p :     4.594507
      px      :     1.544718
      py      :     1.500650
      dz2     :     0.004243  d :     0.031534
      dxz     :     0.011761
      dyz     :     0.002897
      dx2y2   :     0.006611
      dxy     :     0.006021

 21 O s       :     3.427723  s :     3.427723
      pz      :     1.484524  p :     4.584735
      px      :     1.524086
      py      :     1.576126
      dz2     :     0.005051  d :     0.026760
      dxz     :     0.004095
      dyz     :     0.005534
      dx2y2   :     0.007069
      dxy     :     0.005012

 22 H s       :     0.906978  s :     0.906978
      pz      :     0.020301  p :     0.066510
      px      :     0.024997
      py      :     0.021212

 23 H s       :     0.906556  s :     0.906556
      pz      :     0.013942  p :     0.066497
      px      :     0.012940
      py      :     0.039615

 24 H s       :     0.909075  s :     0.909075
      pz      :     0.030633  p :     0.067507
      px      :     0.021403
      py      :     0.015470

 25 H s       :     0.901673  s :     0.901673
      pz      :     0.013748  p :     0.069870
      px      :     0.013265
      py      :     0.042857

 26 H s       :     0.906864  s :     0.906864
      pz      :     0.029474  p :     0.066507
      px      :     0.021200
      py      :     0.015833

 27 H s       :     0.907360  s :     0.907360
      pz      :     0.031558  p :     0.067263
      px      :     0.016196
      py      :     0.019508

 28 H s       :     0.906783  s :     0.906783
      pz      :     0.022873  p :     0.066425
      px      :     0.026953
      py      :     0.016599

 29 H s       :     0.907749  s :     0.907749
      pz      :     0.013045  p :     0.066493
      px      :     0.015774
      py      :     0.037674

 30 H s       :     0.907931  s :     0.907931
      pz      :     0.030552  p :     0.066462
      px      :     0.016716
      py      :     0.019194

 31 H s       :     0.906041  s :     0.906041
      pz      :     0.023294  p :     0.068922
      px      :     0.028083
      py      :     0.017544

 32 H s       :     0.895511  s :     0.895511
      pz      :     0.014932  p :     0.071821
      px      :     0.037653
      py      :     0.019237

 33 H s       :     0.903163  s :     0.903163
      pz      :     0.032337  p :     0.066467
      px      :     0.011029
      py      :     0.023101

 34 H s       :     0.903777  s :     0.903777
      pz      :     0.020150  p :     0.066841
      px      :     0.033193
      py      :     0.013497

 35 H s       :     0.897458  s :     0.897458
      pz      :     0.015921  p :     0.070180
      px      :     0.034687
      py      :     0.019572

 36 H s       :     0.730005  s :     0.730005
      pz      :     0.079014  p :     0.173235
      px      :     0.034515
      py      :     0.059706



                      *****************************
                      * MAYER POPULATION ANALYSIS *
                      *****************************

  NA   - Mulliken gross atomic population
  ZA   - Total nuclear charge
  QA   - Mulliken gross atomic charge
  VA   - Mayer's total valence
  BVA  - Mayer's bonded valence
  FA   - Mayer's free valence

  ATOM       NA         ZA         QA         VA         BVA        FA
  0 C      5.9776     6.0000     0.0224     3.8227     3.8227    -0.0000
  1 C      5.9785     6.0000     0.0215     3.8448     3.8448    -0.0000
  2 C      5.9806     6.0000     0.0194     3.8727     3.8727    -0.0000
  3 C      6.1853     6.0000    -0.1853     3.7786     3.7786    -0.0000
  4 C      5.9755     6.0000     0.0245     3.8748     3.8748    -0.0000
  5 C      5.9734     6.0000     0.0266     3.8293     3.8293    -0.0000
  6 P     14.5981    15.0000     0.4019     2.9688     2.9688    -0.0000
  7 C      6.1275     6.0000    -0.1275     3.8575     3.8575    -0.0000
  8 C      5.9662     6.0000     0.0338     3.8820     3.8820    -0.0000
  9 C      5.9808     6.0000     0.0192     3.8483     3.8483    -0.0000
 10 C      5.9769     6.0000     0.0231     3.8236     3.8236    -0.0000
 11 C      5.9792     6.0000     0.0208     3.8339     3.8339    -0.0000
 12 C      5.9873     6.0000     0.0127     3.8760     3.8760    -0.0000
 13 C      6.1568     6.0000    -0.1568     3.8786     3.8786    -0.0000
 14 C      5.9932     6.0000     0.0068     3.8877     3.8877    -0.0000
 15 C      5.9571     6.0000     0.0429     3.8051     3.8051    -0.0000
 16 C      5.9681     6.0000     0.0319     3.7861     3.7861    -0.0000
 17 C      5.9832     6.0000     0.0168     3.8266     3.8266    -0.0000
 18 C      6.0420     6.0000    -0.0420     3.7975     3.7975    -0.0000
 19 C      5.8295     6.0000     0.1705     4.2923     4.2923    -0.0000
 20 O      8.2093     8.0000    -0.2093     2.2849     2.2849    -0.0000
 21 O      8.1745     8.0000    -0.1745     2.2790     2.2790    -0.0000
 22 H      1.0161     1.0000    -0.0161     0.9773     0.9773    -0.0000
 23 H      1.0167     1.0000    -0.0167     0.9774     0.9774    -0.0000
 24 H      1.0169     1.0000    -0.0169     0.9914     0.9914    -0.0000
 25 H      1.0086     1.0000    -0.0086     0.9980     0.9980    -0.0000
 26 H      1.0190     1.0000    -0.0190     0.9772     0.9772    -0.0000
 27 H      1.0178     1.0000    -0.0178     0.9902     0.9902    -0.0000
 28 H      1.0176     1.0000    -0.0176     0.9774     0.9774    -0.0000
 29 H      1.0183     1.0000    -0.0183     0.9771     0.9771    -0.0000
 30 H      1.0214     1.0000    -0.0214     0.9770     0.9770     0.0000
 31 H      1.0092     1.0000    -0.0092     0.9877     0.9877     0.0000
 32 H      0.9905     1.0000     0.0095     0.9919     0.9919    -0.0000
 33 H      1.0119     1.0000    -0.0119     0.9776     0.9776    -0.0000
 34 H      1.0131     1.0000    -0.0131     0.9790     0.9790    -0.0000
 35 H      1.0044     1.0000    -0.0044     1.0062     1.0062    -0.0000
 36 H      0.8182     1.0000     0.1818     1.0336     1.0336    -0.0000

  Mayer bond orders larger than 0.100000
B(  0-C ,  1-C ) :   1.3786 B(  0-C ,  5-C ) :   1.3768 B(  0-C , 22-H ) :   0.9842 
B(  1-C ,  2-C ) :   1.3969 B(  1-C , 23-H ) :   0.9855 B(  2-C ,  3-C ) :   1.3759 
B(  2-C , 24-H ) :   0.9816 B(  3-C ,  4-C ) :   1.3764 B(  3-C ,  6-P ) :   0.8892 
B(  4-C ,  5-C ) :   1.3890 B(  4-C , 25-H ) :   0.9796 B(  5-C , 26-H ) :   0.9838 
B(  6-P ,  7-C ) :   0.9394 B(  6-P , 13-C ) :   0.9398 B(  7-C ,  8-C ) :   1.3850 
B(  7-C , 12-C ) :   1.3793 B(  8-C ,  9-C ) :   1.3974 B(  8-C , 27-H ) :   0.9816 
B(  9-C , 10-C ) :   1.3789 B(  9-C , 28-H ) :   0.9846 B( 10-C , 11-C ) :   1.3790 
B( 10-C , 29-H ) :   0.9844 B( 11-C , 12-C ) :   1.3847 B( 11-C , 30-H ) :   0.9841 
B( 12-C , 31-H ) :   0.9780 B( 13-C , 14-C ) :   1.3933 B( 13-C , 18-C ) :   1.3768 
B( 14-C , 15-C ) :   1.3793 B( 14-C , 32-H ) :   0.9735 B( 15-C , 16-C ) :   1.3569 
B( 15-C , 33-H ) :   0.9841 B( 16-C , 17-C ) :   1.3635 B( 16-C , 34-H ) :   0.9862 
B( 17-C , 18-C ) :   1.3723 B( 17-C , 35-H ) :   0.9806 B( 18-C , 19-C ) :   0.9513 
B( 19-C , 20-O ) :   2.0335 B( 19-C , 21-O ) :   1.2595 B( 21-O , 36-H ) :   0.9442 


-------
TIMINGS
-------

Total SCF time: 0 days 0 hours 0 min 24 sec 

Total time                  ....      24.311 sec
Sum of individual times     ....      24.221 sec  ( 99.6%)

SCF preparation             ....       0.152 sec  (  0.6%)
Fock matrix formation       ....      23.491 sec  ( 96.6%)
  Startup                   ....       0.028 sec  (  0.1% of F)
  Exchange formation        ....      18.206 sec  ( 77.5% of F)
  Split-RI-J                ....       1.935 sec  (  8.2% of F)
  XC integration            ....       3.220 sec  ( 13.7% of F)
    Basis function eval.    ....       1.004 sec  ( 31.2% of XC)
    Density eval.           ....       1.016 sec  ( 31.6% of XC)
    XC-Functional eval.     ....       0.065 sec  (  2.0% of XC)
    XC-Potential eval.      ....       0.663 sec  ( 20.6% of XC)
Diagonalization             ....       0.000 sec  (  0.0%)
Density matrix formation    ....       0.062 sec  (  0.3%)
Total Energy calculation    ....       0.026 sec  (  0.1%)
Population analysis         ....       0.123 sec  (  0.5%)
Orbital Transformation      ....       0.045 sec  (  0.2%)
Orbital Orthonormalization  ....       0.000 sec  (  0.0%)
DIIS solution               ....       0.053 sec  (  0.2%)
SOSCF solution              ....       0.269 sec  (  1.1%)
Finished LeanSCF after  24.4 sec

Maximum memory used throughout the entire LEANSCF-calculation: 42.4 MB


-------------------------------------------------------------------------------
                          DFT DISPERSION CORRECTION                            
                                                                               
                              DFTD3 V3.1  Rev 1                                
                          USING Becke-Johnson damping                          
-------------------------------------------------------------------------------
The B3LYP functional is recognized
Active option DFTDOPT                   ...         4   

molecular C6(AA) [au] = 19707.852543 


            DFT-D V3
 parameters
 s6 scaling factor         :     1.0000 
 a1 scaling factor         :     0.3981 
 s8 scaling factor         :     1.9889 
 a2 scaling factor         :     4.4211 
 ad hoc parameters k1-k3   :    16.0000     1.3333    -4.0000 

 Edisp/kcal,au: -60.784325811781  -0.096865978667 
 E6   /kcal   : -27.517348444 
 E8   /kcal   : -33.266977368 
 % E8         :  54.729532529 

-------------------------   ----------------
Dispersion correction           -0.096865979
-------------------------   ----------------


-------------------------   --------------------
FINAL SINGLE POINT ENERGY     -1223.651581284477
-------------------------   --------------------

                                *** OPTIMIZATION RUN DONE ***



           ************************************************************
           *        Program running with 6 parallel MPI-processes     *
           *              working on a common directory               *
           ************************************************************

------------------------------------------------------------------------------
                              ORCA PROPERTY CALCULATIONS
------------------------------------------------------------------------------

GBWName                                 ... data/geom_opt/87021/87021.gbw
Number of atoms                         ...     37
Number of basis functions               ...    387
Max core memory                         ...   1024 MB

Electric properties:
Dipole moment                           ... YES
Quadrupole moment                       ...  NO
Static polarizability (Dipole/Dipole)   ...  NO
Static polarizability (Dipole/Quad.)    ...  NO
Static polarizability (Quad./Quad.)     ...  NO
Static polarizability (Velocity)        ...  NO

Atomic electric properties:
Dipole moment                           ...  NO
Quadrupole moment                       ...  NO
Static polarizability                   ...  NO

Choice of electric origin               ... Center of mass
Position of electric origin             ...     0.332969     0.035673     0.551794

General magnetic properties:
Magnetizability                         ...  NO

EPR properties:
g-Tensor (aka g-matrix)                 ...  NO
Zero-Field splitting spin-orbit         ...  NO
Zero-field splitting spin-spin          ...  NO
Hyperfine couplings                     ...  NO (   0 nuclei)
Quadrupole couplings                    ...  NO (   0 nuclei)
Contact density                         ...  NO (   0 nuclei)

NMR properties:
Chemical shifts                         ...  NO (   0 nuclei)
Spin-rotation constants                 ...  NO (   0 nuclei)
Spin-spin couplings                     ...  NO (   0 nuclei,    0 pairs)

Choice of magnetic origin               ... GIAO
Position of magnetic origin             ...     0.000000     0.000000     0.000000

Properties with geometric perturbations:
SCF Hessian                             ...  NO
IR spectrum                             ...  NO
VCD spectrum                            ...  NO
X-ray spectroscopy properties:
SCF XES/XAS/RIXS spectra                ...  NO


-------------
DIPOLE MOMENT
-------------

Method             : SCF
Type of density    : Electron Density
Multiplicity       :   1
Irrep              :   0
Energy             : -1223.5547153058096228 Eh
Relativity type    : 
Basis              : AO
                                X                 Y                 Z
Electronic contribution:      5.512573170       0.184760014       8.281164145
Nuclear contribution   :     -5.072025384      -0.175861715      -8.966674868
                        -----------------------------------------
Total Dipole Moment    :      0.440547786       0.008898299      -0.685510722
                        -----------------------------------------
Magnitude (a.u.)       :      0.814915015
Magnitude (Debye)      :      2.071349355



--------------------
Rotational spectrum 
--------------------
 
Rotational constants in cm-1:             0.010730             0.008314             0.005740 
Rotational constants in MHz :           321.672677           249.249988           172.084835 

Dipole components along the rotational axes: 
x,y,z [a.u.] :     0.209433     0.387746    -0.685476 
x,y,z [Debye]:     0.532337     0.985573    -1.742341 

 

Dipole moment calculation done in   0.0 sec 

Maximum memory used throughout the entire PROP-calculation: 22.2 MB

--------------------------------
SUGGESTED CITATIONS FOR THIS RUN
--------------------------------

Below you find a list of papers that are relevant to this ORCA run
We neither can nor want to force you to cite these papers, but we appreciate if you do
You receive ORCA, which is the product of decades of hard work by many enthusiastic individuals, for free
The only thing we kindly ask in return is that you cite our papers,
We deeply appreciate it, if you show your appreciation for ORCA by not just citing the generic ORCA reference.

Please note that relegating all ORCA citations to the supporting information does *not* help us.
SI sections are not indexed - citations you put there will not count into any citation statistics
But we need these citations in order to attract the funding resources that allow us to do what we are doing

Therefore, if you are a happy ORCA user, please consider citing a few of the papers listed below in the main body of your paper

In addition to the list printed below, the program has created the file data/geom_opt/87021/87021.bibtex that contains the list in bibtex format
You can import this file easily into all common literature databanks and citation aid programs


List of essential papers. We consider these as the minimum necessary citations

  1. Neese,F.
     Software update: the ORCA program system, version 5.0
     WIRES Comput. Molec. Sci., 2022 12(1)e1606
     doi.org/10.1002/wcms.1606

List of papers to cite with high priority. The work reported in these papers was absolutely
necessary for this run to complete.
Our perspective: the developers of density functionals and basis sets usually get cited in chemistry papers
Good! But without the algorithms to do something with them, the functionals or basis sets would not do anything.
Hence, in our opinion, the algorithm design and method developments papers are equally worthy of getting cited

  1. Neese,F.
     An improvement of the resolution of the identity approximation for the formation of the Coulomb matrix
     J. Comp. Chem., 2003 24(14)1740-1747
     doi.org/10.1002/jcc.10318
  2. Neese,F.
     The SHARK Integral Generation and Digestion System
     J. Comp. Chem., 2022  1-16
     doi.org/10.1002/jcc.26942
  3. Grimme,S.; Antony,J.; Ehrlich,S.; Krieg,H.
     A consistent and accurate ab initio parametrization of density functional dispersion correction (DFT-D) for the 94 elements H-Pu
     J. Chem. Phys., 2010 132 154104-XXXX
     doi.org/10.1063/1.3382344
  4. Grimme,S.; Ehrlich,S.; Goerigk,L.
     Effect of the damping function in dispersion corrected density functional theory
     J. Comput. Chem., 2011 32(7)1456-1465
     doi.org/10.1002/jcc.21759

List of suggested additional citations. These are papers that are important in the 'surrounding' of 
of this run, or papers that preceded the highly important papers. If you like your results we are grateful for a citation.

  1. Neese,F.
     The ORCA program system
     WIRES Comput. Molec. Sci., 2012 2(1)73-78
     doi.org/10.1002/wcms.81
  2. Neese,F.
     Software update: the ORCA program system, version 4.0
     WIRES Comput. Molec. Sci., 2018 8(1)1-6
     doi.org/10.1002/wcms.1327
  3. Neese,F.; Wennmohs,F.; Becker,U.; Riplinger,C.
     The ORCA quantum chemistry program package
     J. Chem. Phys., 2020 152 Art. No. L224108
     doi.org/10.1063/5.0004608

List of optional additional citations

  1. Neese,F.
     Approximate second-order SCF convergence for spin unrestricted wavefunctions
     Chem. Phys. Lett., 2000 325(1-3)93-98
     doi.org/10.1016/s0009-2614(00)00662-x

Timings for individual modules:

Sum of individual times          ...     1403.906 sec (=  23.398 min)
Startup calculation              ...       31.910 sec (=   0.532 min)   2.3 %
SCF iterations                   ...      956.029 sec (=  15.934 min)  68.1 %
Property calculations            ...        0.182 sec (=   0.003 min)   0.0 %
SCF Gradient evaluation          ...      415.388 sec (=   6.923 min)  29.6 %
Geometry relaxation              ...        0.397 sec (=   0.007 min)   0.0 %
                             ****ORCA TERMINATED NORMALLY****
TOTAL RUN TIME: 0 days 0 hours 23 minutes 28 seconds 117 msec
