
                                 *****************
                                 * O   R   C   A *
                                 *****************

                                            #,                                       
                                            ###                                      
                                            ####                                     
                                            #####                                    
                                            ######                                   
                                           ########,                                 
                                     ,,################,,,,,                         
                               ,,#################################,,                 
                          ,,##########################################,,             
                       ,#########################################, ''#####,          
                    ,#############################################,,   '####,        
                  ,##################################################,,,,####,       
                ,###########''''           ''''###############################       
              ,#####''   ,,,,##########,,,,          '''####'''          '####       
            ,##' ,,,,###########################,,,                        '##       
           ' ,,###''''                  '''############,,,                           
         ,,##''                                '''############,,,,        ,,,,,,###''
      ,#''                                            '''#######################'''  
     '                                                          ''''####''''         
             ,#######,   #######,   ,#######,      ##                                
            ,#'     '#,  ##    ##  ,#'     '#,    #''#        ,####,   ,####,        
            ##       ##  ##   ,#'  ##            #'  '#       #'       #'  '#        
            ##       ##  #######   ##           ,######,      #####,   #    #        
            '#,     ,#'  ##    ##  '#,     ,#' ,#      #,     #,   #   #,  ,#        
             '#######'   ##     ##  '#######'  #'      '#     '####' # '####'        



                #########################################################
                #                        -***-                          #
                #          Department of theory and spectroscopy        #
                #                                                       #
                #                      Frank Neese                      #
                #                                                       #
                #     Directorship, Architecture, Infrastructure        #
                #                    SHARK, DRIVERS                     #
                #        Core code/Algorithms in most modules           #
                #                                                       #
                #        Max Planck Institute fuer Kohlenforschung      #
                #                Kaiser Wilhelm Platz 1                 #
                #                 D-45470 Muelheim/Ruhr                 #
                #                      Germany                          #
                #                                                       #
                #                  All rights reserved                  #
                #                        -***-                          #
                #########################################################


                         Program Version 6.0.0  -   RELEASE   -


 With contributions from (in alphabetic order):
   Daniel Aravena         : Magnetic Suceptibility
   Michael Atanasov       : Ab Initio Ligand Field Theory (pilot matlab implementation)
   Alexander A. Auer      : GIAO ZORA, VPT2 properties, NMR spectrum
   Ute Becker             : All parallelization in ORCA, NUMFREQ, NUMCALC
   Giovanni Bistoni       : ED, misc. LED, open-shell LED, HFLD
   Martin Brehm           : Molecular dynamics
   Dmytro Bykov           : pre 5.0 version of the SCF Hessian
   Marcos Casanova-Páez   : Triplet and SCS-CIS(D). UHF-(DLPNO)-IP/EA/STEOM-CCSD. UHF-CVS-IP/STEOM-CCSD
   Vijay G. Chilkuri      : MRCI spin determinant printing, contributions to CSF-ICE
   Pauline Colinet        : FMM embedding
   Dipayan Datta          : RHF DLPNO-CCSD density
   Achintya Kumar Dutta   : EOM-CC, STEOM-CC
   Nicolas Foglia         : Exact transition moments, OPA infrastructure, MCD improvements
   Dmitry Ganyushin       : Spin-Orbit,Spin-Spin,Magnetic field MRCI
   Miquel Garcia          : C-PCM and meta-GGA Hessian, CCSD/C-PCM, Gaussian charge scheme
   Tiago L. C. Gouveia    : GS-ROHF, GS-ROCIS
   Yang Guo               : DLPNO-NEVPT2, F12-NEVPT2, CIM, IAO-localization
   Andreas Hansen         : Spin unrestricted coupled pair/coupled cluster methods
   Ingolf Harden          : AUTO-CI MPn and infrastructure 
   Benjamin Helmich-Paris : MC-RPA, TRAH-(SCF,CASSCF), AVAS, COSX integrals, SCF dyn. polar.
   Lee Huntington         : MR-EOM, pCC
   Robert Izsak           : Overlap fitted RIJCOSX, COSX-SCS-MP3, EOM
   Riya Kayal             : Wick's Theorem for AUTO-CI, AUTO-CI UHF-CCSDT
   Emily Kempfer          : AUTO-CI, RHF CISDT and CCSDT
   Christian Kollmar      : KDIIS, OOCD, Brueckner-CCSD(T), CCSD density, CASPT2, CASPT2-K, improved NEVPT2
   Axel Koslowski         : Symmetry handling
   Simone Kossmann        : Meta GGA functionals, TD-DFT gradient, OOMP2, (MP2 Hessian; deprecated post 5.0)
   Lucas Lang             : DCDCAS
   Marvin Lechner         : AUTO-CI (C++ implementation), FIC-MRCC
   Spencer Leger          : CASSCF response
   Dagmar Lenk            : GEPOL surface, SMD, ORCA-2-JSON
   Dimitrios Liakos       : Extrapolation schemes; Compound Job, initial MDCI parallelization
   Dimitrios Manganas     : Further ROCIS development; embedding schemes. LFT, Crystal Embedding
   Dimitrios Pantazis     : SARC Basis sets
   Anastasios Papadopoulos: AUTO-CI, single reference methods and gradients
   Taras Petrenko         : pre 6.0 DFT Hessian and TD-DFT gradient, (ASA, deprecated), ECA, 1-Electron XAS/XES, NRVS
   Peter Pinski           : DLPNO-MP2, DLPNO-MP2 Gradient
   Christoph Reimann      : Effective Core Potentials
   Marius Retegan         : Local ZFS, SOC
   Christoph Riplinger    : Optimizer, TS searches, QM/MM, DLPNO-CCSD(T), (RO)-DLPNO pert. Triples
   Michael Roemelt        : Original ROCIS implementation
   Masaaki Saitow         : Open-shell DLPNO-CCSD energy and density
   Barbara Sandhoefer     : DKH picture change effects
   Kantharuban Sivalingam : CASSCF convergence/infrastructure, NEVPT2 and variants, FIC-MRCI
   Bernardo de Souza      : ESD, SOC TD-DFT
   Georgi Stoychev        : AutoAux, RI-MP2 NMR, DLPNO-MP2 response, X2C
   Van Anh Tran           : RI-MP2 g-tensors
   Willem Van den Heuvel  : Paramagnetic NMR
   Zikuan Wang            : NOTCH, Electric field optimization 
   Frank Wennmohs         : Technical directorship and infrastructure
   Hang Xu                : AUTO-CI-Response properties 


 We gratefully acknowledge several colleagues who have allowed us to
 interface, adapt or use parts of their codes:
   Stefan Grimme, W. Hujo, H. Kruse, P. Pracht,  : VdW corrections, initial TS optimization,
                  C. Bannwarth, S. Ehlert,         DFT functionals, gCP, sTDA/sTD-DF
                  L. Wittmann, M. Mueller
   Ed Valeev, F. Pavosevic, A. Kumar             : LibInt (2-el integral package), F12 methods
   Garnet Chan, S. Sharma, J. Yang, R. Olivares  : DMRG
   Ulf Ekstrom                                   : XCFun DFT Library
   Mihaly Kallay                                 : mrcc  (arbitrary order and MRCC methods)
   Frank Weinhold                                : gennbo (NPA and NBO analysis)
   Simon Mueller                                 : openCOSMO-RS
   Christopher J. Cramer and Donald G. Truhlar   : smd solvation model
   Lars Goerigk                                  : TD-DFT with DH, B97 family of functionals
   V. Asgeirsson, H. Jonsson                     : NEB implementation
   FAccTs GmbH                                   : IRC, NEB, NEB-TS, DLPNO-Multilevel, CI-OPT
                                                   MM, QMMM, 2- and 3-layer-ONIOM, Crystal-QMMM,
                                                   LR-CPCM, SF, NACMEs, symmetry and pop. for TD-DFT,
                                                   nearIR, NL-DFT gradient (VV10), updates on ESD,
                                                   ML-optimized integration grids, MBIS, APM,
                                                   GOAT, DOCKER, SOLVATOR, interface openCOSMO-RS
   S Lehtola, MJT Oliveira, MAL Marques          : LibXC Library
   Liviu Ungur et al                             : ANISO software


 Your calculation uses the libint2 library for the computation of 2-el integrals
 For citations please refer to: http://libint.valeyev.net

 Your ORCA version has been built with support for libXC version: 6.2.2
 For citations please refer to: https://libxc.gitlab.io

 This ORCA versions uses:
   CBLAS   interface :  Fast vector & matrix operations
   LAPACKE interface :  Fast linear algebra routines
   Shared memory     :  Shared parallel matrices


Your calculation utilizes the atom-pairwise dispersion correction
with the Becke-Johnson damping scheme (D3BJ)


Warning: RI is on but no J-basis has been assigned. Assigning Def2/J (nothing to worry about!)
================================================================================

----- Orbital basis set information -----
Your calculation utilizes the basis: def2-SVP
   F. Weigend and R. Ahlrichs, Phys. Chem. Chem. Phys. 7, 3297 (2005).

----- AuxJ basis set information -----
Your calculation utilizes the auxiliary basis: def2/J
   F. Weigend, Phys. Chem. Chem. Phys. 8, 1057 (2006).

================================================================================
                                        WARNINGS
                       Please study these warnings very carefully!
================================================================================


WARNING: Geometry Optimization
  ===> : Switching off AutoStart
         For restart on a previous wavefunction, please use MOREAD

================================================================================
                                       INPUT FILE
================================================================================
NAME = data/geom_opt_PO_BP86/75806/75806.inp
|  1> ! RI BP86 def2-SVP D3BJ TIGHTSCF Opt
|  2> %pal
|  3> nprocs 6
|  4> end
|  5> 
|  6> * xyz 0 1
|  7> C      4.477080   -0.787698   -0.271064
|  8> C      4.048491   -1.027322    1.172931
|  9> C      2.685640   -0.406132    1.469989
| 10> C      1.609416   -0.884209    0.481282
| 11> C      2.056485   -0.615086   -0.956981
| 12> C      3.410526   -1.253193   -1.257526
| 13> P     -0.045744   -0.260153    0.906464
| 14> O     -0.343969   -0.542754    2.356393
| 15> C     -0.053712    1.524117    0.549512
| 16> C     -0.446653    1.916633   -0.880846
| 17> C     -0.344197    3.422819   -1.107518
| 18> C     -1.187492    4.194474   -0.098587
| 19> C     -0.823447    3.820073    1.333348
| 20> C     -0.898472    2.312914    1.564609
| 21> C     -1.251235   -1.093904   -0.172932
| 22> C     -1.087604   -2.623573   -0.163557
| 23> C     -2.126870   -3.330982   -1.029092
| 24> C     -3.547200   -2.944092   -0.639441
| 25> C     -3.730127   -1.432295   -0.657666
| 26> C     -2.695690   -0.734846    0.219227
| 27> H      4.669884    0.281812   -0.420774
| 28> H      5.418243   -1.312700   -0.469261
| 29> H      4.799344   -0.611732    1.854356
| 30> H      4.005773   -2.106425    1.365650
| 31> H      2.768759    0.685873    1.434361
| 32> H      2.388298   -0.660043    2.493751
| 33> H      1.541909   -1.971570    0.610514
| 34> H      1.310405   -0.994242   -1.662743
| 35> H      2.134247    0.464308   -1.124790
| 36> H      3.718468   -1.000356   -2.278349
| 37> H      3.319210   -2.345320   -1.211782
| 38> H      0.982645    1.850416    0.698859
| 39> H     -1.474433    1.603447   -1.090076
| 40> H      0.182798    1.399757   -1.609794
| 41> H     -0.674119    3.665434   -2.123982
| 42> H      0.704144    3.735498   -1.027978
| 43> H     -2.249768    3.982886   -0.272302
| 44> H     -1.047586    5.271179   -0.246244
| 45> H      0.192603    4.170373    1.553539
| 46> H     -1.494713    4.333447    2.031011
| 47> H     -0.554322    2.093169    2.581770
| 48> H     -1.942539    1.984643    1.514308
| 49> H     -1.071783   -0.750125   -1.197914
| 50> H     -0.093670   -2.897271   -0.530558
| 51> H     -1.151464   -2.991795    0.867795
| 52> H     -2.002985   -4.416143   -0.939473
| 53> H     -1.955284   -3.076814   -2.082426
| 54> H     -4.260715   -3.412193   -1.326754
| 55> H     -3.769327   -3.328269    0.363716
| 56> H     -4.738194   -1.179577   -0.310101
| 57> H     -3.644835   -1.063403   -1.687162
| 58> H     -2.849744    0.345524    0.155354
| 59> H     -2.866479   -1.004580    1.268933
| 60> **                         ****END OF INPUT****
================================================================================

                       *****************************
                       * Geometry Optimization Run *
                       *****************************

Geometry optimization settings:
Update method            Update   .... BFGS
Choice of coordinates    CoordSys .... (2022) Redundant Internals
Initial Hessian          InHess   .... Almloef's Model
Max. no of cycles        MaxIter  .... 159

Convergence Tolerances:
Energy Change            TolE     ....  5.0000e-06 Eh
Max. Gradient            TolMAXG  ....  3.0000e-04 Eh/bohr
RMS Gradient             TolRMSG  ....  1.0000e-04 Eh/bohr
Max. Displacement        TolMAXD  ....  4.0000e-03 bohr
RMS Displacement         TolRMSD  ....  2.0000e-03 bohr
Strict Convergence                .... False

------------------------------------------------------------------------------
                        ORCA OPTIMIZATION COORDINATE SETUP
------------------------------------------------------------------------------

The optimization will be done in redundant internal coordinates (2022)
Making redundant internal coordinates   ...  (2022 redundants) done
Evaluating the initial hessian          ...  (Almloef) done
Evaluating the coordinates              ...  done
Calculating the B-matrix                .... done
Calculating the G-matrix                .... done
Diagonalizing the G-matrix              .... done
Small eigenvalue found = 3.713e-03
Small eigenvalue found = 5.093e-03
Small eigenvalue found = 8.810e-03
Small eigenvalue found = 1.509e-02
Small eigenvalue found = 1.742e-02
Small eigenvalue found = 2.548e-02
The first mode is                       ....  142
The number of degrees of freedom        ....  153

    -----------------------------------------------------------------
                    Redundant Internal Coordinates


    -----------------------------------------------------------------
         Definition                    Initial Value    Approx d2E/dq
    -----------------------------------------------------------------
      1. B(C   1,C   0)                  1.5252         0.380223   
      2. B(C   2,C   1)                  1.5269         0.377826   
      3. B(C   3,C   2)                  1.5376         0.363227   
      4. B(C   4,C   3)                  1.5300         0.373575   
      5. B(C   5,C   4)                  1.5267         0.378076   
      6. B(C   5,C   0)                  1.5256         0.379719   
      7. B(P   6,C   3)                  1.8193         0.433854   
      8. B(O   7,P   6)                  1.5070         1.223711   
      9. B(C   8,P   6)                  1.8196         0.433277   
     10. B(C   9,C   8)                  1.5344         0.367579   
     11. B(C  10,C   9)                  1.5266         0.378285   
     12. B(C  11,C  10)                  1.5246         0.380998   
     13. B(C  12,C  11)                  1.5242         0.381640   
     14. B(C  13,C  12)                  1.5266         0.378210   
     15. B(C  13,C   8)                  1.5383         0.362410   
     16. B(C  14,P   6)                  1.8203         0.432252   
     17. B(C  15,C  14)                  1.5384         0.362190   
     18. B(C  16,C  15)                  1.5263         0.378660   
     19. B(C  17,C  16)                  1.5228         0.383620   
     20. B(C  18,C  17)                  1.5229         0.383400   
     21. B(C  19,C  18)                  1.5249         0.380586   
     22. B(C  19,C  14)                  1.5392         0.361149   
     23. B(H  20,C   0)                  1.0970         0.350941   
     24. B(H  21,C   0)                  1.0958         0.352556   
     25. B(H  22,C   1)                  1.0958         0.352474   
     26. B(H  23,C   1)                  1.0970         0.350946   
     27. B(H  24,C   2)                  1.0957         0.352582   
     28. B(H  25,C   2)                  1.0959         0.352394   
     29. B(H  26,C   3)                  1.0971         0.350839   
     30. B(H  27,C   4)                  1.0948         0.353861   
     31. B(H  28,C   4)                  1.0951         0.353384   
     32. B(H  29,C   5)                  1.0958         0.352475   
     33. B(H  30,C   5)                  1.0969         0.351097   
     34. B(H  31,C   8)                  1.0967         0.351309   
     35. B(H  32,C   9)                  1.0946         0.354039   
     36. B(H  33,C   9)                  1.0930         0.356102   
     37. B(H  34,C  10)                  1.0959         0.352431   
     38. B(H  35,C  10)                  1.0969         0.351132   
     39. B(H  36,C  11)                  1.0970         0.350977   
     40. B(H  37,C  11)                  1.0958         0.352572   
     41. B(H  38,C  12)                  1.0971         0.350874   
     42. B(H  39,C  12)                  1.0958         0.352445   
     43. B(H  40,C  13)                  1.0961         0.352174   
     44. B(H  41,C  13)                  1.0956         0.352751   
     45. B(H  42,C  14)                  1.0959         0.352392   
     46. B(H  43,C  15)                  1.0943         0.354449   
     47. B(H  44,C  15)                  1.0970         0.350991   
     48. B(H  45,C  16)                  1.0959         0.352405   
     49. B(H  46,C  16)                  1.0971         0.350872   
     50. B(H  47,C  17)                  1.0957         0.352601   
     51. B(H  48,C  17)                  1.0969         0.351048   
     52. B(H  49,C  18)                  1.0958         0.352456   
     53. B(H  50,C  18)                  1.0969         0.351070   
     54. B(H  51,C  19)                  1.0932         0.355936   
     55. B(H  52,C  19)                  1.0972         0.350724   
     56. A(C   1,C   0,C   5)          111.5800         0.365468   
     57. A(C   1,C   0,H  20)          109.3759         0.323886   
     58. A(C   5,C   0,H  20)          109.3968         0.323816   
     59. A(C   5,C   0,H  21)          109.7144         0.324060   
     60. A(H  20,C   0,H  21)          106.9458         0.288707   
     61. A(C   1,C   0,H  21)          109.7143         0.324131   
     62. A(C   0,C   1,C   2)          111.7825         0.365155   
     63. A(C   2,C   1,H  22)          109.6519         0.323782   
     64. A(C   0,C   1,H  22)          109.6700         0.324118   
     65. A(C   2,C   1,H  23)          109.3448         0.323551   
     66. A(H  22,C   1,H  23)          106.8877         0.288697   
     67. A(C   0,C   1,H  23)          109.3788         0.323887   
     68. A(H  24,C   2,H  25)          106.3713         0.288897   
     69. A(C   1,C   2,C   3)          111.9086         0.362312   
     70. A(C   3,C   2,H  24)          110.0012         0.321713   
     71. A(C   3,C   2,H  25)          109.8001         0.321685   
     72. A(C   1,C   2,H  24)          109.3542         0.323798   
     73. A(C   1,C   2,H  25)          109.2478         0.323770   
     74. A(C   2,C   3,H  26)          105.9908         0.321452   
     75. A(C   4,C   3,H  26)          107.6408         0.322935   
     76. A(P   6,C   3,H  26)          104.8607         0.351551   
     77. A(C   2,C   3,P   6)          112.3244         0.394960   
     78. A(C   4,C   3,P   6)          115.1634         0.396912   
     79. A(C   2,C   3,C   4)          110.1965         0.361613   
     80. A(C   5,C   4,H  28)          108.5910         0.323954   
     81. A(C   3,C   4,H  28)          109.7651         0.323318   
     82. A(C   3,C   4,H  27)          110.2407         0.323390   
     83. A(C   3,C   4,C   5)          111.7578         0.364096   
     84. A(H  27,C   4,H  28)          106.9160         0.289188   
     85. A(C   5,C   4,H  27)          109.4360         0.324026   
     86. A(H  29,C   5,H  30)          106.9758         0.288716   
     87. A(C   4,C   5,H  30)          109.5176         0.323609   
     88. A(C   0,C   5,C   4)          111.4211         0.365114   
     89. A(C   4,C   5,H  29)          109.6439         0.323817   
     90. A(C   0,C   5,H  29)          109.6030         0.324048   
     91. A(C   0,C   5,H  30)          109.5750         0.323840   
     92. A(O   7,P   6,C  14)          110.7060         0.522670   
     93. A(O   7,P   6,C   8)          111.8234         0.522903   
     94. A(C   8,P   6,C  14)          109.2631         0.434184   
     95. A(C   3,P   6,C   8)          107.1272         0.434473   
     96. A(C   3,P   6,C  14)          107.8670         0.434288   
     97. A(C   3,P   6,O   7)          109.9116         0.523033   
     98. A(C   9,C   8,H  31)          107.0270         0.322151   
     99. A(P   6,C   8,H  31)          105.1227         0.351552   
    100. A(P   6,C   8,C   9)          115.7740         0.395694   
    101. A(C   9,C   8,C  13)          110.0807         0.360478   
    102. A(P   6,C   8,C  13)          112.0720         0.394712   
    103. A(C  13,C   8,H  31)          106.0521         0.321405   
    104. A(C  10,C   9,H  32)          108.4770         0.324082   
    105. A(C   8,C   9,H  32)          110.2087         0.322560   
    106. A(C   8,C   9,C  10)          111.9389         0.363125   
    107. A(H  32,C   9,H  33)          106.1371         0.289558   
    108. A(C  10,C   9,H  33)          109.2012         0.324392   
    109. A(C   8,C   9,H  33)          110.6855         0.322867   
    110. A(C   9,C  10,C  11)          111.3447         0.365359   
    111. A(H  34,C  10,H  35)          106.9714         0.288715   
    112. A(C  11,C  10,H  35)          109.6562         0.324024   
    113. A(C   9,C  10,H  35)          109.5503         0.323644   
    114. A(C  11,C  10,H  34)          109.5867         0.324220   
    115. A(C   9,C  10,H  34)          109.6305         0.323840   
    116. A(C  10,C  11,C  12)          111.4239         0.365911   
    117. A(C  12,C  11,H  37)          109.7230         0.324331   
    118. A(H  36,C  11,H  37)          106.9676         0.288713   
    119. A(C  10,C  11,H  37)          109.7264         0.324242   
    120. A(C  12,C  11,H  36)          109.4316         0.324090   
    121. A(C  10,C  11,H  36)          109.4628         0.324000   
    122. A(H  38,C  12,H  39)          106.8551         0.288684   
    123. A(C  13,C  12,H  39)          109.6302         0.323832   
    124. A(C  11,C  12,H  39)          109.6777         0.324312   
    125. A(C  13,C  12,H  38)          109.2895         0.323594   
    126. A(C  11,C  12,H  38)          109.3498         0.324074   
    127. A(C  11,C  12,C  13)          111.9058         0.365452   
    128. A(H  40,C  13,H  41)          106.3648         0.288890   
    129. A(C  12,C  13,H  41)          109.6137         0.323878   
    130. A(C   8,C  13,H  41)          109.8397         0.321620   
    131. A(C  12,C  13,H  40)          108.8491         0.323791   
    132. A(C   8,C  13,H  40)          109.7039         0.321534   
    133. A(C   8,C  13,C  12)          112.2896         0.362235   
    134. A(C  15,C  14,C  19)          109.2815         0.359358   
    135. A(P   6,C  14,C  19)          111.3189         0.394308   
    136. A(P   6,C  14,C  15)          112.4188         0.394507   
    137. A(C  19,C  14,H  42)          108.5895         0.321383   
    138. A(C  15,C  14,H  42)          107.4694         0.321535   
    139. A(P   6,C  14,H  42)          107.6069         0.351594   
    140. A(C  14,C  15,C  16)          112.6411         0.362271   
    141. A(H  43,C  15,H  44)          106.5129         0.288955   
    142. A(C  16,C  15,H  44)          109.7513         0.323675   
    143. A(C  14,C  15,H  44)          109.4691         0.321325   
    144. A(C  16,C  15,H  43)          108.2005         0.324196   
    145. A(C  14,C  15,H  43)          110.0751         0.321841   
    146. A(C  15,C  16,C  17)          111.8532         0.365850   
    147. A(C  17,C  16,H  46)          109.4328         0.324349   
    148. A(C  15,C  16,H  46)          109.3049         0.323657   
    149. A(C  17,C  16,H  45)          109.6394         0.324582   
    150. A(H  45,C  16,H  46)          106.8730         0.288678   
    151. A(C  15,C  16,H  45)          109.6086         0.323889   
    152. A(H  47,C  17,H  48)          106.9873         0.288726   
    153. A(C  16,C  17,C  18)          111.1729         0.366631   
    154. A(C  18,C  17,H  48)          109.5293         0.324346   
    155. A(C  16,C  17,H  48)          109.5057         0.324376   
    156. A(C  18,C  17,H  47)          109.7769         0.324581   
    157. A(C  16,C  17,H  47)          109.7748         0.324611   
    158. A(C  17,C  18,C  19)          111.4480         0.366132   
    159. A(H  49,C  18,H  50)          106.9565         0.288710   
    160. A(C  19,C  18,H  50)          109.4592         0.323957   
    161. A(C  17,C  18,H  50)          109.6171         0.324349   
    162. A(C  19,C  18,H  49)          109.6428         0.324166   
    163. A(C  17,C  18,H  49)          109.6107         0.324559   
    164. A(C  14,C  19,C  18)          112.5438         0.362407   
    165. A(H  51,C  19,H  52)          106.0770         0.289110   
    166. A(C  18,C  19,H  52)          109.3976         0.323904   
    167. A(C  14,C  19,H  52)          109.4197         0.321134   
    168. A(C  18,C  19,H  51)          108.8332         0.324690   
    169. A(C  14,C  19,H  51)          110.3593         0.321910   
    170. D(C   2,C   1,C   0,C   5)    -53.7540         0.011521   
    171. D(C   2,C   1,C   0,H  20)     67.4230         0.011521   
    172. D(H  22,C   1,C   0,C   5)   -175.5876         0.011521   
    173. D(H  22,C   1,C   0,H  20)    -54.4105         0.011521   
    174. D(H  22,C   1,C   0,H  21)     62.6044         0.011521   
    175. D(C   2,C   1,C   0,H  21)   -175.5620         0.011521   
    176. D(H  24,C   2,C   1,H  23)    170.9785         0.011384   
    177. D(C   3,C   2,C   1,C   0)     54.3853         0.011384   
    178. D(H  24,C   2,C   1,H  22)     54.0878         0.011384   
    179. D(C   3,C   2,C   1,H  22)    176.2293         0.011384   
    180. D(C   3,C   2,C   1,H  23)    -66.8799         0.011384   
    181. D(H  24,C   2,C   1,C   0)    -67.7563         0.011384   
    182. D(C   4,C   3,C   2,H  25)   -176.3739         0.010572   
    183. D(C   4,C   3,C   2,C   1)    -54.8783         0.010572   
    184. D(C   4,C   3,C   2,H  24)     66.8923         0.010572   
    185. D(P   6,C   3,C   2,H  24)    -62.9607         0.010572   
    186. D(P   6,C   3,C   2,H  25)     53.7731         0.010572   
    187. D(P   6,C   3,C   2,C   1)    175.2687         0.010572   
    188. D(H  27,C   4,C   3,C   2)    177.5605         0.011144   
    189. D(C   5,C   4,C   3,C   2)     55.6208         0.011144   
    190. D(C   5,C   4,C   3,H  26)    -59.5295         0.011144   
    191. D(H  27,C   4,C   3,H  26)     62.4101         0.011144   
    192. D(H  27,C   4,C   3,P   6)    -54.1243         0.011144   
    193. D(C   5,C   4,C   3,P   6)   -176.0640         0.011144   
    194. D(H  29,C   5,C   0,H  21)    -62.2812         0.011493   
    195. D(C   0,C   5,C   4,C   3)    -55.8562         0.011399   
    196. D(C   4,C   5,C   0,H  21)    176.1811         0.011493   
    197. D(C   4,C   5,C   0,C   1)     54.3731         0.011493   
    198. D(C   4,C   5,C   0,H  20)    -66.7917         0.011493   
    199. D(H  29,C   5,C   0,C   1)    175.9108         0.011493   
    200. D(H  29,C   5,C   0,H  20)     54.7460         0.011493   
    201. D(H  29,C   5,C   4,H  27)     60.2287         0.011399   
    202. D(H  29,C   5,C   4,H  28)    -56.1453         0.011399   
    203. D(H  29,C   5,C   4,C   3)   -177.3701         0.011399   
    204. D(C   0,C   5,C   4,H  28)     65.3686         0.011399   
    205. D(C   0,C   5,C   4,H  27)   -178.2574         0.011399   
    206. D(C   8,P   6,C   3,H  26)   -174.3316         0.004263   
    207. D(O   7,P   6,C   3,H  26)     63.9764         0.004263   
    208. D(O   7,P   6,C   3,C   4)   -177.9201         0.004263   
    209. D(C   8,P   6,C   3,C   4)    -56.2281         0.004263   
    210. D(O   7,P   6,C   3,C   2)    -50.6731         0.004263   
    211. D(C   8,P   6,C   3,C   2)     71.0189         0.004263   
    212. D(C  13,C   8,P   6,C  14)     99.1108         0.004255   
    213. D(C  13,C   8,P   6,O   7)    -23.8046         0.004255   
    214. D(C  13,C   8,P   6,C   3)   -144.2879         0.004255   
    215. D(C   9,C   8,P   6,O   7)   -151.1934         0.004255   
    216. D(C   9,C   8,P   6,C   3)     88.3233         0.004255   
    217. D(C   9,C   8,P   6,C  14)    -28.2780         0.004255   
    218. D(H  32,C   9,C   8,H  31)    179.3804         0.010810   
    219. D(H  32,C   9,C   8,C  13)    -65.7941         0.010810   
    220. D(H  32,C   9,C   8,P   6)     62.5813         0.010810   
    221. D(C  10,C   9,C   8,C  13)     55.0262         0.010810   
    222. D(C  10,C   9,C   8,H  31)    -59.7994         0.010810   
    223. D(C  10,C   9,C   8,P   6)   -176.5984         0.010810   
    224. D(H  34,C  10,C   9,H  33)     59.5327         0.011410   
    225. D(H  34,C  10,C   9,H  32)    -55.7241         0.011410   
    226. D(H  34,C  10,C   9,C   8)   -177.5434         0.011410   
    227. D(C  11,C  10,C   9,H  33)   -179.0333         0.011410   
    228. D(C  11,C  10,C   9,H  32)     65.7099         0.011410   
    229. D(C  11,C  10,C   9,C   8)    -56.1095         0.011410   
    230. D(C  12,C  11,C  10,H  34)    176.3423         0.011566   
    231. D(C  12,C  11,C  10,C   9)     54.8829         0.011566   
    232. D(C  12,C  11,C  10,H  35)    -66.5227         0.011566   
    233. D(H  36,C  11,C  10,H  35)    172.2996         0.011566   
    234. D(H  36,C  11,C  10,H  34)     55.1646         0.011566   
    235. D(H  36,C  11,C  10,C   9)    -66.2949         0.011566   
    236. D(H  38,C  12,C  11,H  37)    -54.4192         0.011603   
    237. D(H  38,C  12,C  11,H  36)   -171.4979         0.011603   
    238. D(H  38,C  12,C  11,C  10)     67.3062         0.011603   
    239. D(C  13,C  12,C  11,H  37)   -175.6560         0.011603   
    240. D(C  13,C  12,C  11,H  36)     67.2653         0.011603   
    241. D(C  13,C  12,C  11,C  10)    -53.9307         0.011603   
    242. D(H  40,C  13,C  12,H  39)    -62.3908         0.011406   
    243. D(H  40,C  13,C  12,H  38)     54.4163         0.011406   
    244. D(H  40,C  13,C  12,C  11)    175.6879         0.011406   
    245. D(C   8,C  13,C  12,H  39)    175.9426         0.011406   
    246. D(C   8,C  13,C  12,H  38)    -67.2503         0.011406   
    247. D(C   8,C  13,C  12,C  11)     54.0213         0.011406   
    248. D(H  40,C  13,C   8,H  31)    -59.6860         0.010528   
    249. D(H  40,C  13,C   8,C   9)   -175.1288         0.010528   
    250. D(H  40,C  13,C   8,P   6)     54.4943         0.010528   
    251. D(C  12,C  13,C   8,H  31)     61.4912         0.010528   
    252. D(C  12,C  13,C   8,C   9)    -53.9515         0.010528   
    253. D(C  12,C  13,C   8,P   6)    175.6715         0.010528   
    254. D(C  19,C  14,P   6,C   8)    -69.8590         0.004242   
    255. D(C  19,C  14,P   6,O   7)     53.7197         0.004242   
    256. D(C  19,C  14,P   6,C   3)    174.0102         0.004242   
    257. D(C  15,C  14,P   6,C   8)    167.1539         0.004242   
    258. D(C  15,C  14,P   6,O   7)    -69.2673         0.004242   
    259. D(C  15,C  14,P   6,C   3)     51.0231         0.004242   
    260. D(H  43,C  15,C  14,H  42)     57.0738         0.010516   
    261. D(H  43,C  15,C  14,C  19)    174.7294         0.010516   
    262. D(H  43,C  15,C  14,P   6)    -61.1471         0.010516   
    263. D(C  16,C  15,C  14,H  42)    -63.7732         0.010516   
    264. D(C  16,C  15,C  14,C  19)     53.8825         0.010516   
    265. D(C  16,C  15,C  14,P   6)    178.0059         0.010516   
    266. D(H  45,C  16,C  15,H  44)    -54.4001         0.011432   
    267. D(H  45,C  16,C  15,H  43)     61.4463         0.011432   
    268. D(H  45,C  16,C  15,C  14)   -176.6401         0.011432   
    269. D(C  17,C  16,C  15,H  44)     67.4224         0.011432   
    270. D(C  17,C  16,C  15,H  43)   -176.7312         0.011432   
    271. D(C  17,C  16,C  15,C  14)    -54.8176         0.011432   
    272. D(H  47,C  17,C  16,H  46)     54.6053         0.011718   
    273. D(H  47,C  17,C  16,H  45)    -62.3114         0.011718   
    274. D(H  47,C  17,C  16,C  15)    175.8838         0.011718   
    275. D(C  18,C  17,C  16,H  46)    -67.0526         0.011718   
    276. D(C  18,C  17,C  16,H  45)    176.0307         0.011718   
    277. D(C  18,C  17,C  16,C  15)     54.2259         0.011718   
    278. D(H  49,C  18,C  17,H  48)    -55.1150         0.011705   
    279. D(H  49,C  18,C  17,H  47)     62.0761         0.011705   
    280. D(H  49,C  18,C  17,C  16)   -176.2672         0.011705   
    281. D(C  19,C  18,C  17,H  48)     66.4443         0.011705   
    282. D(C  19,C  18,C  17,H  47)   -176.3645         0.011705   
    283. D(C  19,C  18,C  17,C  16)    -54.7079         0.011705   
    284. D(H  51,C  19,C  18,H  50)     57.1721         0.011542   
    285. D(H  51,C  19,C  18,H  49)    -59.8630         0.011542   
    286. D(H  51,C  19,C  18,C  17)    178.5963         0.011542   
    287. D(C  14,C  19,C  18,H  50)    -65.4831         0.011542   
    288. D(C  14,C  19,C  18,H  49)    177.4818         0.011542   
    289. D(C  14,C  19,C  18,C  17)     55.9412         0.011542   
    290. D(H  51,C  19,C  14,H  42)    -59.3877         0.010459   
    291. D(H  51,C  19,C  14,C  15)   -176.3370         0.010459   
    292. D(H  51,C  19,C  14,P   6)     58.8960         0.010459   
    293. D(C  18,C  19,C  14,H  42)     62.4055         0.010459   
    294. D(C  18,C  19,C  14,C  15)    -54.5438         0.010459   
    295. D(C  18,C  19,C  14,P   6)   -179.3109         0.010459   
    -----------------------------------------------------------------

Number of atoms                         .... 53
Number of degrees of freedom            .... 295


         *************************************************************
         *                GEOMETRY OPTIMIZATION CYCLE   1            *
         *************************************************************
---------------------------------
CARTESIAN COORDINATES (ANGSTROEM)
---------------------------------
  C      4.477080   -0.787698   -0.271064
  C      4.048491   -1.027322    1.172931
  C      2.685640   -0.406132    1.469989
  C      1.609416   -0.884209    0.481282
  C      2.056485   -0.615086   -0.956981
  C      3.410526   -1.253193   -1.257526
  P     -0.045744   -0.260153    0.906464
  O     -0.343969   -0.542754    2.356393
  C     -0.053712    1.524117    0.549512
  C     -0.446653    1.916633   -0.880846
  C     -0.344197    3.422819   -1.107518
  C     -1.187492    4.194474   -0.098587
  C     -0.823447    3.820073    1.333348
  C     -0.898472    2.312914    1.564609
  C     -1.251235   -1.093904   -0.172932
  C     -1.087604   -2.623573   -0.163557
  C     -2.126870   -3.330982   -1.029092
  C     -3.547200   -2.944092   -0.639441
  C     -3.730127   -1.432295   -0.657666
  C     -2.695690   -0.734846    0.219227
  H      4.669884    0.281812   -0.420774
  H      5.418243   -1.312700   -0.469261
  H      4.799344   -0.611732    1.854356
  H      4.005773   -2.106425    1.365650
  H      2.768759    0.685873    1.434361
  H      2.388298   -0.660043    2.493751
  H      1.541909   -1.971570    0.610514
  H      1.310405   -0.994242   -1.662743
  H      2.134247    0.464308   -1.124790
  H      3.718468   -1.000356   -2.278349
  H      3.319210   -2.345320   -1.211782
  H      0.982645    1.850416    0.698859
  H     -1.474433    1.603447   -1.090076
  H      0.182798    1.399757   -1.609794
  H     -0.674119    3.665434   -2.123982
  H      0.704144    3.735498   -1.027978
  H     -2.249768    3.982886   -0.272302
  H     -1.047586    5.271179   -0.246244
  H      0.192603    4.170373    1.553539
  H     -1.494713    4.333447    2.031011
  H     -0.554322    2.093169    2.581770
  H     -1.942539    1.984643    1.514308
  H     -1.071783   -0.750125   -1.197914
  H     -0.093670   -2.897271   -0.530558
  H     -1.151464   -2.991795    0.867795
  H     -2.002985   -4.416143   -0.939473
  H     -1.955284   -3.076814   -2.082426
  H     -4.260715   -3.412193   -1.326754
  H     -3.769327   -3.328269    0.363716
  H     -4.738194   -1.179577   -0.310101
  H     -3.644835   -1.063403   -1.687162
  H     -2.849744    0.345524    0.155354
  H     -2.866479   -1.004580    1.268933

----------------------------
CARTESIAN COORDINATES (A.U.)
----------------------------
  NO LB      ZA    FRAG     MASS         X           Y           Z
   0 C     6.0000    0    12.011    8.460455   -1.488533   -0.512237
   1 C     6.0000    0    12.011    7.650539   -1.941357    2.216518
   2 C     6.0000    0    12.011    5.075124   -0.767478    2.777877
   3 C     6.0000    0    12.011    3.041355   -1.670913    0.909491
   4 C     6.0000    0    12.011    3.886193   -1.162344   -1.808432
   5 C     6.0000    0    12.011    6.444960   -2.368192   -2.376380
   6 P    15.0000    0    30.974   -0.086444   -0.491618    1.712969
   7 O     8.0000    0    15.999   -0.650007   -1.025656    4.452937
   8 C     6.0000    0    12.011   -0.101501    2.880164    1.038427
   9 C     6.0000    0    12.011   -0.844052    3.621911   -1.664558
  10 C     6.0000    0    12.011   -0.650438    6.468191   -2.092906
  11 C     6.0000    0    12.011   -2.244035    7.926407   -0.186302
  12 C     6.0000    0    12.011   -1.556089    7.218892    2.519663
  13 C     6.0000    0    12.011   -1.697866    4.370774    2.956683
  14 C     6.0000    0    12.011   -2.364491   -2.067179   -0.326794
  15 C     6.0000    0    12.011   -2.055274   -4.957834   -0.309078
  16 C     6.0000    0    12.011   -4.019202   -6.294644   -1.944702
  17 C     6.0000    0    12.011   -6.703237   -5.563528   -1.208368
  18 C     6.0000    0    12.011   -7.048918   -2.706645   -1.242809
  19 C     6.0000    0    12.011   -5.094116   -1.388658    0.414279
  20 H     1.0000    0     1.008    8.824802    0.532548   -0.795148
  21 H     1.0000    0     1.008   10.238995   -2.480643   -0.886775
  22 H     1.0000    0     1.008    9.069446   -1.156006    3.504225
  23 H     1.0000    0     1.008    7.569814   -3.980566    2.580704
  24 H     1.0000    0     1.008    5.232196    1.296112    2.710549
  25 H     1.0000    0     1.008    4.513229   -1.247301    4.712506
  26 H     1.0000    0     1.008    2.913786   -3.725727    1.153704
  27 H     1.0000    0     1.008    2.476307   -1.878845   -3.142129
  28 H     1.0000    0     1.008    4.033142    0.877415   -2.125545
  29 H     1.0000    0     1.008    7.026886   -1.890399   -4.305456
  30 H     1.0000    0     1.008    6.272398   -4.432012   -2.289936
  31 H     1.0000    0     1.008    1.856930    3.496779    1.320652
  32 H     1.0000    0     1.008   -2.786275    3.030076   -2.059945
  33 H     1.0000    0     1.008    0.345438    2.645157   -3.042070
  34 H     1.0000    0     1.008   -1.273900    6.926666   -4.013744
  35 H     1.0000    0     1.008    1.330639    7.059068   -1.942597
  36 H     1.0000    0     1.008   -4.251445    7.526564   -0.514576
  37 H     1.0000    0     1.008   -1.979651    9.961085   -0.465334
  38 H     1.0000    0     1.008    0.363967    7.880863    2.935763
  39 H     1.0000    0     1.008   -2.824598    8.189028    3.838055
  40 H     1.0000    0     1.008   -1.047517    3.955516    4.878838
  41 H     1.0000    0     1.008   -3.670867    3.750432    2.861627
  42 H     1.0000    0     1.008   -2.025376   -1.417531   -2.263729
  43 H     1.0000    0     1.008   -0.177011   -5.475049   -1.002609
  44 H     1.0000    0     1.008   -2.175952   -5.653673    1.639895
  45 H     1.0000    0     1.008   -3.785093   -8.345301   -1.775347
  46 H     1.0000    0     1.008   -3.694951   -5.814336   -3.935215
  47 H     1.0000    0     1.008   -8.051584   -6.448110   -2.507202
  48 H     1.0000    0     1.008   -7.122996   -6.289517    0.687324
  49 H     1.0000    0     1.008   -8.953889   -2.229077   -0.586006
  50 H     1.0000    0     1.008   -6.887740   -2.009540   -3.188274
  51 H     1.0000    0     1.008   -5.385236    0.652946    0.293577
  52 H     1.0000    0     1.008   -5.416860   -1.898381    2.397936

--------------------------------
INTERNAL COORDINATES (ANGSTROEM)
--------------------------------
 C      0   0   0     0.000000000000     0.00000000     0.00000000
 C      1   0   0     1.525198266561     0.00000000     0.00000000
 C      2   1   0     1.526919552454   111.78249471     0.00000000
 C      3   2   1     1.537646659007   111.90864970    54.38527333
 C      4   3   2     1.529999456555   110.19649022   305.12168602
 C      1   2   3     1.525559014717   111.57998654   306.24602656
 P      4   3   2     1.819280146063   112.32437995   175.26873180
 O      7   4   3     1.507015454754   109.91160253   309.32686774
 C      7   4   3     1.819642176975   107.12717542    71.01891777
 C      9   7   4     1.534403938962   115.77403295    88.32332019
 C     10   9   7     1.526588908029   111.93894202   183.40156542
 C     11  10   9     1.524644108902   111.34465782   303.89053655
 C     12  11  10     1.524185918794   111.42389393    54.88285766
 C     13  12  11     1.526642935341   111.90582293   306.06934539
 C      7   4   3     1.820287066893   107.86704931   188.53809979
 C     15   7   4     1.538424598200   112.41877393    51.02311721
 C     16  15   7     1.526319805369   112.64114502   178.00590191
 C     17  16  15     1.522776767225   111.85324390   305.18237609
 C     18  17  16     1.522932896474   111.17285842    54.22586233
 C     19  18  17     1.524938145637   111.44800875   305.29213548
 H      1   2   3     1.097013266381   109.37585158    67.42304718
 H      1   2   3     1.095763178512   109.71427506   184.43796206
 H      2   1   3     1.095826312120   109.67002283   238.16640550
 H      2   1   3     1.097008990434   109.37877191   121.24551089
 H      3   2   1     1.095743146257   109.35417093   292.24372076
 H      3   2   1     1.095888540650   109.24782800   176.19850077
 H      4   3   2     1.097092543587   105.99076011    61.30970457
 H      5   4   3     1.094757799415   110.24065859   177.56048752
 H      5   4   3     1.095124740092   109.76508392   295.07883089
 H      6   1   2     1.095825908282   109.60297528   175.91083304
 H      6   1   2     1.096892205060   109.57501504   293.01343275
 H      9   7   4     1.096727584799   105.12265579   330.46234789
 H     10   9   7     1.094620661186   110.20874935    62.58131886
 H     10   9   7     1.093039133554   110.68547577   305.48003891
 H     11  10   9     1.095860222658   109.63048362   182.45657097
 H     11  10   9     1.096865361347   109.55028266    65.35776520
 H     12  11  10     1.096985270250   109.46281319   293.70511974
 H     12  11  10     1.095750854670   109.72643295   176.60619083
 H     13  12  11     1.097065070532   109.34978402    67.30615897
 H     13  12  11     1.095848788931   109.67765707   184.17525481
 H     14  13  12     1.096058204406   108.84907920   175.68787650
 H     14  13  12     1.095613043246   109.61365236   291.64571054
 H     15   7   4     1.095890104650   107.60692157   292.88334118
 H     16  15   7     1.094305773338   110.07505566   298.85286045
 H     16  15   7     1.096974242536   109.46905433    55.60691362
 H     17  16  15     1.095880218960   109.60862327   183.35987479
 H     17  16  15     1.097066836239   109.30490106    66.53475603
 H     18  17  16     1.095728689683   109.77481022   175.88376627
 H     18  17  16     1.096930416256   109.50568314   293.05983947
 H     19  18  17     1.095840724393   109.61072234   183.73279375
 H     19  18  17     1.096912962337   109.61711233    66.62450937
 H     20  19  18     1.093165921507   108.83317961   178.59633648
 H     20  19  18     1.097181844415   109.39758358   294.08276583

---------------------------
INTERNAL COORDINATES (A.U.)
---------------------------
 C      0   0   0     0.000000000000     0.00000000     0.00000000
 C      1   0   0     2.882207023733     0.00000000     0.00000000
 C      2   1   0     2.885459782667   111.78249471     0.00000000
 C      3   2   1     2.905731076261   111.90864970    54.38527333
 C      4   3   2     2.891279957938   110.19649022   305.12168602
 C      1   2   3     2.882888738950   111.57998654   306.24602656
 P      4   3   2     3.437941236940   112.32437995   175.26873180
 O      7   4   3     2.847846489072   109.91160253   309.32686774
 C      7   4   3     3.438625376216   107.12717542    71.01891777
 C      9   7   4     2.899603223448   115.77403295    88.32332019
 C     10   9   7     2.884834955256   111.93894202   183.40156542
 C     11  10   9     2.881159817522   111.34465782   303.89053655
 C     12  11  10     2.880293963700   111.42389393    54.88285766
 C     13  12  11     2.884937052080   111.90582293   306.06934539
 C      7   4   3     3.439844041547   107.86704931   188.53809979
 C     15   7   4     2.907201168286   112.41877393    51.02311721
 C     16  15   7     2.884326424928   112.64114502   178.00590191
 C     17  16  15     2.877631053154   111.85324390   305.18237609
 C     18  17  16     2.877926094675   111.17285842    54.22586233
 C     19  18  17     2.881715466424   111.44800875   305.29213548
 H      1   2   3     2.073054638739   109.37585158    67.42304718
 H      1   2   3     2.070692315022   109.71427506   184.43796206
 H      2   1   3     2.070811620251   109.67002283   238.16640550
 H      2   1   3     2.073046558371   109.37877191   121.24551089
 H      3   2   1     2.070654459548   109.35417093   292.24372076
 H      3   2   1     2.070929215132   109.24782800   176.19850077
 H      4   3   2     2.073204450946   105.99076011    61.30970457
 H      5   4   3     2.068792423869   110.24065859   177.56048752
 H      5   4   3     2.069485841255   109.76508392   295.07883089
 H      6   1   2     2.070810857108   109.60297528   175.91083304
 H      6   1   2     2.072825865996   109.57501504   293.01343275
 H      9   7   4     2.072514778787   105.12265579   330.46234789
 H     10   9   7     2.068533270174   110.20874935    62.58131886
 H     10   9   7     2.065544616076   110.68547577   305.48003891
 H     11  10   9     2.070875701882   109.63048362   182.45657097
 H     11  10   9     2.072775138730   109.55028266    65.35776520
 H     12  11  10     2.073001733718   109.46281319   293.70511974
 H     12  11  10     2.070669026336   109.72643295   176.60619083
 H     13  12  11     2.073152534396   109.34978402    67.30615897
 H     13  12  11     2.070854095268   109.67765707   184.17525481
 H     14  13  12     2.071249833165   108.84907920   175.68787650
 H     14  13  12     2.070408600487   109.61365236   291.64571054
 H     15   7   4     2.070932170662   107.60692157   292.88334118
 H     16  15   7     2.067938218378   110.07505566   298.85286045
 H     16  15   7     2.072980894359   109.46905433    55.60691362
 H     17  16  15     2.070913489415   109.60862327   183.35987479
 H     17  16  15     2.073155871100   109.30490106    66.53475603
 H     18  17  16     2.070627140582   109.77481022   175.88376627
 H     18  17  16     2.072898074692   109.50568314   293.05983947
 H     19  18  17     2.070838855500   109.61072234   183.73279375
 H     19  18  17     2.072865091566   109.61711233    66.62450937
 H     20  19  18     2.065784210585   108.83317961   178.59633648
 H     20  19  18     2.073373205054   109.39758358   294.08276583

---------------------
BASIS SET INFORMATION
---------------------
There are 4 groups of distinct atoms

 Group   1 Type C   : 7s4p1d contracted to 3s2p1d pattern {511/31/1}
 Group   2 Type P   : 10s7p1d contracted to 4s3p1d pattern {5311/511/1}
 Group   3 Type O   : 7s4p1d contracted to 3s2p1d pattern {511/31/1}
 Group   4 Type H   : 4s1p contracted to 2s1p pattern {31/1}

Atom   0C    basis set group =>   1
Atom   1C    basis set group =>   1
Atom   2C    basis set group =>   1
Atom   3C    basis set group =>   1
Atom   4C    basis set group =>   1
Atom   5C    basis set group =>   1
Atom   6P    basis set group =>   2
Atom   7O    basis set group =>   3
Atom   8C    basis set group =>   1
Atom   9C    basis set group =>   1
Atom  10C    basis set group =>   1
Atom  11C    basis set group =>   1
Atom  12C    basis set group =>   1
Atom  13C    basis set group =>   1
Atom  14C    basis set group =>   1
Atom  15C    basis set group =>   1
Atom  16C    basis set group =>   1
Atom  17C    basis set group =>   1
Atom  18C    basis set group =>   1
Atom  19C    basis set group =>   1
Atom  20H    basis set group =>   4
Atom  21H    basis set group =>   4
Atom  22H    basis set group =>   4
Atom  23H    basis set group =>   4
Atom  24H    basis set group =>   4
Atom  25H    basis set group =>   4
Atom  26H    basis set group =>   4
Atom  27H    basis set group =>   4
Atom  28H    basis set group =>   4
Atom  29H    basis set group =>   4
Atom  30H    basis set group =>   4
Atom  31H    basis set group =>   4
Atom  32H    basis set group =>   4
Atom  33H    basis set group =>   4
Atom  34H    basis set group =>   4
Atom  35H    basis set group =>   4
Atom  36H    basis set group =>   4
Atom  37H    basis set group =>   4
Atom  38H    basis set group =>   4
Atom  39H    basis set group =>   4
Atom  40H    basis set group =>   4
Atom  41H    basis set group =>   4
Atom  42H    basis set group =>   4
Atom  43H    basis set group =>   4
Atom  44H    basis set group =>   4
Atom  45H    basis set group =>   4
Atom  46H    basis set group =>   4
Atom  47H    basis set group =>   4
Atom  48H    basis set group =>   4
Atom  49H    basis set group =>   4
Atom  50H    basis set group =>   4
Atom  51H    basis set group =>   4
Atom  52H    basis set group =>   4
---------------------------------
AUXILIARY/J BASIS SET INFORMATION
---------------------------------
There are 4 groups of distinct atoms

 Group   1 Type C   : 12s5p4d2f1g contracted to 6s4p3d1f1g pattern {711111/2111/211/2/1}
 Group   2 Type P   : 14s5p5d2f1g contracted to 8s4p3d1f1g pattern {71111111/2111/311/2/1}
 Group   3 Type O   : 12s5p4d2f1g contracted to 6s4p3d1f1g pattern {711111/2111/211/2/1}
 Group   4 Type H   : 5s2p1d contracted to 3s1p1d pattern {311/2/1}

Atom   0C    basis set group =>   1
Atom   1C    basis set group =>   1
Atom   2C    basis set group =>   1
Atom   3C    basis set group =>   1
Atom   4C    basis set group =>   1
Atom   5C    basis set group =>   1
Atom   6P    basis set group =>   2
Atom   7O    basis set group =>   3
Atom   8C    basis set group =>   1
Atom   9C    basis set group =>   1
Atom  10C    basis set group =>   1
Atom  11C    basis set group =>   1
Atom  12C    basis set group =>   1
Atom  13C    basis set group =>   1
Atom  14C    basis set group =>   1
Atom  15C    basis set group =>   1
Atom  16C    basis set group =>   1
Atom  17C    basis set group =>   1
Atom  18C    basis set group =>   1
Atom  19C    basis set group =>   1
Atom  20H    basis set group =>   4
Atom  21H    basis set group =>   4
Atom  22H    basis set group =>   4
Atom  23H    basis set group =>   4
Atom  24H    basis set group =>   4
Atom  25H    basis set group =>   4
Atom  26H    basis set group =>   4
Atom  27H    basis set group =>   4
Atom  28H    basis set group =>   4
Atom  29H    basis set group =>   4
Atom  30H    basis set group =>   4
Atom  31H    basis set group =>   4
Atom  32H    basis set group =>   4
Atom  33H    basis set group =>   4
Atom  34H    basis set group =>   4
Atom  35H    basis set group =>   4
Atom  36H    basis set group =>   4
Atom  37H    basis set group =>   4
Atom  38H    basis set group =>   4
Atom  39H    basis set group =>   4
Atom  40H    basis set group =>   4
Atom  41H    basis set group =>   4
Atom  42H    basis set group =>   4
Atom  43H    basis set group =>   4
Atom  44H    basis set group =>   4
Atom  45H    basis set group =>   4
Atom  46H    basis set group =>   4
Atom  47H    basis set group =>   4
Atom  48H    basis set group =>   4
Atom  49H    basis set group =>   4
Atom  50H    basis set group =>   4
Atom  51H    basis set group =>   4
Atom  52H    basis set group =>   4


           ************************************************************
           *        Program running with 6 parallel MPI-processes     *
           *              working on a common directory               *
           ************************************************************
------------------------------------------------------------------------------
                             ORCA STARTUP CALCULATIONS
                           -- RI-GTO INTEGRALS CHOSEN --
------------------------------------------------------------------------------
------------------------------------------------------------------------------
                   ___                                                        
                  /   \      - P O W E R E D   B Y -                         
                 /     \                                                     
                 |  |  |   _    _      __       _____    __    __             
                 |  |  |  | |  | |    /  \     |  _  \  |  |  /  |          
                  \  \/   | |  | |   /    \    | | | |  |  | /  /          
                 / \  \   | |__| |  /  /\  \   | |_| |  |  |/  /          
                |  |  |   |  __  | /  /__\  \  |    /   |      \           
                |  |  |   | |  | | |   __   |  |    \   |  |\   \          
                \     /   | |  | | |  |  |  |  | |\  \  |  | \   \       
                 \___/    |_|  |_| |__|  |__|  |_| \__\ |__|  \__/        
                                                                              
                      - O R C A' S   B I G   F R I E N D -                    
                                      &                                       
                       - I N T E G R A L  F E E D E R -                       
                                                                              
 v1 FN, 2020, v2 2021, v3 2022-2024                                           
------------------------------------------------------------------------------


----------------------
SHARK INTEGRAL PACKAGE
----------------------

Number of atoms                             ...     53
Number of basis functions                   ...    449
Number of shells                            ...    221
Maximum angular momentum                    ...      2
Integral batch strategy                     ... SHARK/LIBINT Hybrid
RI-J (if used) integral strategy            ... SPLIT-RIJ (Revised 2003 algorithm where possible)
Printlevel                                  ...      1
Contraction scheme used                     ... SEGMENTED contraction
Prescreening option                         ... SCHWARTZ
   Thresh                                   ... 2.500e-11
   Tcut                                     ... 2.500e-12
   Tpresel                                  ... 2.500e-12 
Coulomb Range Separation                    ... NOT USED
Exchange Range Separation                   ... NOT USED
Multipole approximations                    ... NOT USED
Finite Nucleus Model                        ... NOT USED
CABS basis                                  ... NOT available
Auxiliary Coulomb fitting basis             ... AVAILABLE
   # of basis functions in Aux-J            ...   1345
   # of shells in Aux-J                     ...    467
   Maximum angular momentum in Aux-J        ...      4
Auxiliary J/K fitting basis                 ... NOT available
Auxiliary Correlation fitting basis         ... NOT available
Auxiliary 'external' fitting basis          ... NOT available

Checking pre-screening integrals            ... done (  0.0 sec) Dimension = 221
Check shell pair data                       ... done (  0.0 sec)
Shell pair information
Shell pair cut-off parameter TPreSel        ...   2.5e-12
Total number of shell pairs                 ...     24531
Shell pairs after pre-screening             ...     19097
Total number of primitive shell pairs       ...     85035
Primitive shell pairs kept                  ...     43064
          la=0 lb=0:   6693 shell pairs
          la=1 lb=0:   7378 shell pairs
          la=1 lb=1:   2031 shell pairs
          la=2 lb=0:   1887 shell pairs
          la=2 lb=1:    986 shell pairs
          la=2 lb=2:    122 shell pairs

Calculating one electron integrals          ... done (  0.0 sec)
Calculating RI/J V-Matrix + Cholesky decomp.... done (  0.1 sec)
Calculating Nuclear repulsion               ... done (  0.0 sec) ENN=   1931.247347069072 Eh

Diagonalization of the overlap matrix:
Smallest eigenvalue                        ... 1.012e-03
Time for diagonalization                   ...    0.029 sec
Threshold for overlap eigenvalues          ... 1.000e-07
Number of eigenvalues below threshold      ... 0
Time for construction of square roots      ...    0.015 sec
Total time needed                          ...    0.046 sec

-------------------
DFT GRID GENERATION
-------------------

General Integration Accuracy     IntAcc      ... 4.388
Radial Grid Type                 RadialGrid  ... OptM3 with GC (2021)
Angular Grid (max. ang.)         AngularGrid ... 4 (Lebedev-302)
Angular grid pruning method      GridPruning ... 4 (adaptive)
Weight generation scheme         WeightScheme... mBecke (2022)
Basis function cutoff            BFCut       ... 1.0000e-11
Integration weight cutoff        WCut        ... 1.0000e-14
Partially contracted basis set               ... off
Rotationally invariant grid construction     ... off
Angular grids for H and He will be reduced by one unit

Total number of grid points                  ...   222981
Total number of batches                      ...     3509
Average number of points per batch           ...       63
Average number of grid points per atom       ...     4207
Initializing property integral containers    ... done (  0.0 sec)

SHARK setup successfully completed in   1.6 seconds

Maximum memory used throughout the entire STARTUP-calculation: 67.2 MB


           ************************************************************
           *        Program running with 6 parallel MPI-processes     *
           *              working on a common directory               *
           ************************************************************
-------------------------------------------------------------------------------
                                 ORCA GUESS
                   Start orbitals & Density for SCF / CASSCF
-------------------------------------------------------------------------------

------------
SCF SETTINGS
------------
Hamiltonian:
 Density Functional     Method          .... DFT(GTOs)
 Exchange Functional    Exchange        .... B88
   X-Alpha parameter    XAlpha          ....  0.666667
   Becke's b parameter  XBeta           ....  0.004200
 Correlation Functional Correlation     .... P86
 LDA part of GGA corr.  LDAOpt          .... PW91-LDA
 Gradients option       PostSCFGGA      .... off
   NL short-range parameter             ....  4.400000
 RI-approximation to the Coulomb term is turned on
   Number of AuxJ basis functions       .... 1345


General Settings:
 Integral files         IntName         .... data/geom_opt_PO_BP86/75806/75806
 Hartree-Fock type      HFTyp           .... RHF
 Total Charge           Charge          ....    0
 Multiplicity           Mult            ....    1
 Number of Electrons    NEL             ....  164
 Basis Dimension        Dim             ....  449
 Nuclear Repulsion      ENuc            ....   1931.2473470691 Eh

Convergence Acceleration:
 AO-DIIS                CNVDIIS         .... on
   Start iteration      DIISMaxIt       ....    12
   Startup error        DIISStart       ....  0.200000
   # of expansion vecs  DIISMaxEq       ....     5
   Bias factor          DIISBfac        ....   1.050
   Max. coefficient     DIISMaxC        ....  10.000
 MO-DIIS                CNVKDIIS        .... off
 Trust-Rad. Augm. Hess. CNVTRAH         .... auto
   Auto Start mean grad. ratio tolernc. ....  1.125000
   Auto Start start iteration           ....    50
   Auto Start num. interpolation iter.  ....    10
   Max. Number of Micro iterations      ....    24
   Max. Number of Macro iterations      .... Maxiter - #DIIS iter
   Number of Davidson start vectors     ....     2
   Converg. threshold    (grad. norm)   ....   1.000e-05
   Grad. Scal. Fac. for Micro threshold ....   0.100
   Minimum threshold for Micro iter.    ....   1.000e-02
   NR start threshold (gradient norm)   ....   1.000e-04
   Initial trust radius                 ....   0.400
   Minimum AH scaling param. (alpha)    ....   1.000
   Maximum AH scaling param. (alpha)    .... 1000.000
   Quad. conv. algorithm                .... NR
   White noise on init. David. guess    .... on
   Maximum white noise                  ....   0.010
   Pseudo random numbers                .... off
   Inactive MOs                         .... canonical
   Orbital update algorithm             .... Taylor
   Preconditioner                       .... Diag
   Full preconditioner red. dimension   ....   250
 SOSCF                  CNVSOSCF        .... on
   Start iteration      SOSCFMaxIt      ....   150
   Startup grad/error   SOSCFStart      ....  0.003300
   Hessian update       SOSCFHessUp     .... L-BFGS
 Level Shifting         CNVShift        .... on
   Level shift para.    LevelShift      ....    0.2500
   Turn off err/grad.   ShiftErr        ....    0.0010
 Zerner damping         CNVZerner       .... off
 Static damping         CNVDamp         .... on
   Fraction old density DampFac         ....    0.7000
   Max. Damping (<1)    DampMax         ....    0.9800
   Min. Damping (>=0)   DampMin         ....    0.0000
   Turn off err/grad.   DampErr         ....    0.1000

SCF Procedure:
 Maximum # iterations   MaxIter         ....   125
 SCF integral mode      SCFMode         .... Direct
   Integral package                     .... SHARK and LIBINT hybrid scheme
 Reset frequency        DirectResetFreq ....    20
 Integral Threshold     Thresh          ....  2.500e-11 Eh
 Primitive CutOff       TCut            ....  2.500e-12 Eh

Convergence Tolerance:
 Convergence Check Mode ConvCheckMode   .... Total+1el-Energy
 Convergence forced     ConvForced      .... 0
 Energy Change          TolE            ....  1.000e-08 Eh
 1-El. energy change                    ....  1.000e-05 Eh
 Orbital Gradient       TolG            ....  1.000e-05
 Orbital Rotation angle TolX            ....  1.000e-05
 DIIS Error             TolErr          ....  5.000e-07

------------------------------
INITIAL GUESS: MODEL POTENTIAL
------------------------------
Loading Hartree-Fock densities                     ... done
Calculating cut-offs                               ... done
Initializing the effective Hamiltonian             ... done
Setting up the integral package (SHARK)            ... done
Starting the Coulomb interaction                   ... done (   0.5 sec)
Making the grid                                    ... done (   0.3 sec)
Mapping shells                                     ... done
Starting the XC term evaluation                    ... done (   0.2 sec)
  promolecular density results
     # of electrons  =    163.990448819
     EX              =   -133.405238061
     EC              =     -6.089427739
     EX+EC           =   -139.494665800
Transforming the Hamiltonian                       ... done (   0.0 sec)
Diagonalizing the Hamiltonian                      ... done (   0.0 sec)
Back transforming the eigenvectors                 ... done (   0.0 sec)
Now organizing SCF variables                       ... done
                      ------------------
                      INITIAL GUESS DONE (   1.1 sec)
                      ------------------
             **** ENERGY FILE WAS UPDATED (data/geom_opt_PO_BP86/75806/75806.en.tmp) ****
Finished Guess after   1.3 sec
Maximum memory used throughout the entire GUESS-calculation: 38.0 MB


           ************************************************************
           *        Program running with 6 parallel MPI-processes     *
           *              working on a common directory               *
           ************************************************************

-------------------------------------------------------------------------------------------
                                      ORCA LEAN-SCF
                              memory conserving SCF solver
-------------------------------------------------------------------------------------------

----------------------------------------D-I-I-S--------------------------------------------
Iteration    Energy (Eh)           Delta-E    RMSDP     MaxDP     DIISErr   Damp  Time(sec)
-------------------------------------------------------------------------------------------
               ***  Starting incremental Fock matrix formation  ***
    1    -1121.1375489528973048     0.00e+00  2.95e-03  1.67e-01  3.34e-01  0.700   1.5
    2    -1121.4514418975159060    -3.14e-01  1.81e-03  9.28e-02  8.57e-02  0.700   1.6
                               ***Turning on AO-DIIS***
    3    -1121.5489537580046999    -9.75e-02  6.50e-04  1.91e-02  2.42e-02  0.700   1.4
    4    -1121.6129902906336611    -6.40e-02  1.07e-03  3.56e-02  1.29e-02  0.000   1.5
    5    -1121.7597204994140156    -1.47e-01  3.25e-04  1.55e-02  1.37e-02  0.000   1.5
    6    -1121.7612110532254519    -1.49e-03  1.08e-04  4.50e-03  6.89e-03  0.000   1.4
                              *** Initializing SOSCF ***
---------------------------------------S-O-S-C-F--------------------------------------
Iteration    Energy (Eh)           Delta-E    RMSDP     MaxDP     MaxGrad    Time(sec)
--------------------------------------------------------------------------------------
    7    -1121.7614127104816362    -2.02e-04  3.96e-05  1.07e-03  9.59e-04     2.0
               *** Restarting incremental Fock matrix formation ***
    8    -1121.7614230589724684    -1.03e-05  2.59e-05  6.49e-04  7.10e-05     1.5
    9    -1121.7614239525673838    -8.94e-07  1.12e-05  5.83e-04  9.81e-05     1.4
   10    -1121.7614240759385211    -1.23e-07  9.98e-06  4.62e-04  8.57e-05     1.2
   11    -1121.7614243241432632    -2.48e-07  4.07e-06  1.58e-04  3.42e-05     1.3
   12    -1121.7614243644497947    -4.03e-08  3.73e-06  9.28e-05  2.08e-05     1.3
   13    -1121.7614244344431427    -7.00e-08  1.17e-06  3.90e-05  5.58e-06     1.2
   14    -1121.7614244351166235    -6.73e-10  5.33e-07  3.41e-05  3.17e-06     1.1
                 **** Energy Check signals convergence ****

               *****************************************************
               *                     SUCCESS                       *
               *           SCF CONVERGED AFTER  14 CYCLES          *
               *****************************************************

             **** ENERGY FILE WAS UPDATED (data/geom_opt_PO_BP86/75806/75806.en.tmp) ****

----------------
TOTAL SCF ENERGY
----------------

Total Energy       :      -1121.76142443511662 Eh          -30524.68020 eV

Components:
Nuclear Repulsion  :       1931.24734706907248 Eh           52551.91200 eV
Electronic Energy  :      -3053.00877150418910 Eh          -83076.59220 eV
One Electron Energy:      -5367.24892842099598 Eh         -146050.26839 eV
Two Electron Energy:       2314.24015691680688 Eh           62973.67619 eV

Virial components:
Potential Energy   :      -2233.11972682580836 Eh          -60766.27706 eV
Kinetic Energy     :       1111.35830239069196 Eh           30241.59686 eV
Virial Ratio       :          2.00936072733883

DFT components:
N(Alpha)           :       81.999881122913 electrons
N(Beta)            :       81.999881122913 electrons
N(Total)           :      163.999762245826 electrons
E(X)               :     -136.042009463843 Eh       
E(C)               :       -6.051306080429 Eh       
E(XC)              :     -142.093315544273 Eh       

---------------
SCF CONVERGENCE
---------------

  Last Energy change         ...    6.7348e-10  Tolerance :   1.0000e-08
  Last MAX-Density change    ...    3.4095e-05  Tolerance :   1.0000e-07
  Last RMS-Density change    ...    5.3323e-07  Tolerance :   5.0000e-09
  Last DIIS Error            ...    9.5904e-04  Tolerance :   5.0000e-07
  Last Orbital Gradient      ...    3.1717e-06  Tolerance :   1.0000e-05
  Last Orbital Rotation      ...    6.1118e-06  Tolerance :   1.0000e-05


----------------
ORBITAL ENERGIES
----------------

  NO   OCC          E(Eh)            E(eV) 
   0   2.0000     -76.389552     -2078.6654 
   1   2.0000     -18.692967      -508.6615 
   2   2.0000      -9.917015      -269.8557 
   3   2.0000      -9.915656      -269.8187 
   4   2.0000      -9.915608      -269.8174 
   5   2.0000      -9.915554      -269.8159 
   6   2.0000      -9.914404      -269.7847 
   7   2.0000      -9.911277      -269.6996 
   8   2.0000      -9.911031      -269.6929 
   9   2.0000      -9.909880      -269.6615 
  10   2.0000      -9.908749      -269.6308 
  11   2.0000      -9.908367      -269.6204 
  12   2.0000      -9.907734      -269.6032 
  13   2.0000      -9.907594      -269.5993 
  14   2.0000      -9.907287      -269.5910 
  15   2.0000      -9.906469      -269.5687 
  16   2.0000      -9.905689      -269.5475 
  17   2.0000      -9.904761      -269.5222 
  18   2.0000      -9.904424      -269.5131 
  19   2.0000      -9.904211      -269.5073 
  20   2.0000      -6.350019      -172.7928 
  21   2.0000      -4.571131      -124.3868 
  22   2.0000      -4.570976      -124.3826 
  23   2.0000      -4.570844      -124.3790 
  24   2.0000      -0.837390       -22.7866 
  25   2.0000      -0.763390       -20.7729 
  26   2.0000      -0.758699       -20.6452 
  27   2.0000      -0.757067       -20.6008 
  28   2.0000      -0.692222       -18.8363 
  29   2.0000      -0.674420       -18.3519 
  30   2.0000      -0.673508       -18.3271 
  31   2.0000      -0.671078       -18.2610 
  32   2.0000      -0.670782       -18.2529 
  33   2.0000      -0.668474       -18.1901 
  34   2.0000      -0.580709       -15.8019 
  35   2.0000      -0.554363       -15.0850 
  36   2.0000      -0.551914       -15.0183 
  37   2.0000      -0.546922       -14.8825 
  38   2.0000      -0.543264       -14.7830 
  39   2.0000      -0.541665       -14.7395 
  40   2.0000      -0.503573       -13.7029 
  41   2.0000      -0.500201       -13.6112 
  42   2.0000      -0.497193       -13.5293 
  43   2.0000      -0.474366       -12.9081 
  44   2.0000      -0.437974       -11.9179 
  45   2.0000      -0.436330       -11.8731 
  46   2.0000      -0.422887       -11.5074 
  47   2.0000      -0.405141       -11.0244 
  48   2.0000      -0.404196       -10.9987 
  49   2.0000      -0.400851       -10.9077 
  50   2.0000      -0.399402       -10.8683 
  51   2.0000      -0.398127       -10.8336 
  52   2.0000      -0.393182       -10.6990 
  53   2.0000      -0.392440       -10.6788 
  54   2.0000      -0.389114       -10.5883 
  55   2.0000      -0.367481        -9.9997 
  56   2.0000      -0.356544        -9.7021 
  57   2.0000      -0.352008        -9.5786 
  58   2.0000      -0.346567        -9.4306 
  59   2.0000      -0.340993        -9.2789 
  60   2.0000      -0.338540        -9.2121 
  61   2.0000      -0.337401        -9.1812 
  62   2.0000      -0.334183        -9.0936 
  63   2.0000      -0.328176        -8.9301 
  64   2.0000      -0.317146        -8.6300 
  65   2.0000      -0.310877        -8.4594 
  66   2.0000      -0.310284        -8.4433 
  67   2.0000      -0.307014        -8.3543 
  68   2.0000      -0.304699        -8.2913 
  69   2.0000      -0.301677        -8.2090 
  70   2.0000      -0.294129        -8.0037 
  71   2.0000      -0.285090        -7.7577 
  72   2.0000      -0.281447        -7.6586 
  73   2.0000      -0.278319        -7.5735 
  74   2.0000      -0.276362        -7.5202 
  75   2.0000      -0.268491        -7.3060 
  76   2.0000      -0.266205        -7.2438 
  77   2.0000      -0.262066        -7.1312 
  78   2.0000      -0.259673        -7.0661 
  79   2.0000      -0.256951        -6.9920 
  80   2.0000      -0.196704        -5.3526 
  81   2.0000      -0.195905        -5.3308 
  82   0.0000       0.016584         0.4513 
  83   0.0000       0.026107         0.7104 
  84   0.0000       0.032540         0.8855 
  85   0.0000       0.038173         1.0387 
  86   0.0000       0.046499         1.2653 
  87   0.0000       0.047467         1.2916 
  88   0.0000       0.051781         1.4090 
  89   0.0000       0.060770         1.6536 
  90   0.0000       0.066630         1.8131 
  91   0.0000       0.072294         1.9672 
  92   0.0000       0.072612         1.9759 
*Only the first 10 virtual orbitals were printed.

                    ********************************
                    * MULLIKEN POPULATION ANALYSIS *
                    ********************************

-----------------------
MULLIKEN ATOMIC CHARGES
-----------------------
   0 C :   -0.018523
   1 C :    0.012934
   2 C :    0.031239
   3 C :   -0.226117
   4 C :    0.010486
   5 C :    0.017002
   6 P :    0.526643
   7 O :   -0.473944
   8 C :   -0.234884
   9 C :    0.020567
  10 C :    0.016114
  11 C :   -0.014322
  12 C :    0.008025
  13 C :    0.038038
  14 C :   -0.207686
  15 C :    0.012034
  16 C :    0.015065
  17 C :   -0.011931
  18 C :    0.020730
  19 C :    0.018437
  20 H :    0.003175
  21 H :    0.013910
  22 H :    0.015335
  23 H :    0.005758
  24 H :    0.004122
  25 H :    0.033852
  26 H :    0.033212
  27 H :    0.016756
  28 H :    0.017329
  29 H :    0.012573
  30 H :    0.003793
  31 H :    0.023231
  32 H :    0.011093
  33 H :    0.011268
  34 H :    0.011786
  35 H :    0.001853
  36 H :    0.003263
  37 H :    0.012175
  38 H :    0.001335
  39 H :    0.015928
  40 H :    0.031309
  41 H :    0.011347
  42 H :    0.014623
  43 H :    0.014992
  44 H :    0.029846
  45 H :    0.013868
  46 H :   -0.001592
  47 H :    0.011860
  48 H :    0.009152
  49 H :    0.014377
  50 H :   -0.003149
  51 H :    0.013320
  52 H :    0.028396
Sum of atomic charges:   -0.0000000

--------------------------------
MULLIKEN REDUCED ORBITAL CHARGES
--------------------------------
  0 C s       :     2.999029  s :     2.999029
      pz      :     0.986887  p :     2.984898
      px      :     1.005189
      py      :     0.992823
      dz2     :     0.009937  d :     0.034596
      dxz     :     0.007196
      dyz     :     0.005010
      dx2y2   :     0.007184
      dxy     :     0.005270

  1 C s       :     2.978093  s :     2.978093
      pz      :     0.991380  p :     2.974381
      px      :     0.984168
      py      :     0.998833
      dz2     :     0.007434  d :     0.034593
      dxz     :     0.009253
      dyz     :     0.004666
      dx2y2   :     0.008418
      dxy     :     0.004821

  2 C s       :     2.992526  s :     2.992526
      pz      :     0.999342  p :     2.942119
      px      :     0.943513
      py      :     0.999263
      dz2     :     0.008651  d :     0.034116
      dxz     :     0.007243
      dyz     :     0.002543
      dx2y2   :     0.010078
      dxy     :     0.005601

  3 C s       :     3.107377  s :     3.107377
      pz      :     1.011977  p :     3.083660
      px      :     1.031116
      py      :     1.040568
      dz2     :     0.009903  d :     0.035080
      dxz     :     0.007703
      dyz     :     0.005185
      dx2y2   :     0.008277
      dxy     :     0.004011

  4 C s       :     3.000262  s :     3.000262
      pz      :     0.964076  p :     2.954337
      px      :     0.987488
      py      :     1.002773
      dz2     :     0.007370  d :     0.034915
      dxz     :     0.009634
      dyz     :     0.004502
      dx2y2   :     0.008751
      dxy     :     0.004659

  5 C s       :     2.975065  s :     2.975065
      pz      :     0.992548  p :     2.973346
      px      :     0.976530
      py      :     1.004269
      dz2     :     0.009021  d :     0.034587
      dxz     :     0.007175
      dyz     :     0.002566
      dx2y2   :     0.010001
      dxy     :     0.005825

  6 P s       :     5.265606  s :     5.265606
      pz      :     2.830592  p :     8.733314
      px      :     2.941687
      py      :     2.961035
      dz2     :     0.103873  d :     0.474437
      dxz     :     0.129790
      dyz     :     0.115882
      dx2y2   :     0.078904
      dxy     :     0.045989

  7 O s       :     3.818448  s :     3.818448
      pz      :     1.368883  p :     4.643528
[...]
      pz      :     0.025065  p :     0.066003
      px      :     0.021622
      py      :     0.019315

 34 H s       :     0.908605  s :     0.908605
      pz      :     0.035240  p :     0.064079
      px      :     0.014292
      py      :     0.014547

 35 H s       :     0.912911  s :     0.912911
      pz      :     0.012372  p :     0.063619
      px      :     0.036926
      py      :     0.014322

 36 H s       :     0.912589  s :     0.912589
      pz      :     0.013315  p :     0.063600
      px      :     0.037297
      py      :     0.012987

 37 H s       :     0.908926  s :     0.908926
      pz      :     0.013258  p :     0.063943
      px      :     0.012586
      py      :     0.038099

 38 H s       :     0.913031  s :     0.913031
      pz      :     0.013330  p :     0.063536
      px      :     0.035741
      py      :     0.014465

 39 H s       :     0.907259  s :     0.907259
      pz      :     0.024245  p :     0.063965
      px      :     0.020979
      py      :     0.018742

 40 H s       :     0.898440  s :     0.898440
      pz      :     0.037312  p :     0.067688
      px      :     0.014013
      py      :     0.016363

 41 H s       :     0.910512  s :     0.910512
      pz      :     0.012833  p :     0.064808
      px      :     0.037294
      py      :     0.014681

 42 H s       :     0.907432  s :     0.907432
      pz      :     0.039308  p :     0.071261
      px      :     0.015393
      py      :     0.016561

 43 H s       :     0.910441  s :     0.910441
      pz      :     0.016048  p :     0.065545
      px      :     0.034867
      py      :     0.014630

 44 H s       :     0.903384  s :     0.903384
      pz      :     0.039485  p :     0.066027
      px      :     0.012092
      py      :     0.014450

 45 H s       :     0.907673  s :     0.907673
      pz      :     0.012356  p :     0.063980
      px      :     0.013314
      py      :     0.038310

 46 H s       :     0.914066  s :     0.914066
      pz      :     0.037288  p :     0.063523
      px      :     0.012922
      py      :     0.013312

 47 H s       :     0.909273  s :     0.909273
      pz      :     0.019954  p :     0.063865
      px      :     0.025256
      py      :     0.018655

 48 H s       :     0.909119  s :     0.909119
      pz      :     0.036455  p :     0.063811
      px      :     0.012681
      py      :     0.014675

 49 H s       :     0.907262  s :     0.907262
      pz      :     0.015037  p :     0.063991
      px      :     0.034405
      py      :     0.014549

 50 H s       :     0.914714  s :     0.914714
      pz      :     0.036610  p :     0.063512
      px      :     0.012196
      py      :     0.014705

 51 H s       :     0.912593  s :     0.912593
      pz      :     0.013429  p :     0.066236
      px      :     0.013353
      py      :     0.039454

 52 H s       :     0.900749  s :     0.900749
      pz      :     0.041538  p :     0.067306
      px      :     0.012599
      py      :     0.013170



                      *****************************
                      * MAYER POPULATION ANALYSIS *
                      *****************************

  NA   - Mulliken gross atomic population
  ZA   - Total nuclear charge
  QA   - Mulliken gross atomic charge
  VA   - Mayer's total valence
  BVA  - Mayer's bonded valence
  FA   - Mayer's free valence

  ATOM       NA         ZA         QA         VA         BVA        FA
  0 C      6.0336     6.0000    -0.0336     4.1198     4.1198    -0.0000
  1 C      5.9937     6.0000     0.0063     4.1085     4.1085    -0.0000
  2 C      5.9843     6.0000     0.0157     4.0560     4.0560    -0.0000
  3 C      6.2493     6.0000    -0.2493     3.9903     3.9903    -0.0000
  4 C      5.9914     6.0000     0.0086     4.0264     4.0264    -0.0000
  5 C      6.0001     6.0000    -0.0001     4.1112     4.1112    -0.0000
  6 P     14.4469    15.0000     0.5531     4.6928     4.6928    -0.0000
  7 O      8.4768     8.0000    -0.4768     2.1267     2.1267    -0.0000
  8 C      6.2636     6.0000    -0.2636     3.9732     3.9732    -0.0000
  9 C      5.9826     6.0000     0.0174     4.0506     4.0506    -0.0000
 10 C      6.0011     6.0000    -0.0011     4.1094     4.1094    -0.0000
 11 C      6.0299     6.0000    -0.0299     4.1188     4.1188    -0.0000
 12 C      5.9988     6.0000     0.0012     4.1055     4.1055    -0.0000
 13 C      5.9741     6.0000     0.0259     4.0613     4.0613    -0.0000
 14 C      6.2301     6.0000    -0.2301     3.9891     3.9891    -0.0000
 15 C      6.0018     6.0000    -0.0018     4.0520     4.0520    -0.0000
 16 C      5.9966     6.0000     0.0034     4.1163     4.1163    -0.0000
 17 C      6.0243     6.0000    -0.0243     4.1254     4.1254    -0.0000
 18 C      5.9894     6.0000     0.0106     4.1066     4.1066    -0.0000
 19 C      6.0008     6.0000    -0.0008     4.0444     4.0444    -0.0000
 20 H      0.9902     1.0000     0.0098     0.9830     0.9830    -0.0000
 21 H      0.9790     1.0000     0.0210     0.9743     0.9743    -0.0000
 22 H      0.9788     1.0000     0.0212     0.9756     0.9756     0.0000
 23 H      0.9890     1.0000     0.0110     0.9834     0.9834    -0.0000
 24 H      0.9878     1.0000     0.0122     0.9939     0.9939    -0.0000
 25 H      0.9583     1.0000     0.0417     1.0080     1.0080    -0.0000
 26 H      0.9594     1.0000     0.0406     0.9957     0.9957    -0.0000
 27 H      0.9761     1.0000     0.0239     0.9820     0.9820    -0.0000
 28 H      0.9763     1.0000     0.0237     0.9890     0.9890    -0.0000
 29 H      0.9802     1.0000     0.0198     0.9748     0.9748    -0.0000
 30 H      0.9899     1.0000     0.0101     0.9831     0.9831    -0.0000
 31 H      0.9690     1.0000     0.0310     0.9944     0.9944    -0.0000
 32 H      0.9833     1.0000     0.0167     0.9959     0.9959    -0.0000
 33 H      0.9812     1.0000     0.0188     0.9900     0.9900    -0.0000
 34 H      0.9812     1.0000     0.0188     0.9747     0.9747    -0.0000
 35 H      0.9918     1.0000     0.0082     0.9835     0.9835    -0.0000
 36 H      0.9903     1.0000     0.0097     0.9826     0.9826    -0.0000
 37 H      0.9806     1.0000     0.0194     0.9742     0.9742    -0.0000
 38 H      0.9926     1.0000     0.0074     0.9827     0.9827    -0.0000
 39 H      0.9787     1.0000     0.0213     0.9754     0.9754    -0.0000
 40 H      0.9607     1.0000     0.0393     1.0081     1.0081    -0.0000
 41 H      0.9857     1.0000     0.0143     0.9990     0.9990     0.0000
 42 H      0.9743     1.0000     0.0257     0.9889     0.9889    -0.0000
 43 H      0.9752     1.0000     0.0248     0.9797     0.9797     0.0000
 44 H      0.9633     1.0000     0.0367     1.0040     1.0040     0.0000
 45 H      0.9804     1.0000     0.0196     0.9753     0.9753     0.0000
 46 H      0.9956     1.0000     0.0044     0.9816     0.9816    -0.0000
 47 H      0.9814     1.0000     0.0186     0.9738     0.9738    -0.0000
 48 H      0.9836     1.0000     0.0164     0.9823     0.9823    -0.0000
 49 H      0.9797     1.0000     0.0203     0.9753     0.9753    -0.0000
 50 H      0.9970     1.0000     0.0030     0.9813     0.9813    -0.0000
 51 H      0.9767     1.0000     0.0233     0.9908     0.9908    -0.0000
 52 H      0.9636     1.0000     0.0364     1.0157     1.0157    -0.0000

  Mayer bond orders larger than 0.100000
B(  0-C ,  1-C ) :   1.0948 B(  0-C ,  5-C ) :   1.0987 B(  0-C , 20-H ) :   0.9285 
B(  0-C , 21-H ) :   0.9318 B(  1-C ,  2-C ) :   1.0963 B(  1-C , 22-H ) :   0.9308 
B(  1-C , 23-H ) :   0.9258 B(  2-C ,  3-C ) :   1.0472 B(  2-C , 24-H ) :   0.9212 
B(  2-C , 25-H ) :   0.9174 B(  3-C ,  4-C ) :   1.0177 B(  3-C ,  6-P ) :   0.8996 
B(  3-C , 26-H ) :   0.8815 B(  4-C ,  5-C ) :   1.0950 B(  4-C , 27-H ) :   0.9257 
B(  4-C , 28-H ) :   0.9160 B(  5-C , 29-H ) :   0.9314 B(  5-C , 30-H ) :   0.9257 
B(  6-P ,  7-O ) :   1.8300 B(  6-P ,  8-C ) :   0.8719 B(  6-P , 14-C ) :   0.8996 
B(  8-C ,  9-C ) :   1.0342 B(  8-C , 13-C ) :   1.0391 B(  8-C , 31-H ) :   0.8839 
B(  9-C , 10-C ) :   1.0945 B(  9-C , 32-H ) :   0.9124 B(  9-C , 33-H ) :   0.9191 
B( 10-C , 11-C ) :   1.0998 B( 10-C , 34-H ) :   0.9301 B( 10-C , 35-H ) :   0.9253 
B( 11-C , 12-C ) :   1.0942 B( 11-C , 36-H ) :   0.9282 B( 11-C , 37-H ) :   0.9318 
B( 12-C , 13-C ) :   1.0924 B( 12-C , 38-H ) :   0.9251 B( 12-C , 39-H ) :   0.9318 
B( 13-C , 40-H ) :   0.9176 B( 13-C , 41-H ) :   0.9259 B( 14-C , 15-C ) :   1.0399 
B( 14-C , 19-C ) :   1.0399 B( 14-C , 42-H ) :   0.8767 B( 15-C , 16-C ) :   1.1012 
B( 15-C , 43-H ) :   0.9204 B( 15-C , 44-H ) :   0.9208 B( 16-C , 17-C ) :   1.1007 
B( 16-C , 45-H ) :   0.9296 B( 16-C , 46-H ) :   0.9240 B( 17-C , 18-C ) :   1.0996 
B( 17-C , 47-H ) :   0.9320 B( 17-C , 48-H ) :   0.9279 B( 18-C , 19-C ) :   1.0979 
B( 18-C , 49-H ) :   0.9296 B( 18-C , 50-H ) :   0.9232 B( 19-C , 51-H ) :   0.9157 
B( 19-C , 52-H ) :   0.9165 

-------
TIMINGS
-------

Total SCF time: 0 days 0 hours 0 min 8 sec 

Total time                  ....       8.382 sec
Sum of individual times     ....       8.258 sec  ( 98.5%)

SCF preparation             ....       0.165 sec  (  2.0%)
Fock matrix formation       ....       7.380 sec  ( 88.0%)
  Startup                   ....       0.030 sec  (  0.4% of F)
  Split-RI-J                ....       2.639 sec  ( 35.8% of F)
  XC integration            ....       4.604 sec  ( 62.4% of F)
    Basis function eval.    ....       1.319 sec  ( 28.6% of XC)
    Density eval.           ....       1.501 sec  ( 32.6% of XC)
    XC-Functional eval.     ....       0.114 sec  (  2.5% of XC)
    XC-Potential eval.      ....       0.959 sec  ( 20.8% of XC)
Diagonalization             ....       0.000 sec  (  0.0%)
Density matrix formation    ....       0.075 sec  (  0.9%)
Total Energy calculation    ....       0.029 sec  (  0.3%)
Population analysis         ....       0.127 sec  (  1.5%)
Orbital Transformation      ....       0.066 sec  (  0.8%)
Orbital Orthonormalization  ....       0.000 sec  (  0.0%)
DIIS solution               ....       0.080 sec  (  1.0%)
SOSCF solution              ....       0.336 sec  (  4.0%)
Finished LeanSCF after   8.5 sec

Maximum memory used throughout the entire LEANSCF-calculation: 54.9 MB


-------------------------------------------------------------------------------
                          DFT DISPERSION CORRECTION                            
                                                                               
                              DFTD3 V3.1  Rev 1                                
                          USING Becke-Johnson damping                          
-------------------------------------------------------------------------------
The BP86 functional is recognized
Active option DFTDOPT                   ...         4   

molecular C6(AA) [au] = 22591.687684 


            DFT-D V3
 parameters
 s6 scaling factor         :     1.0000 
 a1 scaling factor         :     0.3946 
 s8 scaling factor         :     3.2822 
 a2 scaling factor         :     4.8516 
 ad hoc parameters k1-k3   :    16.0000     1.3333    -4.0000 

 Edisp/kcal,au: -68.287054284325  -0.108822336272 
 E6   /kcal   : -26.615070355 
 E8   /kcal   : -41.671983929 
 % E8         :  61.024720375 

-------------------------   ----------------
Dispersion correction           -0.108822336
-------------------------   ----------------


-------------------------   --------------------
FINAL SINGLE POINT ENERGY     -1121.882429540816
-------------------------   --------------------

                                *** OPTIMIZATION RUN DONE ***



           ************************************************************
           *        Program running with 6 parallel MPI-processes     *
           *              working on a common directory               *
           ************************************************************

------------------------------------------------------------------------------
                              ORCA PROPERTY CALCULATIONS
------------------------------------------------------------------------------

GBWName                                 ... data/geom_opt_PO_BP86/75806/75806.gbw
Number of atoms                         ...     53
Number of basis functions               ...    449
Max core memory                         ...   1024 MB

Electric properties:
Dipole moment                           ... YES
Quadrupole moment                       ...  NO
Static polarizability (Dipole/Dipole)   ...  NO
Static polarizability (Dipole/Quad.)    ...  NO
Static polarizability (Quad./Quad.)     ...  NO
Static polarizability (Velocity)        ...  NO

Atomic electric properties:
Dipole moment                           ...  NO
Quadrupole moment                       ...  NO
Static polarizability                   ...  NO

Choice of electric origin               ... Center of mass
Position of electric origin             ...    -0.040589    -0.105399     0.358609

General magnetic properties:
Magnetizability                         ...  NO

EPR properties:
g-Tensor (aka g-matrix)                 ...  NO
Zero-Field splitting spin-orbit         ...  NO
Zero-field splitting spin-spin          ...  NO
Hyperfine couplings                     ...  NO (   0 nuclei)
Quadrupole couplings                    ...  NO (   0 nuclei)
Contact density                         ...  NO (   0 nuclei)

NMR properties:
Chemical shifts                         ...  NO (   0 nuclei)
Spin-rotation constants                 ...  NO (   0 nuclei)
Spin-spin couplings                     ...  NO (   0 nuclei,    0 pairs)

Choice of magnetic origin               ... GIAO
Position of magnetic origin             ...     0.000000     0.000000     0.000000

Properties with geometric perturbations:
SCF Hessian                             ...  NO
IR spectrum                             ...  NO
VCD spectrum                            ...  NO
X-ray spectroscopy properties:
SCF XES/XAS/RIXS spectra                ...  NO


-------------
DIPOLE MOMENT
-------------

Method             : SCF
Type of density    : Electron Density
Multiplicity       :   1
Irrep              :   0
Energy             : -1121.7736072045447600 Eh
Relativity type    : 
Basis              : AO
                                X                 Y                 Z
Electronic contribution:     -0.697183386      -2.449529160       7.706514560
Nuclear contribution   :      1.008910676       2.675311920      -9.024093669
                        -----------------------------------------
Total Dipole Moment    :      0.311727290       0.225782760      -1.317579109
                        -----------------------------------------
Magnitude (a.u.)       :      1.372649434
Magnitude (Debye)      :      3.488997585



--------------------
Rotational spectrum 
--------------------
 
Rotational constants in cm-1:             0.010116             0.008921             0.005816 
Rotational constants in MHz :           303.283694           267.452588           174.358242 

Dipole components along the rotational axes: 
x,y,z [a.u.] :     0.235725     0.030169    -1.351921 
x,y,z [Debye]:     0.599165     0.076684    -3.436310 

 

Dipole moment calculation done in   0.0 sec 

Maximum memory used throughout the entire PROP-calculation: 28.7 MB

--------------------------------
SUGGESTED CITATIONS FOR THIS RUN
--------------------------------

Below you find a list of papers that are relevant to this ORCA run
We neither can nor want to force you to cite these papers, but we appreciate if you do
You receive ORCA, which is the product of decades of hard work by many enthusiastic individuals, for free
The only thing we kindly ask in return is that you cite our papers,
We deeply appreciate it, if you show your appreciation for ORCA by not just citing the generic ORCA reference.

Please note that relegating all ORCA citations to the supporting information does *not* help us.
SI sections are not indexed - citations you put there will not count into any citation statistics
But we need these citations in order to attract the funding resources that allow us to do what we are doing

Therefore, if you are a happy ORCA user, please consider citing a few of the papers listed below in the main body of your paper

In addition to the list printed below, the program has created the file data/geom_opt_PO_BP86/75806/75806.bibtex that contains the list in bibtex format
You can import this file easily into all common literature databanks and citation aid programs


List of essential papers. We consider these as the minimum necessary citations

  1. Neese,F.
     Software update: the ORCA program system, version 5.0
     WIRES Comput. Molec. Sci., 2022 12(1)e1606
     doi.org/10.1002/wcms.1606

List of papers to cite with high priority. The work reported in these papers was absolutely
necessary for this run to complete.
Our perspective: the developers of density functionals and basis sets usually get cited in chemistry papers
Good! But without the algorithms to do something with them, the functionals or basis sets would not do anything.
Hence, in our opinion, the algorithm design and method developments papers are equally worthy of getting cited

  1. Neese,F.
     An improvement of the resolution of the identity approximation for the formation of the Coulomb matrix
     J. Comp. Chem., 2003 24(14)1740-1747
     doi.org/10.1002/jcc.10318
  2. Neese,F.
     The SHARK Integral Generation and Digestion System
     J. Comp. Chem., 2022  1-16
     doi.org/10.1002/jcc.26942
  3. Grimme,S.; Antony,J.; Ehrlich,S.; Krieg,H.
     A consistent and accurate ab initio parametrization of density functional dispersion correction (DFT-D) for the 94 elements H-Pu
     J. Chem. Phys., 2010 132 154104-XXXX
     doi.org/10.1063/1.3382344
  4. Grimme,S.; Ehrlich,S.; Goerigk,L.
     Effect of the damping function in dispersion corrected density functional theory
     J. Comput. Chem., 2011 32(7)1456-1465
     doi.org/10.1002/jcc.21759

List of suggested additional citations. These are papers that are important in the 'surrounding' of 
of this run, or papers that preceded the highly important papers. If you like your results we are grateful for a citation.

  1. Neese,F.
     The ORCA program system
     WIRES Comput. Molec. Sci., 2012 2(1)73-78
     doi.org/10.1002/wcms.81
  2. Neese,F.
     Software update: the ORCA program system, version 4.0
     WIRES Comput. Molec. Sci., 2018 8(1)1-6
     doi.org/10.1002/wcms.1327
  3. Neese,F.; Wennmohs,F.; Becker,U.; Riplinger,C.
     The ORCA quantum chemistry program package
     J. Chem. Phys., 2020 152 Art. No. L224108
     doi.org/10.1063/5.0004608

List of optional additional citations

  1. Neese,F.
     Approximate second-order SCF convergence for spin unrestricted wavefunctions
     Chem. Phys. Lett., 2000 325(1-3)93-98
     doi.org/10.1016/s0009-2614(00)00662-x

Timings for individual modules:

Sum of individual times          ...      217.796 sec (=   3.630 min)
Startup calculation              ...       16.799 sec (=   0.280 min)   7.7 %
SCF iterations                   ...      124.618 sec (=   2.077 min)  57.2 %
Property calculations            ...        0.234 sec (=   0.004 min)   0.1 %
SCF Gradient evaluation          ...       75.828 sec (=   1.264 min)  34.8 %
Geometry relaxation              ...        0.317 sec (=   0.005 min)   0.1 %
                             ****ORCA TERMINATED NORMALLY****
TOTAL RUN TIME: 0 days 0 hours 3 minutes 39 seconds 610 msec
