
                                 *****************
                                 * O   R   C   A *
                                 *****************

                                            #,                                       
                                            ###                                      
                                            ####                                     
                                            #####                                    
                                            ######                                   
                                           ########,                                 
                                     ,,################,,,,,                         
                               ,,#################################,,                 
                          ,,##########################################,,             
                       ,#########################################, ''#####,          
                    ,#############################################,,   '####,        
                  ,##################################################,,,,####,       
                ,###########''''           ''''###############################       
              ,#####''   ,,,,##########,,,,          '''####'''          '####       
            ,##' ,,,,###########################,,,                        '##       
           ' ,,###''''                  '''############,,,                           
         ,,##''                                '''############,,,,        ,,,,,,###''
      ,#''                                            '''#######################'''  
     '                                                          ''''####''''         
             ,#######,   #######,   ,#######,      ##                                
            ,#'     '#,  ##    ##  ,#'     '#,    #''#        ,####,   ,####,        
            ##       ##  ##   ,#'  ##            #'  '#       #'       #'  '#        
            ##       ##  #######   ##           ,######,      #####,   #    #        
            '#,     ,#'  ##    ##  '#,     ,#' ,#      #,     #,   #   #,  ,#        
             '#######'   ##     ##  '#######'  #'      '#     '####' # '####'        



                #########################################################
                #                        -***-                          #
                #          Department of theory and spectroscopy        #
                #                                                       #
                #                      Frank Neese                      #
                #                                                       #
                #     Directorship, Architecture, Infrastructure        #
                #                    SHARK, DRIVERS                     #
                #        Core code/Algorithms in most modules           #
                #                                                       #
                #        Max Planck Institute fuer Kohlenforschung      #
                #                Kaiser Wilhelm Platz 1                 #
                #                 D-45470 Muelheim/Ruhr                 #
                #                      Germany                          #
                #                                                       #
                #                  All rights reserved                  #
                #                        -***-                          #
                #########################################################


                         Program Version 6.0.0  -   RELEASE   -


 With contributions from (in alphabetic order):
   Daniel Aravena         : Magnetic Suceptibility
   Michael Atanasov       : Ab Initio Ligand Field Theory (pilot matlab implementation)
   Alexander A. Auer      : GIAO ZORA, VPT2 properties, NMR spectrum
   Ute Becker             : All parallelization in ORCA, NUMFREQ, NUMCALC
   Giovanni Bistoni       : ED, misc. LED, open-shell LED, HFLD
   Martin Brehm           : Molecular dynamics
   Dmytro Bykov           : pre 5.0 version of the SCF Hessian
   Marcos Casanova-Páez   : Triplet and SCS-CIS(D). UHF-(DLPNO)-IP/EA/STEOM-CCSD. UHF-CVS-IP/STEOM-CCSD
   Vijay G. Chilkuri      : MRCI spin determinant printing, contributions to CSF-ICE
   Pauline Colinet        : FMM embedding
   Dipayan Datta          : RHF DLPNO-CCSD density
   Achintya Kumar Dutta   : EOM-CC, STEOM-CC
   Nicolas Foglia         : Exact transition moments, OPA infrastructure, MCD improvements
   Dmitry Ganyushin       : Spin-Orbit,Spin-Spin,Magnetic field MRCI
   Miquel Garcia          : C-PCM and meta-GGA Hessian, CCSD/C-PCM, Gaussian charge scheme
   Tiago L. C. Gouveia    : GS-ROHF, GS-ROCIS
   Yang Guo               : DLPNO-NEVPT2, F12-NEVPT2, CIM, IAO-localization
   Andreas Hansen         : Spin unrestricted coupled pair/coupled cluster methods
   Ingolf Harden          : AUTO-CI MPn and infrastructure 
   Benjamin Helmich-Paris : MC-RPA, TRAH-(SCF,CASSCF), AVAS, COSX integrals, SCF dyn. polar.
   Lee Huntington         : MR-EOM, pCC
   Robert Izsak           : Overlap fitted RIJCOSX, COSX-SCS-MP3, EOM
   Riya Kayal             : Wick's Theorem for AUTO-CI, AUTO-CI UHF-CCSDT
   Emily Kempfer          : AUTO-CI, RHF CISDT and CCSDT
   Christian Kollmar      : KDIIS, OOCD, Brueckner-CCSD(T), CCSD density, CASPT2, CASPT2-K, improved NEVPT2
   Axel Koslowski         : Symmetry handling
   Simone Kossmann        : Meta GGA functionals, TD-DFT gradient, OOMP2, (MP2 Hessian; deprecated post 5.0)
   Lucas Lang             : DCDCAS
   Marvin Lechner         : AUTO-CI (C++ implementation), FIC-MRCC
   Spencer Leger          : CASSCF response
   Dagmar Lenk            : GEPOL surface, SMD, ORCA-2-JSON
   Dimitrios Liakos       : Extrapolation schemes; Compound Job, initial MDCI parallelization
   Dimitrios Manganas     : Further ROCIS development; embedding schemes. LFT, Crystal Embedding
   Dimitrios Pantazis     : SARC Basis sets
   Anastasios Papadopoulos: AUTO-CI, single reference methods and gradients
   Taras Petrenko         : pre 6.0 DFT Hessian and TD-DFT gradient, (ASA, deprecated), ECA, 1-Electron XAS/XES, NRVS
   Peter Pinski           : DLPNO-MP2, DLPNO-MP2 Gradient
   Christoph Reimann      : Effective Core Potentials
   Marius Retegan         : Local ZFS, SOC
   Christoph Riplinger    : Optimizer, TS searches, QM/MM, DLPNO-CCSD(T), (RO)-DLPNO pert. Triples
   Michael Roemelt        : Original ROCIS implementation
   Masaaki Saitow         : Open-shell DLPNO-CCSD energy and density
   Barbara Sandhoefer     : DKH picture change effects
   Kantharuban Sivalingam : CASSCF convergence/infrastructure, NEVPT2 and variants, FIC-MRCI
   Bernardo de Souza      : ESD, SOC TD-DFT
   Georgi Stoychev        : AutoAux, RI-MP2 NMR, DLPNO-MP2 response, X2C
   Van Anh Tran           : RI-MP2 g-tensors
   Willem Van den Heuvel  : Paramagnetic NMR
   Zikuan Wang            : NOTCH, Electric field optimization 
   Frank Wennmohs         : Technical directorship and infrastructure
   Hang Xu                : AUTO-CI-Response properties 


 We gratefully acknowledge several colleagues who have allowed us to
 interface, adapt or use parts of their codes:
   Stefan Grimme, W. Hujo, H. Kruse, P. Pracht,  : VdW corrections, initial TS optimization,
                  C. Bannwarth, S. Ehlert,         DFT functionals, gCP, sTDA/sTD-DF
                  L. Wittmann, M. Mueller
   Ed Valeev, F. Pavosevic, A. Kumar             : LibInt (2-el integral package), F12 methods
   Garnet Chan, S. Sharma, J. Yang, R. Olivares  : DMRG
   Ulf Ekstrom                                   : XCFun DFT Library
   Mihaly Kallay                                 : mrcc  (arbitrary order and MRCC methods)
   Frank Weinhold                                : gennbo (NPA and NBO analysis)
   Simon Mueller                                 : openCOSMO-RS
   Christopher J. Cramer and Donald G. Truhlar   : smd solvation model
   Lars Goerigk                                  : TD-DFT with DH, B97 family of functionals
   V. Asgeirsson, H. Jonsson                     : NEB implementation
   FAccTs GmbH                                   : IRC, NEB, NEB-TS, DLPNO-Multilevel, CI-OPT
                                                   MM, QMMM, 2- and 3-layer-ONIOM, Crystal-QMMM,
                                                   LR-CPCM, SF, NACMEs, symmetry and pop. for TD-DFT,
                                                   nearIR, NL-DFT gradient (VV10), updates on ESD,
                                                   ML-optimized integration grids, MBIS, APM,
                                                   GOAT, DOCKER, SOLVATOR, interface openCOSMO-RS
   S Lehtola, MJT Oliveira, MAL Marques          : LibXC Library
   Liviu Ungur et al                             : ANISO software


 Your calculation uses the libint2 library for the computation of 2-el integrals
 For citations please refer to: http://libint.valeyev.net

 Your ORCA version has been built with support for libXC version: 6.2.2
 For citations please refer to: https://libxc.gitlab.io

 This ORCA versions uses:
   CBLAS   interface :  Fast vector & matrix operations
   LAPACKE interface :  Fast linear algebra routines
   Shared memory     :  Shared parallel matrices


Your calculation utilizes the atom-pairwise dispersion correction
with the zero-damping scheme (D30)


XCFun DFT library Copyright 2009-2010 Ulf Ekstrom and contributors.
See http://admol.org/xcfun for more information.
This is free software; see the source code for copying conditions.
There is ABSOLUTELY NO WARRANTY; not even for MERCHANTABILITY or FITNESS FOR A PARTICULAR PURPOSE.
For details see the documentation.
Scientific users of this library should cite U. Ekstrom, L. Visscher, R. Bast, A. J. Thorvaldsen and K. Ruud;
J.Chem.Theor.Comp. 2010, DOI: 10.1021/ct100117s
XCFun Version 0.99 

Warning: RI is on but no J-basis has been assigned. Assigning Def2/J (nothing to worry about!)
================================================================================

----- Orbital basis set information -----
Your calculation utilizes the basis: def2-TZVP
   F. Weigend and R. Ahlrichs, Phys. Chem. Chem. Phys. 7, 3297 (2005).

----- AuxJ basis set information -----
Your calculation utilizes the auxiliary basis: def2/J
   F. Weigend, Phys. Chem. Chem. Phys. 8, 1057 (2006).

================================================================================
                                        WARNINGS
                       Please study these warnings very carefully!
================================================================================

WARNING: Functional chosen is sensitive to the integration grid.
         DEFGRID3 seems to be a minimum grid for robust results!

================================================================================
                                       INPUT FILE
================================================================================
NAME = data/single_point_P_M06-2x/75806/75806.inp
|  1> ! RIJCOSX M062X def2-TZVP D3ZERO NormalSCF
|  2> %pal
|  3> nprocs 6
|  4> end
|  5> 
|  6> * xyz 0 1
|  7>   C          -3.93523400552807     -2.41317031266310     -0.74495659984252
|  8>   C          -2.55001714927805     -3.04475635942547     -0.94447944870601
|  9>   C          -1.50940541810701     -2.45228678771356      0.02016957128242
| 10>   C          -1.43217936635603     -0.91674892099913     -0.09298510151934
| 11>   C          -2.83056798369862     -0.29232978106216      0.09988843665684
| 12>   C          -3.86590882927518     -0.88439346937551     -0.86886923621596
| 13>   P          -0.25063360285096     -0.20420618434547      1.19397238135564
| 14>   C           0.07082755328769      1.54733273482668      0.54377795428129
| 15>   C          -0.72514734130887      2.57512890584050      1.39740797409600
| 16>   C          -0.88899111891898      3.93667941011824      0.68269982294560
| 17>   C           0.32846687016747      4.24498526273178     -0.19941595446628
| 18>   C           0.46245127653118      3.20389931958905     -1.33840995857852
| 19>   C          -0.14142590004734      1.83200023475601     -0.95365353856378
| 20>   C           1.37007364571653     -1.08197233428127      0.78110765536548
| 21>   C           2.46510699160094     -0.64414442710224      1.77567567298304
| 22>   C           3.75514619172457     -1.46086287904550      1.59543253892970
| 23>   C           4.26322268574568     -1.40302502637620      0.14687682165352
| 24>   C           3.17335977000133     -1.83773113259932     -0.84442190618385
| 25>   C           1.88999150771179     -1.00829333333889     -0.66447451479609
| 26>   H          -4.66272512682144     -2.83223205335173     -1.47230200151422
| 27>   H          -4.31473207535969     -2.67921524509138      0.26782628600574
| 28>   H          -2.60140016297797     -4.14732448269139     -0.81826203749047
| 29>   H          -2.21533733273019     -2.86473761577331     -1.99147327135667
| 30>   H          -1.77302470783793     -2.72567985456610      1.06788891857277
| 31>   H          -0.51681289287053     -2.90662551191392     -0.18021580357884
| 32>   H          -1.07483389922257     -0.66480936469458     -1.11651697828402
| 33>   H          -2.78091109693539      0.80958078144644     -0.02299993535173
| 34>   H          -3.15702666826346     -0.47207343939641      1.14933723831848
| 35>   H          -3.58706530442163     -0.61302136391529     -1.91258787019309
| 36>   H          -4.86342243605633     -0.43165954781918     -0.68411253266464
| 37>   H           1.15438904729093      1.69527718241920      0.75392786394072
| 38>   H          -0.20468399583851      2.70829176394807      2.36938271092182
| 39>   H          -1.72590348704356      2.16526541256817      1.65293820533843
| 40>   H          -1.05372228325769      4.74121432889559      1.42933818374807
| 41>   H          -1.80090893209210      3.92376671169923      0.04576465506280
| 42>   H           0.26636599443953      5.27079317197712     -0.61833824045142
| 43>   H           1.24065494992263      4.23218613979406      0.43711099212895
| 44>   H          -0.03792089771968      3.57592477551331     -2.25807130185933
| 45>   H           1.53450064213918      3.07738313734611     -1.60235455518744
| 46>   H           0.29826583429920      1.03789721461640     -1.58684099443096
| 47>   H          -1.23044164767603      1.82469838480959     -1.17316671003841
| 48>   H           1.14014402699931     -2.14924231986981      1.00812192438860
| 49>   H           2.69577094538441      0.43448035635475      1.61580664985178
| 50>   H           2.08675601706291     -0.72967419319630      2.81630859995010
| 51>   H           4.53780293296925     -1.10144171294524      2.29719667568143
| 52>   H           3.55217124259104     -2.52110052475843      1.86957756020767
| 53>   H           5.17141130727313     -2.03143858465666      0.02785846375950
| 54>   H           4.57282435453758     -0.35912604153882     -0.08923914674987
| 55>   H           3.54154936160831     -1.75456451737687     -1.88943024697763
| 56>   H           2.93636544541776     -2.91367477777489     -0.68061727919260
| 57>   H           2.11148016321900      0.05210772295040     -0.91747879580908
| 58>   H           1.11128690485249     -1.34732785254261     -1.37972479742364
| 59> **                         ****END OF INPUT****
================================================================================

                       ****************************
                       * Single Point Calculation *
                       ****************************

---------------------------------
CARTESIAN COORDINATES (ANGSTROEM)
---------------------------------
  C     -3.935234   -2.413170   -0.744957
  C     -2.550017   -3.044756   -0.944479
  C     -1.509405   -2.452287    0.020170
  C     -1.432179   -0.916749   -0.092985
  C     -2.830568   -0.292330    0.099888
  C     -3.865909   -0.884393   -0.868869
  P     -0.250634   -0.204206    1.193972
  C      0.070828    1.547333    0.543778
  C     -0.725147    2.575129    1.397408
  C     -0.888991    3.936679    0.682700
  C      0.328467    4.244985   -0.199416
  C      0.462451    3.203899   -1.338410
  C     -0.141426    1.832000   -0.953654
  C      1.370074   -1.081972    0.781108
  C      2.465107   -0.644144    1.775676
  C      3.755146   -1.460863    1.595433
  C      4.263223   -1.403025    0.146877
  C      3.173360   -1.837731   -0.844422
  C      1.889992   -1.008293   -0.664475
  H     -4.662725   -2.832232   -1.472302
  H     -4.314732   -2.679215    0.267826
  H     -2.601400   -4.147324   -0.818262
  H     -2.215337   -2.864738   -1.991473
  H     -1.773025   -2.725680    1.067889
  H     -0.516813   -2.906626   -0.180216
  H     -1.074834   -0.664809   -1.116517
  H     -2.780911    0.809581   -0.023000
  H     -3.157027   -0.472073    1.149337
  H     -3.587065   -0.613021   -1.912588
  H     -4.863422   -0.431660   -0.684113
  H      1.154389    1.695277    0.753928
  H     -0.204684    2.708292    2.369383
  H     -1.725903    2.165265    1.652938
  H     -1.053722    4.741214    1.429338
  H     -1.800909    3.923767    0.045765
  H      0.266366    5.270793   -0.618338
  H      1.240655    4.232186    0.437111
  H     -0.037921    3.575925   -2.258071
  H      1.534501    3.077383   -1.602355
  H      0.298266    1.037897   -1.586841
  H     -1.230442    1.824698   -1.173167
  H      1.140144   -2.149242    1.008122
  H      2.695771    0.434480    1.615807
  H      2.086756   -0.729674    2.816309
  H      4.537803   -1.101442    2.297197
  H      3.552171   -2.521101    1.869578
  H      5.171411   -2.031439    0.027858
  H      4.572824   -0.359126   -0.089239
  H      3.541549   -1.754565   -1.889430
  H      2.936365   -2.913675   -0.680617
  H      2.111480    0.052108   -0.917479
  H      1.111287   -1.347328   -1.379725

----------------------------
CARTESIAN COORDINATES (A.U.)
----------------------------
  NO LB      ZA    FRAG     MASS         X           Y           Z
   0 C     6.0000    0    12.011   -7.436515   -4.560231   -1.407764
   1 C     6.0000    0    12.011   -4.818834   -5.753756   -1.784807
   2 C     6.0000    0    12.011   -2.852363   -4.634150    0.038115
   3 C     6.0000    0    12.011   -2.706427   -1.732404   -0.175716
   4 C     6.0000    0    12.011   -5.348998   -0.552423    0.188762
   5 C     6.0000    0    12.011   -7.305509   -1.671261   -1.641925
   6 P    15.0000    0    30.974   -0.473629   -0.385894    2.256281
   7 C     6.0000    0    12.011    0.133845    2.924035    1.027591
   8 C     6.0000    0    12.011   -1.370330    4.866288    2.640718
   9 C     6.0000    0    12.011   -1.679950    7.439246    1.290116
  10 C     6.0000    0    12.011    0.620712    8.021860   -0.376842
  11 C     6.0000    0    12.011    0.873906    6.054492   -2.529228
  12 C     6.0000    0    12.011   -0.267256    3.461979   -1.802144
  13 C     6.0000    0    12.011    2.589064   -2.044631    1.476080
  14 C     6.0000    0    12.011    4.658377   -1.217257    3.355541
  15 C     6.0000    0    12.011    7.096198   -2.760631    3.014931
  16 C     6.0000    0    12.011    8.056323   -2.651333    0.277557
  17 C     6.0000    0    12.011    5.996781   -3.472809   -1.595726
  18 C     6.0000    0    12.011    3.571566   -1.905398   -1.255675
  19 H     1.0000    0     1.008   -8.811274   -5.352143   -2.782248
  20 H     1.0000    0     1.008   -8.153662   -5.062983    0.506118
  21 H     1.0000    0     1.008   -4.915934   -7.837307   -1.546291
  22 H     1.0000    0     1.008   -4.186381   -5.413570   -3.763339
  23 H     1.0000    0     1.008   -3.350531   -5.150788    2.018018
  24 H     1.0000    0     1.008   -0.976635   -5.492726   -0.340559
  25 H     1.0000    0     1.008   -2.031142   -1.256308   -2.109911
  26 H     1.0000    0     1.008   -5.255160    1.529886   -0.043464
  27 H     1.0000    0     1.008   -5.965916   -0.892090    2.171933
  28 H     1.0000    0     1.008   -6.778571   -1.158442   -3.614267
  29 H     1.0000    0     1.008   -9.190536   -0.815718   -1.292785
  30 H     1.0000    0     1.008    2.181479    3.203610    1.424717
  31 H     1.0000    0     1.008   -0.386797    5.117930    4.477484
  32 H     1.0000    0     1.008   -3.261485    4.091759    3.123601
  33 H     1.0000    0     1.008   -1.991247    8.959597    2.701058
  34 H     1.0000    0     1.008   -3.403225    7.414844    0.086483
  35 H     1.0000    0     1.008    0.503359    9.960356   -1.168490
  36 H     1.0000    0     1.008    2.344498    7.997673    0.826020
  37 H     1.0000    0     1.008   -0.071660    6.757519   -4.267136
  38 H     1.0000    0     1.008    2.899786    5.815411   -3.028011
  39 H     1.0000    0     1.008    0.563641    1.961341   -2.998695
  40 H     1.0000    0     1.008   -2.325198    3.448180   -2.216964
  41 H     1.0000    0     1.008    2.154560   -4.061479    1.905074
  42 H     1.0000    0     1.008    5.094269    0.821049    3.053432
  43 H     1.0000    0     1.008    3.943397   -1.378884    5.322052
  44 H     1.0000    0     1.008    8.575205   -2.081423    4.341073
  45 H     1.0000    0     1.008    6.712631   -4.764190    3.532990
  46 H     1.0000    0     1.008    9.772551   -3.838863    0.052645
  47 H     1.0000    0     1.008    8.641386   -0.678650   -0.168638
  48 H     1.0000    0     1.008    6.692558   -3.315646   -3.570506
  49 H     1.0000    0     1.008    5.548927   -5.506047   -1.286180
  50 H     1.0000    0     1.008    3.990119    0.098469   -1.733784
  51 H     1.0000    0     1.008    2.100028   -2.546081   -2.607302

--------------------------------
INTERNAL COORDINATES (ANGSTROEM)
--------------------------------
 C      0   0   0     0.000000000000     0.00000000     0.00000000
 C      1   0   0     1.535426989643     0.00000000     0.00000000
 C      2   1   0     1.537673795127   111.74809296     0.00000000
 C      3   2   1     1.541636916774   111.81632059   304.84513137
 C      4   3   2     1.543564118902   110.38806124    54.25964314
 C      1   2   3     1.535356296788   110.99931948    55.08136410
 P      4   3   2     1.886803409352   110.94407241   175.48699698
 C      7   4   3     1.895779167857   102.77740068   163.85268022
 C      8   7   4     1.555192982465   109.60643249   104.45000859
 C      9   8   7     1.546438586068   112.48344476   198.45070622
 C     10   9   8     1.534726261815   111.00569640   327.29276475
 C     11  10   9     1.548909004287   110.87038088    63.53072230
 C      8   7   4     1.538956851160   118.76570564   336.94766472
 C      7   4   3     1.888815152814   102.28275560    58.27222299
 C     14   7   4     1.542710875884   109.64853622   181.56735896
 C     15  14   7     1.537438699582   111.66921336   172.79804013
 C     16  15  14     1.536164251319   111.59666891    54.77645015
 C     17  16  15     1.536048092253   111.29842552   305.49895307
 C     14   7   4     1.538002272134   118.24545544    53.50082038
 H      1   2   3     1.110804846678   110.52287549   178.22262228
 H      1   2   3     1.113789865704   109.10499136   294.86954414
 H      2   1   3     1.110957926941   110.59415540   122.93762107
 H      2   1   3     1.113828259805   109.07154309   239.52938564
 H      3   2   1     1.114430226442   109.58364327    65.79001111
 H      3   2   1     1.109872918816   109.52627579   182.05170958
 H      4   3   2     1.113008007907   108.00169952   296.01550449
 H      5   4   3     1.109853254330   110.32021162   182.31167546
 H      5   4   3     1.113654274337   108.54379726    66.42659639
 H      6   1   2     1.113887390128   109.23888013    65.50418586
 H      6   1   2     1.110916936116   110.59866379   182.21511291
 H      8   7   4     1.113622941300   102.88589014   218.99423793
 H      9   8   7     1.110562618579   108.64929732    75.91439992
 H      9   8   7     1.111214041228   110.08420659   321.00221773
 H     10   9   8     1.109901632514   110.06164637   203.96952251
 H     10   9   8     1.112406060685   109.95348096    87.83033197
 H     11  10   9     1.109790190591   110.99331195   186.61261168
 H     11  10   9     1.112392675334   108.62057485   302.54512558
 H     12  11  10     1.111104063059   110.16021485    94.11724618
 H     12  11  10     1.111288862874   109.54967693   210.36994366
 H     13   8   7     1.106731576361   111.66438748   315.09294623
 H     13   8   7     1.110943134479   109.04086821    71.60256883
 H     14   7   4     1.115109111272   102.90618091   294.78189942
 H     15  14   7     1.114538194778   109.21339039   293.27881867
 H     15  14   7     1.110577187552   109.90191557    49.43966443
 H     16  15  14     1.110949167553   110.19459843   177.95316882
 H     16  15  14     1.113758586074   108.90006857   294.20209242
 H     17  16  15     1.110799505770   110.49657233   182.28557717
 H     17  16  15     1.114149466812   109.08818492    65.80766327
 H     18  17  16     1.111090767482   110.52835961   177.86656261
 H     18  17  16     1.113846036624   109.23427286   294.51951320
 H     19  14   7     1.112438218918   109.07079856    63.07173606
 H     19  14   7     1.110364008118   110.71674790   306.18552234

---------------------------
INTERNAL COORDINATES (A.U.)
---------------------------
 C      0   0   0     0.000000000000     0.00000000     0.00000000
 C      1   0   0     2.901536509056     0.00000000     0.00000000
 C      2   1   0     2.905782356097   111.74809296     0.00000000
 C      3   2   1     2.913271570645   111.81632059   304.84513137
 C      4   3   2     2.916913454872   110.38806124    54.25964314
 C      1   2   3     2.901402918922   110.99931948    55.08136410
 P      4   3   2     3.565541712224   110.94407241   175.48699698
 C      7   4   3     3.582503437642   102.77740068   163.85268022
 C      8   7   4     2.938888822255   109.60643249   104.45000859
 C      9   8   7     2.922345410598   112.48344476   198.45070622
 C     10   9   8     2.900212325367   111.00569640   327.29276475
 C     11  10   9     2.927013824467   110.87038088    63.53072230
 C      8   7   4     2.908206980615   118.76570564   336.94766472
 C      7   4   3     3.569343356419   102.28275560    58.27222299
 C     14   7   4     2.915301059243   109.64853622   181.56735896
 C     15  14   7     2.905338089903   111.66921336   172.79804013
 C     16  15  14     2.902929731714   111.59666891    54.77645015
 C     17  16  15     2.902710222891   111.29842552   305.49895307
 C     14   7   4     2.906403087683   118.24545544    53.50082038
 H      1   2   3     2.099116948453   110.52287549   178.22262228
 H      1   2   3     2.104757816917   109.10499136   294.86954414
 H      2   1   3     2.099406228227   110.59415540   122.93762107
 H      2   1   3     2.104830371253   109.07154309   239.52938564
 H      3   2   1     2.105967923339   109.58364327    65.79001111
 H      3   2   1     2.097355860018   109.52627579   182.05170958
 H      4   3   2     2.103280319806   108.00169952   296.01550449
 H      5   4   3     2.097318699524   110.32021162   182.31167546
 H      5   4   3     2.104501586367   108.54379726    66.42659639
 H      6   1   2     2.104942111370   109.23888013    65.50418586
 H      6   1   2     2.099328766793   110.59866379   182.21511291
 H      8   7   4     2.104442375509   102.88589014   218.99423793
 H      9   8   7     2.098659203685   108.64929732    75.91439992
 H      9   8   7     2.099890214089   110.08420659   321.00221773
 H     10   9   8     2.097410121044   110.06164637   203.96952251
 H     10   9   8     2.102142804409   109.95348096    87.83033197
 H     11  10   9     2.097199526329   110.99331195   186.61261168
 H     11  10   9     2.102117509762   108.62057485   302.54512558
 H     12  11  10     2.099682385468   110.16021485    94.11724618
 H     12  11  10     2.100031606510   109.54967693   210.36994366
 H     13   8   7     2.091419583086   111.66438748   315.09294623
 H     13   8   7     2.099378274526   109.04086821    71.60256883
 H     14   7   4     2.107250829744   102.90618091   294.78189942
 H     15  14   7     2.106171953926   109.21339039   293.27881867
 H     15  14   7     2.098686735053   109.90191557    49.43966443
 H     16  15  14     2.099389675384   110.19459843   177.95316882
 H     16  15  14     2.104698706984   108.90006857   294.20209242
 H     17  16  15     2.099106855600   110.49657233   182.28557717
 H     17  16  15     2.105437364530   109.08818492    65.80766327
 H     18  17  16     2.099657260469   110.52835961   177.86656261
 H     18  17  16     2.104863964572   109.23427286   294.51951320
 H     19  14   7     2.102203574662   109.07079856    63.07173606
 H     19  14   7     2.098283884307   110.71674790   306.18552234

---------------------
BASIS SET INFORMATION
---------------------
There are 3 groups of distinct atoms

 Group   1 Type C   : 11s6p2d1f contracted to 5s3p2d1f pattern {62111/411/11/1}
 Group   2 Type P   : 14s9p3d1f contracted to 5s5p2d1f pattern {73211/51111/21/1}
 Group   3 Type H   : 5s1p contracted to 3s1p pattern {311/1}

Atom   0C    basis set group =>   1
Atom   1C    basis set group =>   1
Atom   2C    basis set group =>   1
Atom   3C    basis set group =>   1
Atom   4C    basis set group =>   1
Atom   5C    basis set group =>   1
Atom   6P    basis set group =>   2
Atom   7C    basis set group =>   1
Atom   8C    basis set group =>   1
Atom   9C    basis set group =>   1
Atom  10C    basis set group =>   1
Atom  11C    basis set group =>   1
Atom  12C    basis set group =>   1
Atom  13C    basis set group =>   1
Atom  14C    basis set group =>   1
Atom  15C    basis set group =>   1
Atom  16C    basis set group =>   1
Atom  17C    basis set group =>   1
Atom  18C    basis set group =>   1
Atom  19H    basis set group =>   3
Atom  20H    basis set group =>   3
Atom  21H    basis set group =>   3
Atom  22H    basis set group =>   3
Atom  23H    basis set group =>   3
Atom  24H    basis set group =>   3
Atom  25H    basis set group =>   3
Atom  26H    basis set group =>   3
Atom  27H    basis set group =>   3
Atom  28H    basis set group =>   3
Atom  29H    basis set group =>   3
Atom  30H    basis set group =>   3
Atom  31H    basis set group =>   3
Atom  32H    basis set group =>   3
Atom  33H    basis set group =>   3
Atom  34H    basis set group =>   3
Atom  35H    basis set group =>   3
Atom  36H    basis set group =>   3
Atom  37H    basis set group =>   3
Atom  38H    basis set group =>   3
Atom  39H    basis set group =>   3
Atom  40H    basis set group =>   3
Atom  41H    basis set group =>   3
Atom  42H    basis set group =>   3
Atom  43H    basis set group =>   3
Atom  44H    basis set group =>   3
Atom  45H    basis set group =>   3
Atom  46H    basis set group =>   3
Atom  47H    basis set group =>   3
Atom  48H    basis set group =>   3
Atom  49H    basis set group =>   3
Atom  50H    basis set group =>   3
Atom  51H    basis set group =>   3
---------------------------------
AUXILIARY/J BASIS SET INFORMATION
---------------------------------
There are 3 groups of distinct atoms

 Group   1 Type C   : 12s5p4d2f1g contracted to 6s4p3d1f1g pattern {711111/2111/211/2/1}
 Group   2 Type P   : 14s5p5d2f1g contracted to 8s4p3d1f1g pattern {71111111/2111/311/2/1}
 Group   3 Type H   : 5s2p1d contracted to 3s1p1d pattern {311/2/1}

Atom   0C    basis set group =>   1
Atom   1C    basis set group =>   1
Atom   2C    basis set group =>   1
Atom   3C    basis set group =>   1
Atom   4C    basis set group =>   1
Atom   5C    basis set group =>   1
Atom   6P    basis set group =>   2
Atom   7C    basis set group =>   1
Atom   8C    basis set group =>   1
Atom   9C    basis set group =>   1
Atom  10C    basis set group =>   1
Atom  11C    basis set group =>   1
Atom  12C    basis set group =>   1
Atom  13C    basis set group =>   1
Atom  14C    basis set group =>   1
Atom  15C    basis set group =>   1
Atom  16C    basis set group =>   1
Atom  17C    basis set group =>   1
Atom  18C    basis set group =>   1
Atom  19H    basis set group =>   3
Atom  20H    basis set group =>   3
Atom  21H    basis set group =>   3
Atom  22H    basis set group =>   3
Atom  23H    basis set group =>   3
Atom  24H    basis set group =>   3
Atom  25H    basis set group =>   3
Atom  26H    basis set group =>   3
Atom  27H    basis set group =>   3
Atom  28H    basis set group =>   3
Atom  29H    basis set group =>   3
Atom  30H    basis set group =>   3
Atom  31H    basis set group =>   3
Atom  32H    basis set group =>   3
Atom  33H    basis set group =>   3
Atom  34H    basis set group =>   3
Atom  35H    basis set group =>   3
Atom  36H    basis set group =>   3
Atom  37H    basis set group =>   3
Atom  38H    basis set group =>   3
Atom  39H    basis set group =>   3
Atom  40H    basis set group =>   3
Atom  41H    basis set group =>   3
Atom  42H    basis set group =>   3
Atom  43H    basis set group =>   3
Atom  44H    basis set group =>   3
Atom  45H    basis set group =>   3
Atom  46H    basis set group =>   3
Atom  47H    basis set group =>   3
Atom  48H    basis set group =>   3
Atom  49H    basis set group =>   3
Atom  50H    basis set group =>   3
Atom  51H    basis set group =>   3


           ************************************************************
           *        Program running with 6 parallel MPI-processes     *
           *              working on a common directory               *
           ************************************************************
------------------------------------------------------------------------------
                             ORCA STARTUP CALCULATIONS
                           -- RI-GTO INTEGRALS CHOSEN --
------------------------------------------------------------------------------
------------------------------------------------------------------------------
                   ___                                                        
                  /   \      - P O W E R E D   B Y -                         
                 /     \                                                     
                 |  |  |   _    _      __       _____    __    __             
                 |  |  |  | |  | |    /  \     |  _  \  |  |  /  |          
                  \  \/   | |  | |   /    \    | | | |  |  | /  /          
                 / \  \   | |__| |  /  /\  \   | |_| |  |  |/  /          
                |  |  |   |  __  | /  /__\  \  |    /   |      \           
                |  |  |   | |  | | |   __   |  |    \   |  |\   \          
                \     /   | |  | | |  |  |  |  | |\  \  |  | \   \       
                 \___/    |_|  |_| |__|  |__|  |_| \__\ |__|  \__/        
                                                                              
                      - O R C A' S   B I G   F R I E N D -                    
                                      &                                       
                       - I N T E G R A L  F E E D E R -                       
                                                                              
 v1 FN, 2020, v2 2021, v3 2022-2024                                           
------------------------------------------------------------------------------


----------------------
SHARK INTEGRAL PACKAGE
----------------------

Number of atoms                             ...     52
Number of basis functions                   ...    793
Number of shells                            ...    343
Maximum angular momentum                    ...      3
Integral batch strategy                     ... SHARK/LIBINT Hybrid
RI-J (if used) integral strategy            ... SPLIT-RIJ (Revised 2003 algorithm where possible)
Printlevel                                  ...      1
Contraction scheme used                     ... SEGMENTED contraction
Prescreening option                         ... SCHWARTZ
   Thresh                                   ... 1.000e-10
   Tcut                                     ... 1.000e-11
   Tpresel                                  ... 1.000e-11 
Coulomb Range Separation                    ... NOT USED
Exchange Range Separation                   ... NOT USED
Multipole approximations                    ... NOT USED
Finite Nucleus Model                        ... NOT USED
CABS basis                                  ... NOT available
Auxiliary Coulomb fitting basis             ... AVAILABLE
   # of basis functions in Aux-J            ...   1296
   # of shells in Aux-J                     ...    452
   Maximum angular momentum in Aux-J        ...      4
Auxiliary J/K fitting basis                 ... NOT available
Auxiliary Correlation fitting basis         ... NOT available
Auxiliary 'external' fitting basis          ... NOT available

Checking pre-screening integrals            ... done (  0.0 sec) Dimension = 343
Check shell pair data                       ... done (  0.0 sec)
Shell pair information
Shell pair cut-off parameter TPreSel        ...   1.0e-11
Total number of shell pairs                 ...     58996
Shell pairs after pre-screening             ...     42805
Total number of primitive shell pairs       ...    171936
Primitive shell pairs kept                  ...     84586
          la=0 lb=0:  13684 shell pairs
          la=1 lb=0:  13106 shell pairs
          la=1 lb=1:   3204 shell pairs
          la=2 lb=0:   5331 shell pairs
          la=2 lb=1:   2590 shell pairs
          la=2 lb=2:    563 shell pairs
          la=3 lb=0:   2514 shell pairs
          la=3 lb=1:   1204 shell pairs
          la=3 lb=2:    488 shell pairs
          la=3 lb=3:    121 shell pairs

Calculating one electron integrals          ... done (  0.1 sec)
Calculating RI/J V-Matrix + Cholesky decomp.... done (  0.1 sec)
Calculating Nuclear repulsion               ... done (  0.0 sec) ENN=   1729.733332067890 Eh

Diagonalization of the overlap matrix:
Smallest eigenvalue                        ... 3.621e-05
Time for diagonalization                   ...    0.131 sec
Threshold for overlap eigenvalues          ... 1.000e-07
Number of eigenvalues below threshold      ... 0
Time for construction of square roots      ...    0.060 sec
Total time needed                          ...    0.198 sec

-------------------
DFT GRID GENERATION
-------------------

General Integration Accuracy     IntAcc      ... 4.388
Radial Grid Type                 RadialGrid  ... OptM3 with GC (2021)
Angular Grid (max. ang.)         AngularGrid ... 4 (Lebedev-302)
Angular grid pruning method      GridPruning ... 4 (adaptive)
Weight generation scheme         WeightScheme... mBecke (2022)
Basis function cutoff            BFCut       ... 1.0000e-10
Integration weight cutoff        WCut        ... 1.0000e-14
Partially contracted basis set               ... off
Rotationally invariant grid construction     ... off
Angular grids for H and He will be reduced by one unit

Total number of grid points                  ...   217312
Total number of batches                      ...     3422
Average number of points per batch           ...       63
Average number of grid points per atom       ...     4179

--------------------
COSX GRID GENERATION
--------------------

GRIDX 1
-------
General Integration Accuracy     IntAcc      ... 3.816
Radial Grid Type                 RadialGrid  ... OptM3 with GC (2021)
Angular Grid (max. ang.)         AngularGrid ... 1 (Lebedev-50)
Angular grid pruning method      GridPruning ... 4 (adaptive)
Weight generation scheme         WeightScheme... mBecke (2022)
Basis function cutoff            BFCut       ... 1.0000e-10
Integration weight cutoff        WCut        ... 1.0000e-14
Partially contracted basis set               ... on
Rotationally invariant grid construction     ... off
Angular grids for H and He will be reduced by one unit

Total number of grid points                  ...    28673
Total number of batches                      ...      261
Average number of points per batch           ...      109
Average number of grid points per atom       ...      551
UseSFitting                                  ... on

GRIDX 2
-------
General Integration Accuracy     IntAcc      ... 4.020
Radial Grid Type                 RadialGrid  ... OptM3 with GC (2021)
Angular Grid (max. ang.)         AngularGrid ... 2 (Lebedev-110)
Angular grid pruning method      GridPruning ... 4 (adaptive)
Weight generation scheme         WeightScheme... mBecke (2022)
Basis function cutoff            BFCut       ... 1.0000e-10
Integration weight cutoff        WCut        ... 1.0000e-14
Partially contracted basis set               ... on
Rotationally invariant grid construction     ... off
Angular grids for H and He will be reduced by one unit

Total number of grid points                  ...    56714
Total number of batches                      ...      469
Average number of points per batch           ...      120
Average number of grid points per atom       ...     1091
UseSFitting                                  ... on

GRIDX 3
-------
General Integration Accuracy     IntAcc      ... 4.338
Radial Grid Type                 RadialGrid  ... OptM3 with GC (2021)
Angular Grid (max. ang.)         AngularGrid ... 3 (Lebedev-194)
Angular grid pruning method      GridPruning ... 4 (adaptive)
Weight generation scheme         WeightScheme... mBecke (2022)
Basis function cutoff            BFCut       ... 1.0000e-10
Integration weight cutoff        WCut        ... 1.0000e-14
Partially contracted basis set               ... on
Rotationally invariant grid construction     ... off
Angular grids for H and He will be reduced by one unit

Total number of grid points                  ...   123102
Total number of batches                      ...      990
Average number of points per batch           ...      124
Average number of grid points per atom       ...     2367
UseSFitting                                  ... on
Initializing property integral containers    ... done (  0.0 sec)

SHARK setup successfully completed in   5.5 seconds

Maximum memory used throughout the entire STARTUP-calculation: 91.5 MB


           ************************************************************
           *        Program running with 6 parallel MPI-processes     *
           *              working on a common directory               *
           ************************************************************
-------------------------------------------------------------------------------
                                 ORCA GUESS
                   Start orbitals & Density for SCF / CASSCF
-------------------------------------------------------------------------------

------------
SCF SETTINGS
------------
Hamiltonian:
 Density Functional     Method          .... DFT(GTOs)
 Exchange Functional    Exchange        .... M062X
 Correlation Functional Correlation     .... M062X
 Gradients option       PostSCFGGA      .... off
 Hybrid DFT is turned on
   Fraction HF Exchange ScalHFX         ....  0.540000
   Scaling of DF-GGA-X  ScalDFX         ....  0.460000
   Scaling of DF-GGA-C  ScalDFC         ....  1.000000
   Scaling of DF-LDA-C  ScalLDAC        ....  1.000000
   Perturbative correction              ....  0.000000
 RI-approximation to the Coulomb term is turned on
   Number of AuxJ basis functions       .... 1296
   RIJ-COSX (HFX calculated with COS-X)).... on


General Settings:
 Integral files         IntName         .... data/single_point_P_M06-2x/75806/75806
 Hartree-Fock type      HFTyp           .... RHF
 Total Charge           Charge          ....    0
 Multiplicity           Mult            ....    1
 Number of Electrons    NEL             ....  156
 Basis Dimension        Dim             ....  793
 Nuclear Repulsion      ENuc            ....   1729.7333320679 Eh

Convergence Acceleration:
 AO-DIIS                CNVDIIS         .... on
   Start iteration      DIISMaxIt       ....    12
   Startup error        DIISStart       ....  0.200000
   # of expansion vecs  DIISMaxEq       ....     5
   Bias factor          DIISBfac        ....   1.050
   Max. coefficient     DIISMaxC        ....  10.000
 MO-DIIS                CNVKDIIS        .... off
 Trust-Rad. Augm. Hess. CNVTRAH         .... auto
   Auto Start mean grad. ratio tolernc. ....  1.125000
   Auto Start start iteration           ....    50
   Auto Start num. interpolation iter.  ....    10
   Max. Number of Micro iterations      ....    24
   Max. Number of Macro iterations      .... Maxiter - #DIIS iter
   Number of Davidson start vectors     ....     2
   Converg. threshold    (grad. norm)   ....   5.000e-05
   Grad. Scal. Fac. for Micro threshold ....   0.100
   Minimum threshold for Micro iter.    ....   1.000e-02
   NR start threshold (gradient norm)   ....   1.000e-04
   Initial trust radius                 ....   0.400
   Minimum AH scaling param. (alpha)    ....   1.000
   Maximum AH scaling param. (alpha)    .... 1000.000
   Quad. conv. algorithm                .... NR
   White noise on init. David. guess    .... on
   Maximum white noise                  ....   0.010
   Pseudo random numbers                .... off
   Inactive MOs                         .... canonical
   Orbital update algorithm             .... Taylor
   Preconditioner                       .... Diag
   Full preconditioner red. dimension   ....   250
 SOSCF                  CNVSOSCF        .... on
   Start iteration      SOSCFMaxIt      ....   150
   Startup grad/error   SOSCFStart      ....  0.003300
   Hessian update       SOSCFHessUp     .... L-BFGS
 Level Shifting         CNVShift        .... on
   Level shift para.    LevelShift      ....    0.2500
   Turn off err/grad.   ShiftErr        ....    0.0010
 Zerner damping         CNVZerner       .... off
 Static damping         CNVDamp         .... on
   Fraction old density DampFac         ....    0.7000
   Max. Damping (<1)    DampMax         ....    0.9800
   Min. Damping (>=0)   DampMin         ....    0.0000
   Turn off err/grad.   DampErr         ....    0.1000

SCF Procedure:
 Maximum # iterations   MaxIter         ....   125
 SCF integral mode      SCFMode         .... Direct
   Integral package                     .... SHARK and LIBINT hybrid scheme
 Reset frequency        DirectResetFreq ....    20
 Integral Threshold     Thresh          ....  1.000e-10 Eh
 Primitive CutOff       TCut            ....  1.000e-11 Eh

Convergence Tolerance:
 Convergence Check Mode ConvCheckMode   .... Total+1el-Energy
 Convergence forced     ConvForced      .... 0
 Energy Change          TolE            ....  1.000e-06 Eh
 1-El. energy change                    ....  1.000e-03 Eh
 Orbital Gradient       TolG            ....  5.000e-05
 Orbital Rotation angle TolX            ....  5.000e-05
 DIIS Error             TolErr          ....  1.000e-05

------------------------------
INITIAL GUESS: MODEL POTENTIAL
------------------------------
Loading Hartree-Fock densities                     ... done
Calculating cut-offs                               ... done
Initializing the effective Hamiltonian             ... done
Setting up the integral package (SHARK)            ... done
Starting the Coulomb interaction                   ... done (   0.7 sec)
Making the grid                                    ... done (   0.3 sec)
Mapping shells                                     ... done
Starting the XC term evaluation                    ... done (   0.5 sec)
  promolecular density results
     # of electrons  =    155.981734582
     EX              =   -124.324107588
     EC              =     -5.262666602
     EX+EC           =   -129.586774190
Transforming the Hamiltonian                       ... done (   0.1 sec)
Diagonalizing the Hamiltonian                      ... done (   0.1 sec)
Back transforming the eigenvectors                 ... done (   0.0 sec)
Now organizing SCF variables                       ... done
                      ------------------
                      INITIAL GUESS DONE (   1.9 sec)
                      ------------------
             **** ENERGY FILE WAS UPDATED (data/single_point_P_M06-2x/75806/75806.en.tmp) ****
Finished Guess after   2.1 sec
Maximum memory used throughout the entire GUESS-calculation: 66.8 MB


           ************************************************************
           *        Program running with 6 parallel MPI-processes     *
           *              working on a common directory               *
           ************************************************************

-------------------------------------------------------------------------------------------
                                      ORCA LEAN-SCF
                              memory conserving SCF solver
-------------------------------------------------------------------------------------------

----------------------------------------D-I-I-S--------------------------------------------
Iteration    Energy (Eh)           Delta-E    RMSDP     MaxDP     DIISErr   Damp  Time(sec)
-------------------------------------------------------------------------------------------
               ***  Starting incremental Fock matrix formation  ***
    1    -1046.4457935500763597     0.00e+00  1.06e-03  5.10e-02  1.65e-01  0.700  20.9
    2    -1046.7153764547215360    -2.70e-01  8.50e-04  4.20e-02  9.13e-02  0.700  11.5
                               ***Turning on AO-DIIS***
    3    -1046.8380673141846273    -1.23e-01  5.40e-04  2.89e-02  4.15e-02  0.700  11.1
    4    -1046.9100676746165846    -7.20e-02  1.23e-03  6.40e-02  2.42e-02  0.000  10.5
    5    -1047.0647230355807551    -1.55e-01  1.02e-04  1.19e-02  3.48e-03  0.000  11.5
                              *** Initializing SOSCF ***
---------------------------------------S-O-S-C-F--------------------------------------
Iteration    Energy (Eh)           Delta-E    RMSDP     MaxDP     MaxGrad    Time(sec)
--------------------------------------------------------------------------------------
    6    -1047.0651173120231761    -3.94e-04  4.91e-05  5.66e-03  5.23e-04    10.9
               *** Restarting incremental Fock matrix formation ***
    7    -1047.0651943904040309    -7.71e-05  4.09e-05  3.89e-03  1.83e-04    21.2
    8    -1047.0651987579667548    -4.37e-06  1.52e-05  1.73e-03  8.40e-05    14.4
    9    -1047.0651991803129022    -4.22e-07  8.85e-06  6.29e-04  2.68e-05    12.6
                 **** Energy Check signals convergence ****

               *****************************************************
               *                     SUCCESS                       *
               *           SCF CONVERGED AFTER   9 CYCLES          *
               *****************************************************

Recomputing exchange energy using gridx3       ... done (   29.220 sec)
Old exchange energy                            :    -68.954780580 Eh
New exchange energy                            :    -68.954778067 Eh
Exchange energy change after final integration :      0.000002513 Eh
Total energy after final integration           :  -1047.065196668 Eh
             **** ENERGY FILE WAS UPDATED (data/single_point_P_M06-2x/75806/75806.en.tmp) ****

----------------
TOTAL SCF ENERGY
----------------

Total Energy       :      -1047.06519666752774 Eh          -28492.09251 eV

Components:
Nuclear Repulsion  :       1729.73333206789039 Eh           47068.43688 eV
Electronic Energy  :      -2776.79853124820329 Eh          -75560.52946 eV
One Electron Energy:      -4863.09332736008309 Eh         -132331.49704 eV
Two Electron Energy:       2086.29479611187980 Eh           56770.96758 eV

Virial components:
Potential Energy   :      -2088.63860210776511 Eh          -56834.74579 eV
Kinetic Energy     :       1041.57340544023737 Eh           28342.65327 eV
Virial Ratio       :          2.00527259163743

DFT components:
N(Alpha)           :       78.000099641321 electrons
N(Beta)            :       78.000099641321 electrons
N(Total)           :      156.000199282641 electrons
E(XC)              :      -64.080467089088 Eh       

---------------
SCF CONVERGENCE
---------------

  Last Energy change         ...    4.2235e-07  Tolerance :   1.0000e-06
  Last MAX-Density change    ...    6.2914e-04  Tolerance :   1.0000e-05
  Last RMS-Density change    ...    8.8482e-06  Tolerance :   1.0000e-06
  Last DIIS Error            ...    5.2310e-04  Tolerance :   1.0000e-05
  Last Orbital Gradient      ...    2.6829e-05  Tolerance :   5.0000e-05
  Last Orbital Rotation      ...    4.8249e-05  Tolerance :   5.0000e-05


----------------
ORBITAL ENERGIES
----------------

  NO   OCC          E(Eh)            E(eV) 
   0   2.0000     -78.005395     -2122.6347 
   1   2.0000     -10.537676      -286.7447 
   2   2.0000     -10.537532      -286.7408 
   3   2.0000     -10.537069      -286.7282 
   4   2.0000     -10.533988      -286.6444 
   5   2.0000     -10.533556      -286.6326 
   6   2.0000     -10.532711      -286.6096 
   7   2.0000     -10.532450      -286.6025 
   8   2.0000     -10.532290      -286.5982 
   9   2.0000     -10.532096      -286.5929 
  10   2.0000     -10.531757      -286.5837 
  11   2.0000     -10.531499      -286.5767 
  12   2.0000     -10.531457      -286.5755 
  13   2.0000     -10.531096      -286.5657 
  14   2.0000     -10.530941      -286.5615 
  15   2.0000     -10.530434      -286.5477 
  16   2.0000     -10.530304      -286.5441 
  17   2.0000     -10.530209      -286.5416 
  18   2.0000     -10.529535      -286.5232 
  19   2.0000      -6.821743      -185.6291 
  20   2.0000      -4.936174      -134.3201 
  21   2.0000      -4.935819      -134.3105 
  22   2.0000      -4.935731      -134.3081 
  23   2.0000      -0.934296       -25.4235 
  24   2.0000      -0.925272       -25.1779 
  25   2.0000      -0.922988       -25.1158 
  26   2.0000      -0.850943       -23.1553 
  27   2.0000      -0.832358       -22.6496 
  28   2.0000      -0.831646       -22.6303 
  29   2.0000      -0.826197       -22.4820 
  30   2.0000      -0.824946       -22.4479 
  31   2.0000      -0.820702       -22.3324 
  32   2.0000      -0.720513       -19.6062 
  33   2.0000      -0.696239       -18.9456 
  34   2.0000      -0.689836       -18.7714 
  35   2.0000      -0.687185       -18.6992 
  36   2.0000      -0.680461       -18.5163 
  37   2.0000      -0.676518       -18.4090 
  38   2.0000      -0.631622       -17.1873 
  39   2.0000      -0.626144       -17.0382 
  40   2.0000      -0.611316       -16.6347 
  41   2.0000      -0.587499       -15.9867 
  42   2.0000      -0.553417       -15.0593 
  43   2.0000      -0.541837       -14.7441 
  44   2.0000      -0.536332       -14.5943 
  45   2.0000      -0.525062       -14.2877 
  46   2.0000      -0.504536       -13.7291 
  47   2.0000      -0.503242       -13.6939 
  48   2.0000      -0.500676       -13.6241 
  49   2.0000      -0.498619       -13.5681 
  50   2.0000      -0.497219       -13.5300 
  51   2.0000      -0.492641       -13.4054 
  52   2.0000      -0.476864       -12.9761 
  53   2.0000      -0.458668       -12.4810 
  54   2.0000      -0.445124       -12.1125 
  55   2.0000      -0.440674       -11.9913 
  56   2.0000      -0.438253       -11.9255 
  57   2.0000      -0.436777       -11.8853 
  58   2.0000      -0.431865       -11.7516 
  59   2.0000      -0.429454       -11.6860 
  60   2.0000      -0.420754       -11.4493 
  61   2.0000      -0.411643       -11.2014 
  62   2.0000      -0.411188       -11.1890 
  63   2.0000      -0.405412       -11.0318 
  64   2.0000      -0.401151       -10.9159 
  65   2.0000      -0.397722       -10.8226 
  66   2.0000      -0.395859       -10.7719 
  67   2.0000      -0.392482       -10.6800 
  68   2.0000      -0.378967       -10.3122 
  69   2.0000      -0.373489       -10.1632 
  70   2.0000      -0.365353        -9.9418 
  71   2.0000      -0.358752        -9.7621 
  72   2.0000      -0.358021        -9.7423 
  73   2.0000      -0.352727        -9.5982 
  74   2.0000      -0.351239        -9.5577 
  75   2.0000      -0.317888        -8.6502 
  76   2.0000      -0.316969        -8.6252 
  77   2.0000      -0.261649        -7.1198 
  78   0.0000       0.048882         1.3302 
  79   0.0000       0.054821         1.4918 
  80   0.0000       0.060497         1.6462 
  81   0.0000       0.073715         2.0059 
  82   0.0000       0.077185         2.1003 
  83   0.0000       0.079864         2.1732 
  84   0.0000       0.085021         2.3135 
  85   0.0000       0.089120         2.4251 
  86   0.0000       0.093215         2.5365 
  87   0.0000       0.099173         2.6986 
  88   0.0000       0.107207         2.9172 
*Only the first 10 virtual orbitals were printed.

                    ********************************
                    * MULLIKEN POPULATION ANALYSIS *
                    ********************************

-----------------------
MULLIKEN ATOMIC CHARGES
-----------------------
   0 C :   -0.273740
   1 C :   -0.271789
   2 C :   -0.357051
   3 C :   -0.182633
   4 C :   -0.372570
   5 C :   -0.265504
   6 P :    0.198140
   7 C :   -0.219752
   8 C :   -0.321893
   9 C :   -0.252499
  10 C :   -0.280615
  11 C :   -0.263564
  12 C :   -0.410157
  13 C :   -0.211199
  14 C :   -0.342532
  15 C :   -0.269072
  16 C :   -0.269504
  17 C :   -0.274939
  18 C :   -0.369607
  19 H :    0.141721
  20 H :    0.143418
  21 H :    0.142528
  22 H :    0.141154
  23 H :    0.171440
  24 H :    0.151099
  25 H :    0.169020
  26 H :    0.153002
  27 H :    0.173395
  28 H :    0.141769
  29 H :    0.141735
  30 H :    0.156052
  31 H :    0.154695
  32 H :    0.158974
  33 H :    0.145012
  34 H :    0.142938
  35 H :    0.144266
  36 H :    0.142616
  37 H :    0.141666
  38 H :    0.139450
  39 H :    0.174431
  40 H :    0.170671
  41 H :    0.172908
  42 H :    0.154869
  43 H :    0.159822
  44 H :    0.141148
  45 H :    0.143806
  46 H :    0.142542
  47 H :    0.138729
  48 H :    0.141985
  49 H :    0.145314
  50 H :    0.158028
  51 H :    0.170271
Sum of atomic charges:   -0.0000000

--------------------------------
MULLIKEN REDUCED ORBITAL CHARGES
--------------------------------
  0 C s       :     3.273542  s :     3.273542
      pz      :     1.069835  p :     2.907556
      px      :     0.935834
      py      :     0.901887
      dz2     :     0.010793  d :     0.087624
      dxz     :     0.020098
      dyz     :     0.015463
      dx2y2   :     0.017986
      dxy     :     0.023285
      f0      :     0.000666  f :     0.005018
      f+1     :     0.000580
      f-1     :     0.000442
      f+2     :     0.000756
      f-2     :     0.000455
      f+3     :     0.001370
      f-3     :     0.000749

  1 C s       :     3.282278  s :     3.282278
      pz      :     0.978816  p :     2.897430
      px      :     0.887049
      py      :     1.031565
      dz2     :     0.024816  d :     0.087085
      dxz     :     0.019372
      dyz     :     0.003215
      dx2y2   :     0.027369
      dxy     :     0.012314
      f0      :     0.000708  f :     0.004996
      f+1     :     0.000873
      f-1     :     0.000428
      f+2     :     0.000626
      f-2     :     0.000588
      f+3     :     0.000942
      f-3     :     0.000831

  2 C s       :     3.319896  s :     3.319896
      pz      :     1.030710  p :     2.942928
      px      :     1.036917
      py      :     0.875302
      dz2     :     0.025403  d :     0.089144
      dxz     :     0.006956
      dyz     :     0.017994
      dx2y2   :     0.017441
      dxy     :     0.021350
      f0      :     0.000808  f :     0.005083
      f+1     :     0.000707
      f-1     :     0.000510
      f+2     :     0.000911
      f-2     :     0.000374
      f+3     :     0.001015
      f-3     :     0.000759

  3 C s       :     3.176635  s :     3.176635
      pz      :     1.019004  p :     2.903905
      px      :     0.962434
      py      :     0.922467
      dz2     :     0.019850  d :     0.096854
      dxz     :     0.017947
      dyz     :     0.015688
      dx2y2   :     0.019500
      dxy     :     0.023868
      f0      :     0.000818  f :     0.005239
      f+1     :     0.000619
      f-1     :     0.000425
      f+2     :     0.000792
      f-2     :     0.000387
      f+3     :     0.001456
      f-3     :     0.000741

  4 C s       :     3.327419  s :     3.327419
      pz      :     1.032226  p :     2.951421
      px      :     0.883361
      py      :     1.035834
      dz2     :     0.026670  d :     0.088666
      dxz     :     0.019618
      dyz     :     0.004284
      dx2y2   :     0.026391
      dxy     :     0.011703
      f0      :     0.000774  f :     0.005064
      f+1     :     0.000844
      f-1     :     0.000420
      f+2     :     0.000653
      f-2     :     0.000616
      f+3     :     0.000952
      f-3     :     0.000805

  5 C s       :     3.280359  s :     3.280359
      pz      :     0.983860  p :     2.893521
      px      :     1.003539
      py      :     0.906123
      dz2     :     0.023967  d :     0.086628
      dxz     :     0.006085
      dyz     :     0.017535
      dx2y2   :     0.017032
      dxy     :     0.022009
      f0      :     0.000745  f :     0.004996
      f+1     :     0.000731
      f-1     :     0.000530
      f+2     :     0.000873
      f-2     :     0.000349
      f+3     :     0.000988
      f-3     :     0.000780

  6 P s       :     5.703112  s :     5.703112
      pz      :     3.329573  p :     8.851009
      px      :     2.792646
      py      :     2.728790
      dz2     :     0.030552  d :     0.222966
      dxz     :     0.042594
      dyz     :     0.039166
      dx2y2   :     0.057861
      dxy     :     0.052792
      f0      :     0.002980  f :     0.024773
      f+1     :     0.002939
      f-1     :     0.002895
      f+2     :     0.004239
      f-2     :     0.003733
      f+3     :     0.004694
      f-3     :     0.003292

  7 C s       :     3.192665  s :     3.192665
      pz      :     0.898336  p :     2.927906
      px      :     1.056616
      py      :     0.972954
      dz2     :     0.021369  d :     0.094002
      dxz     :     0.017097
      dyz     :     0.024522
      dx2y2   :     0.021709
      dxy     :     0.009305
      f0      :     0.000818  f :     0.005180
      f+1     :     0.000881
      f-1     :     0.001345
      f+2     :     0.000704
      f-2     :     0.000364
      f+3     :     0.000638
      f-3     :     0.000431

  8 C s       :     3.314884  s :     3.314884
      pz      :     0.979538  p :     2.920364
      px      :     1.034288
      py      :     0.906538
      dz2     :     0.018867  d :     0.081742
      dxz     :     0.014617
      dyz     :     0.014278
      dx2y2   :     0.019972
      dxy     :     0.014008
      f0      :     0.000362  f :     0.004902
      f+1     :     0.000647
      f-1     :     0.000893
      f+2     :     0.000765
      f-2     :     0.000720
      f+3     :     0.000566
      f-3     :     0.000950

  9 C s       :     3.269028  s :     3.269028
      pz      :     1.006366  p :     2.893567
      px      :     0.948761
      py      :     0.938440
      dz2     :     0.011468  d :     0.084906
      dxz     :     0.018445
      dyz     :     0.020064
      dx2y2   :     0.020387
      dxy     :     0.014541
      f0      :     0.000348  f :     0.004998
      f+1     :     0.000709
      f-1     :     0.000776
      f+2     :     0.001168
      f-2     :     0.000676
      f+3     :     0.000850
      f-3     :     0.000472

 10 C s       :     3.271056  s :     3.271056
      pz      :     0.955456  p :     2.920179
      px      :     0.963794
      py      :     1.000929
      dz2     :     0.015416  d :     0.084421
      dxz     :     0.021344
      dyz     :     0.016277
      dx2y2   :     0.022060
      dxy     :     0.009324
      f0      :     0.000708  f :     0.004959
      f+1     :     0.000735
      f-1     :     0.000496
      f+2     :     0.001163
      f-2     :     0.000825
      f+3     :     0.000441
      f-3     :     0.000591

 11 C s       :     3.294156  s :     3.294156
      pz      :     0.965996  p :     2.884393
      px      :     1.036410
      py      :     0.881987
      dz2     :     0.017038  d :     0.080172
      dxz     :     0.013395
      dyz     :     0.017081
      dx2y2   :     0.022087
      dxy     :     0.010569
      f0      :     0.000447  f :     0.004843
      f+1     :     0.000591
      f-1     :     0.001014
      f+2     :     0.000620
      f-2     :     0.000742
      f+3     :     0.000664
      f-3     :     0.000764

 12 C s       :     3.349399  s :     3.349399
      pz      :     0.881554  p :     2.968303
      px      :     1.077249
      py      :     1.009501
      dz2     :     0.014447  d :     0.087407
      dxz     :     0.014595
      dyz     :     0.028202
      dx2y2   :     0.020675
      dxy     :     0.009488
      f0      :     0.000960  f :     0.005047
      f+1     :     0.000847
      f-1     :     0.000962
      f+2     :     0.000536
      f-2     :     0.000462
      f+3     :     0.000724
      f-3     :     0.000557

 13 C s       :     3.192670  s :     3.192670
      pz      :     0.894204  p :     2.916031
      px      :     0.963777
      py      :     1.058050
      dz2     :     0.026188  d :     0.097279
      dxz     :     0.023347
      dyz     :     0.015814
      dx2y2   :     0.017445
      dxy     :     0.014485
      f0      :     0.001021  f :     0.005218
      f+1     :     0.001187
      f-1     :     0.000762
      f+2     :     0.000610
      f-2     :     0.000650
      f+3     :     0.000509
      f-3     :     0.000479

 14 C s       :     3.321242  s :     3.321242
      pz      :     1.023411  p :     2.927574
      px      :     0.917032
      py      :     0.987132
      dz2     :     0.023866  d :     0.088615
      dxz     :     0.019133
      dyz     :     0.004928
      dx2y2   :     0.026273
      dxy     :     0.014415
      f0      :     0.000716  f :     0.005101
      f+1     :     0.000989
      f-1     :     0.000349
      f+2     :     0.000482
      f-2     :     0.000771
      f+3     :     0.001080
      f-3     :     0.000713

 15 C s       :     3.277582  s :     3.277582
      pz      :     0.935238  p :     2.899629
      px      :     0.955730
      py      :     1.008660
      dz2     :     0.014482  d :     0.086872
      dxz     :     0.027188
      dyz     :     0.014868
      dx2y2   :     0.020427
      dxy     :     0.009907
      f0      :     0.001034  f :     0.004989
      f+1     :     0.000784
      f-1     :     0.000721
      f+2     :     0.000416
      f-2     :     0.000673
      f+3     :     0.000759
      f-3     :     0.000602

 16 C s       :     3.269857  s :     3.269857
      pz      :     0.890663  p :     2.907266
      px      :     0.964385
      py      :     1.052218
      dz2     :     0.026116  d :     0.087380
      dxz     :     0.016896
      dyz     :     0.014634
      dx2y2   :     0.012579
      dxy     :     0.017156
      f0      :     0.000929  f :     0.005001
      f+1     :     0.001142
      f-1     :     0.000780
      f+2     :     0.000604
      f-2     :     0.000599
      f+3     :     0.000413
      f-3     :     0.000536

 17 C s       :     3.290864  s :     3.290864
      pz      :     1.021698  p :     2.892192
      px      :     0.893448
      py      :     0.977046
      dz2     :     0.024123  d :     0.086895
      dxz     :     0.018103
      dyz     :     0.004299
      dx2y2   :     0.025644
      dxy     :     0.014726
      f0      :     0.000737  f :     0.004988
      f+1     :     0.000973
      f-1     :     0.000341
      f+2     :     0.000474
      f-2     :     0.000755
      f+3     :     0.001016
      f-3     :     0.000692

 18 C s       :     3.294224  s :     3.294224
      pz      :     0.908608  p :     2.979834
      px      :     1.027311
      py      :     1.043915
      dz2     :     0.014143  d :     0.090468
      dxz     :     0.028979
      dyz     :     0.014507
      dx2y2   :     0.021404
      dxy     :     0.011436
      f0      :     0.001017  f :     0.005080
      f+1     :     0.000811
      f-1     :     0.000760
      f+2     :     0.000428
      f-2     :     0.000698
      f+3     :     0.000793
      f-3     :     0.000575

 19 H s       :     0.839732  s :     0.839732
      pz      :     0.006582  p :     0.018547
      px      :     0.007226
      py      :     0.004740

 20 H s       :     0.838341  s :     0.838341
      pz      :     0.009891  p :     0.018240
      px      :     0.004461
      py      :     0.003888

 21 H s       :     0.838905  s :     0.838905
      pz      :     0.003417  p :     0.018567
      px      :     0.003478
      py      :     0.011672

 22 H s       :     0.840603  s :     0.840603
      pz      :     0.010647  p :     0.018242
      px      :     0.004109
      py      :     0.003487

 23 H s       :     0.810297  s :     0.810297
      pz      :     0.010808  p :     0.018263
      px      :     0.003603
      py      :     0.003851

 24 H s       :     0.830000  s :     0.830000
      pz      :     0.003601  p :     0.018901
      px      :     0.010532
      py      :     0.004767

 25 H s       :     0.810923  s :     0.810923
      pz      :     0.011056  p :     0.020057
      px      :     0.004860
      py      :     0.004141

 26 H s       :     0.828037  s :     0.828037
      pz      :     0.003484  p :     0.018960
      px      :     0.003483
      py      :     0.011994

 27 H s       :     0.808178  s :     0.808178
      pz      :     0.010991  p :     0.018428
      px      :     0.003977
      py      :     0.003459

 28 H s       :     0.840009  s :     0.840009
      pz      :     0.010550  p :     0.018222
      px      :     0.003764
      py      :     0.003908

 29 H s       :     0.839683  s :     0.839683
      pz      :     0.003511  p :     0.018582
      px      :     0.010149
      py      :     0.004923

 30 H s       :     0.824006  s :     0.824006
      pz      :     0.003840  p :     0.019942
      px      :     0.011720
      py      :     0.004382

 31 H s       :     0.826742  s :     0.826742
      pz      :     0.010102  p :     0.018563
      px      :     0.005013
      py      :     0.003448

 32 H s       :     0.822126  s :     0.822126
      pz      :     0.004064  p :     0.018900
      px      :     0.010079
      py      :     0.004756

 33 H s       :     0.836307  s :     0.836307
      pz      :     0.007006  p :     0.018680
      px      :     0.003743
      py      :     0.007932

 34 H s       :     0.838748  s :     0.838748
      pz      :     0.005850  p :     0.018313
      px      :     0.009089
      py      :     0.003374

 35 H s       :     0.837082  s :     0.837082
      pz      :     0.004510  p :     0.018651
      px      :     0.003506
      py      :     0.010635

 36 H s       :     0.839096  s :     0.839096
      pz      :     0.005886  p :     0.018288
      px      :     0.009031
      py      :     0.003372

 37 H s       :     0.839807  s :     0.839807
      pz      :     0.009254  p :     0.018527
      px      :     0.004810
      py      :     0.004463

 38 H s       :     0.842073  s :     0.842073
      pz      :     0.004040  p :     0.018477
      px      :     0.010879
      py      :     0.003558

 39 H s       :     0.806093  s :     0.806093
      pz      :     0.006273  p :     0.019477
      px      :     0.004723
      py      :     0.008481

 40 H s       :     0.810802  s :     0.810802
      pz      :     0.003740  p :     0.018527
      px      :     0.011463
      py      :     0.003324

 41 H s       :     0.807250  s :     0.807250
      pz      :     0.003748  p :     0.019842
      px      :     0.004462
      py      :     0.011633

 42 H s       :     0.826631  s :     0.826631
      pz      :     0.003520  p :     0.018500
      px      :     0.003658
      py      :     0.011322

 43 H s       :     0.821323  s :     0.821323
      pz      :     0.010994  p :     0.018855
      px      :     0.004541
      py      :     0.003320

 44 H s       :     0.840271  s :     0.840271
      pz      :     0.006954  p :     0.018581
      px      :     0.007594
      py      :     0.004033

 45 H s       :     0.837961  s :     0.837961
      pz      :     0.003959  p :     0.018233
      px      :     0.003533
      py      :     0.010741

 46 H s       :     0.838907  s :     0.838907
      pz      :     0.003620  p :     0.018551
      px      :     0.009222
      py      :     0.005709

 47 H s       :     0.843086  s :     0.843086
      pz      :     0.003732  p :     0.018185
      px      :     0.004151
      py      :     0.010302

 48 H s       :     0.839427  s :     0.839427
      pz      :     0.010839  p :     0.018588
      px      :     0.004385
      py      :     0.003364

 49 H s       :     0.836429  s :     0.836429
      pz      :     0.003451  p :     0.018257
      px      :     0.003709
      py      :     0.011097

 50 H s       :     0.823312  s :     0.823312
      pz      :     0.003833  p :     0.018660
      px      :     0.003529
      py      :     0.011297

 51 H s       :     0.811079  s :     0.811079
      pz      :     0.006844  p :     0.018650
      px      :     0.007905
      py      :     0.003901



                     *******************************
                     * LOEWDIN POPULATION ANALYSIS *
                     *******************************

----------------------
LOEWDIN ATOMIC CHARGES
----------------------
   0 C :   -0.272861
   1 C :   -0.270699
   2 C :   -0.273579
   3 C :   -0.384451
   4 C :   -0.277943
   5 C :   -0.270540
   6 P :    0.647132
   7 C :   -0.380442
   8 C :   -0.277025
   9 C :   -0.270207
  10 C :   -0.271629
  11 C :   -0.265329
  12 C :   -0.276720
  13 C :   -0.393489
  14 C :   -0.276365
  15 C :   -0.271464
  16 C :   -0.273390
  17 C :   -0.269182
  18 C :   -0.274276
  19 H :    0.136648
  20 H :    0.140175
  21 H :    0.137347
  22 H :    0.139477
  23 H :    0.143734
  24 H :    0.137882
  25 H :    0.144149
  26 H :    0.135366
  27 H :    0.143391
  28 H :    0.139254
  29 H :    0.137466
  30 H :    0.151655
  31 H :    0.139481
  32 H :    0.135812
  33 H :    0.136821
  34 H :    0.138031
  35 H :    0.135491
  36 H :    0.138035
  37 H :    0.136813
  38 H :    0.136164
  39 H :    0.135381
  40 H :    0.139764
  41 H :    0.153889
  42 H :    0.137647
  43 H :    0.140983
  44 H :    0.137269
  45 H :    0.139819
  46 H :    0.136951
  47 H :    0.139118
  48 H :    0.137009
  49 H :    0.139602
  50 H :    0.143532
  51 H :    0.138301

-------------------------------
LOEWDIN REDUCED ORBITAL CHARGES
-------------------------------
  0 C s       :     2.785835  s :     2.785835
      pz      :     1.027644  p :     3.057127
      px      :     1.011853
      py      :     1.017630
      dz2     :     0.055326  d :     0.392403
      dxz     :     0.081898
      dyz     :     0.065292
      dx2y2   :     0.090395
      dxy     :     0.099491
      f0      :     0.004583  f :     0.037497
      f+1     :     0.003299
      f-1     :     0.003511
      f+2     :     0.005615
      f-2     :     0.004748
      f+3     :     0.010009
      f-3     :     0.005733

  1 C s       :     2.785886  s :     2.785886
      pz      :     1.022465  p :     3.054237
      px      :     1.019853
      py      :     1.011919
      dz2     :     0.101635  d :     0.393249
      dxz     :     0.088487
      dyz     :     0.022786
      dx2y2   :     0.116245
      dxy     :     0.064096
      f0      :     0.004310  f :     0.037327
      f+1     :     0.005895
      f-1     :     0.003617
      f+2     :     0.005070
      f-2     :     0.006259
      f+3     :     0.006286
      f-3     :     0.005890

  2 C s       :     2.784518  s :     2.784518
      pz      :     1.032122  p :     3.053779
      px      :     1.015345
      py      :     1.006313
      dz2     :     0.099725  d :     0.397846
      dxz     :     0.040462
      dyz     :     0.075869
      dx2y2   :     0.085873
      dxy     :     0.095917
      f0      :     0.004639  f :     0.037435
      f+1     :     0.004697
      f-1     :     0.004440
      f+2     :     0.007118
      f-2     :     0.004171
      f+3     :     0.006807
      f-3     :     0.005563

  3 C s       :     2.790860  s :     2.790860
      pz      :     1.048693  p :     3.092113
      px      :     1.023227
      py      :     1.020193
      dz2     :     0.094951  d :     0.460617
      dxz     :     0.090451
      dyz     :     0.072108
      dx2y2   :     0.099959
      dxy     :     0.103147
      f0      :     0.005667  f :     0.040860
      f+1     :     0.004552
      f-1     :     0.003954
      f+2     :     0.005903
      f-2     :     0.004188
      f+3     :     0.010555
      f-3     :     0.006042

  4 C s       :     2.785132  s :     2.785132
      pz      :     1.034368  p :     3.056521
      px      :     1.011607
      py      :     1.010547
      dz2     :     0.102966  d :     0.398897
      dxz     :     0.089947
      dyz     :     0.023542
      dx2y2   :     0.118975
      dxy     :     0.063467
      f0      :     0.004430  f :     0.037392
      f+1     :     0.005921
      f-1     :     0.003617
      f+2     :     0.005072
      f-2     :     0.006149
      f+3     :     0.006294
      f-3     :     0.005908

  5 C s       :     2.785590  s :     2.785590
      pz      :     1.023546  p :     3.054300
      px      :     1.013423
      py      :     1.017331
      dz2     :     0.099228  d :     0.393224
      dxz     :     0.040442
      dyz     :     0.074124
      dx2y2   :     0.085780
      dxy     :     0.093650
      f0      :     0.004518  f :     0.037427
      f+1     :     0.004877
      f-1     :     0.004386
      f+2     :     0.007212
      f-2     :     0.004152
[...]
      px      :     0.025066
      py      :     0.011858

 37 H s       :     0.807426  s :     0.807426
      pz      :     0.025431  p :     0.055761
      px      :     0.016339
      py      :     0.013990

 38 H s       :     0.808209  s :     0.808209
      pz      :     0.012783  p :     0.055626
      px      :     0.030806
      py      :     0.012037

 39 H s       :     0.806887  s :     0.806887
      pz      :     0.018357  p :     0.057732
      px      :     0.016151
      py      :     0.023224

 40 H s       :     0.803815  s :     0.803815
      pz      :     0.012406  p :     0.056420
      px      :     0.031964
      py      :     0.012050

 41 H s       :     0.788607  s :     0.788607
      pz      :     0.012632  p :     0.057504
      px      :     0.013966
      py      :     0.030906

 42 H s       :     0.806528  s :     0.806528
      pz      :     0.012336  p :     0.055825
      px      :     0.012701
      py      :     0.030787

 43 H s       :     0.802766  s :     0.802766
      pz      :     0.030262  p :     0.056250
      px      :     0.014033
      py      :     0.011955

 44 H s       :     0.807215  s :     0.807215
      pz      :     0.019605  p :     0.055516
      px      :     0.021809
      py      :     0.014102

 45 H s       :     0.805182  s :     0.805182
      pz      :     0.012630  p :     0.054999
      px      :     0.012316
      py      :     0.030053

 46 H s       :     0.807562  s :     0.807562
      pz      :     0.011818  p :     0.055486
      px      :     0.025006
      py      :     0.018662

 47 H s       :     0.805920  s :     0.805920
      pz      :     0.012468  p :     0.054962
      px      :     0.012835
      py      :     0.029659

 48 H s       :     0.807457  s :     0.807457
      pz      :     0.029666  p :     0.055534
      px      :     0.013931
      py      :     0.011937

 49 H s       :     0.805361  s :     0.805361
      pz      :     0.012201  p :     0.055037
      px      :     0.012544
      py      :     0.030291

 50 H s       :     0.800565  s :     0.800565
      pz      :     0.012583  p :     0.055903
      px      :     0.012629
      py      :     0.030691

 51 H s       :     0.805520  s :     0.805520
      pz      :     0.019855  p :     0.056179
      px      :     0.022304
      py      :     0.014020



                      *****************************
                      * MAYER POPULATION ANALYSIS *
                      *****************************

  NA   - Mulliken gross atomic population
  ZA   - Total nuclear charge
  QA   - Mulliken gross atomic charge
  VA   - Mayer's total valence
  BVA  - Mayer's bonded valence
  FA   - Mayer's free valence

  ATOM       NA         ZA         QA         VA         BVA        FA
  0 C      6.2737     6.0000    -0.2737     3.7564     3.7564     0.0000
  1 C      6.2718     6.0000    -0.2718     3.7753     3.7753     0.0000
  2 C      6.3571     6.0000    -0.3571     3.7474     3.7474     0.0000
  3 C      6.1826     6.0000    -0.1826     3.5565     3.5565    -0.0000
  4 C      6.3726     6.0000    -0.3726     3.7765     3.7765    -0.0000
  5 C      6.2655     6.0000    -0.2655     3.7705     3.7705    -0.0000
  6 P     14.8019    15.0000     0.1981     3.0134     3.0134    -0.0000
  7 C      6.2198     6.0000    -0.2198     3.5594     3.5594    -0.0000
  8 C      6.3219     6.0000    -0.3219     3.7247     3.7247    -0.0000
  9 C      6.2525     6.0000    -0.2525     3.7094     3.7094    -0.0000
 10 C      6.2806     6.0000    -0.2806     3.7367     3.7367     0.0000
 11 C      6.2636     6.0000    -0.2636     3.7447     3.7447    -0.0000
 12 C      6.4102     6.0000    -0.4102     3.7278     3.7278    -0.0000
 13 C      6.2112     6.0000    -0.2112     3.5951     3.5951    -0.0000
 14 C      6.3425     6.0000    -0.3425     3.7844     3.7844     0.0000
 15 C      6.2691     6.0000    -0.2691     3.7604     3.7604    -0.0000
 16 C      6.2695     6.0000    -0.2695     3.7428     3.7428     0.0000
 17 C      6.2749     6.0000    -0.2749     3.7924     3.7924    -0.0000
 18 C      6.3696     6.0000    -0.3696     3.7067     3.7067    -0.0000
 19 H      0.8583     1.0000     0.1417     0.9564     0.9564    -0.0000
 20 H      0.8566     1.0000     0.1434     0.9570     0.9570    -0.0000
 21 H      0.8575     1.0000     0.1425     0.9563     0.9563    -0.0000
 22 H      0.8588     1.0000     0.1412     0.9574     0.9574     0.0000
 23 H      0.8286     1.0000     0.1714     0.9575     0.9575     0.0000
 24 H      0.8489     1.0000     0.1511     0.9535     0.9535     0.0000
 25 H      0.8310     1.0000     0.1690     0.9319     0.9319     0.0000
 26 H      0.8470     1.0000     0.1530     0.9466     0.9466     0.0000
 27 H      0.8266     1.0000     0.1734     0.9599     0.9599    -0.0000
 28 H      0.8582     1.0000     0.1418     0.9585     0.9585     0.0000
 29 H      0.8583     1.0000     0.1417     0.9565     0.9565    -0.0000
 30 H      0.8439     1.0000     0.1561     0.9493     0.9493    -0.0000
 31 H      0.8453     1.0000     0.1547     0.9623     0.9623    -0.0000
 32 H      0.8410     1.0000     0.1590     0.9540     0.9540     0.0000
 33 H      0.8550     1.0000     0.1450     0.9596     0.9596    -0.0000
 34 H      0.8571     1.0000     0.1429     0.9578     0.9578     0.0000
 35 H      0.8557     1.0000     0.1443     0.9589     0.9589     0.0000
 36 H      0.8574     1.0000     0.1426     0.9561     0.9561     0.0000
 37 H      0.8583     1.0000     0.1417     0.9576     0.9576     0.0000
 38 H      0.8605     1.0000     0.1395     0.9596     0.9596     0.0000
 39 H      0.8256     1.0000     0.1744     0.9437     0.9437     0.0000
 40 H      0.8293     1.0000     0.1707     0.9458     0.9458     0.0000
 41 H      0.8271     1.0000     0.1729     0.9346     0.9346    -0.0000
 42 H      0.8451     1.0000     0.1549     0.9531     0.9531     0.0000
 43 H      0.8402     1.0000     0.1598     0.9684     0.9684     0.0000
 44 H      0.8589     1.0000     0.1411     0.9574     0.9574    -0.0000
 45 H      0.8562     1.0000     0.1438     0.9569     0.9569    -0.0000
 46 H      0.8575     1.0000     0.1425     0.9567     0.9567     0.0000
 47 H      0.8613     1.0000     0.1387     0.9581     0.9581     0.0000
 48 H      0.8580     1.0000     0.1420     0.9565     0.9565    -0.0000
 49 H      0.8547     1.0000     0.1453     0.9578     0.9578    -0.0000
 50 H      0.8420     1.0000     0.1580     0.9481     0.9481    -0.0000
 51 H      0.8297     1.0000     0.1703     0.9466     0.9466    -0.0000

  Mayer bond orders larger than 0.100000
B(  0-C ,  1-C ) :   0.9234 B(  0-C ,  5-C ) :   0.9251 B(  0-C , 19-H ) :   0.9828 
B(  0-C , 20-H ) :   0.9805 B(  1-C ,  2-C ) :   0.9208 B(  1-C , 21-H ) :   0.9855 
B(  1-C , 22-H ) :   0.9807 B(  2-C ,  3-C ) :   0.8765 B(  2-C , 23-H ) :   0.9756 
B(  2-C , 24-H ) :   0.9873 B(  3-C ,  4-C ) :   0.8860 B(  3-C ,  6-P ) :   0.9688 
B(  3-C , 25-H ) :   0.9450 B(  4-C ,  5-C ) :   0.9202 B(  4-C , 26-H ) :   0.9898 
B(  4-C , 27-H ) :   0.9768 B(  5-C , 28-H ) :   0.9809 B(  5-C , 29-H ) :   0.9847 
B(  6-P ,  7-C ) :   0.9560 B(  6-P , 13-C ) :   0.9576 B(  7-C ,  8-C ) :   0.8890 
B(  7-C , 12-C ) :   0.8389 B(  7-C , 30-H ) :   0.9547 B(  8-C ,  9-C ) :   0.9118 
B(  8-C , 31-H ) :   0.9819 B(  8-C , 32-H ) :   0.9807 B(  9-C , 10-C ) :   0.9058 
B(  9-C , 33-H ) :   0.9943 B(  9-C , 34-H ) :   0.9811 B( 10-C , 11-C ) :   0.9231 
B( 10-C , 35-H ) :   0.9900 B( 10-C , 36-H ) :   0.9783 B( 11-C , 12-C ) :   0.9173 
B( 11-C , 37-H ) :   0.9872 B( 11-C , 38-H ) :   0.9843 B( 12-C , 39-H ) :   0.9896 
B( 12-C , 40-H ) :   0.9810 B( 13-C , 14-C ) :   0.9114 B( 13-C , 18-C ) :   0.8396 
B( 13-C , 41-H ) :   0.9507 B( 14-C , 15-C ) :   0.9182 B( 14-C , 42-H ) :   0.9837 
B( 14-C , 43-H ) :   0.9813 B( 15-C , 16-C ) :   0.9186 B( 15-C , 44-H ) :   0.9843 
B( 15-C , 45-H ) :   0.9811 B( 16-C , 17-C ) :   0.9221 B( 16-C , 46-H ) :   0.9823 
B( 16-C , 47-H ) :   0.9792 B( 17-C , 18-C ) :   0.9302 B( 17-C , 48-H ) :   0.9846 
B( 17-C , 49-H ) :   0.9859 B( 18-C , 50-H ) :   0.9695 B( 18-C , 51-H ) :   0.9840 


-------
TIMINGS
-------

Total SCF time: 0 days 0 hours 2 min 34 sec 

Total time                  ....     154.759 sec
Sum of individual times     ....     154.835 sec  (100.0%)

SCF preparation             ....       0.414 sec  (  0.3%)
Fock matrix formation       ....     149.910 sec  ( 96.9%)
  Startup                   ....       0.150 sec  (  0.1% of F)
  Split-RI-J                ....      10.839 sec  (  7.2% of F)
  Chain of spheres X        ....     107.469 sec  ( 71.7% of F)
  XC integration            ....      31.072 sec  ( 20.7% of F)
    Basis function eval.    ....       4.277 sec  ( 13.8% of XC)
    Density eval.           ....      13.366 sec  ( 43.0% of XC)
    XC-Functional eval.     ....       0.477 sec  (  1.5% of XC)
    XC-Potential eval.      ....      11.837 sec  ( 38.1% of XC)
Diagonalization             ....       0.000 sec  (  0.0%)
Density matrix formation    ....       0.389 sec  (  0.3%)
Total Energy calculation    ....       0.126 sec  (  0.1%)
Population analysis         ....       0.233 sec  (  0.2%)
Orbital Transformation      ....       0.573 sec  (  0.4%)
Orbital Orthonormalization  ....       0.000 sec  (  0.0%)
DIIS solution               ....       2.371 sec  (  1.5%)
SOSCF solution              ....       0.819 sec  (  0.5%)
Finished LeanSCF after 154.8 sec

Maximum memory used throughout the entire LEANSCF-calculation: 132.8 MB


-------------------------------------------------------------------------------
                          DFT DISPERSION CORRECTION                            
                                                                               
                              DFTD3 V3.1  Rev 1                                
                              USING zero damping                               
-------------------------------------------------------------------------------
The M062X functional is recognized
Active option DFTDOPT                   ...         3   

molecular C6(AA) [au] = 21548.311085 


            DFT-D V3
 parameters
 s6 scaling factor         :     1.0000 
 rs6 scaling factor        :     1.6190 
 s8 scaling factor         :     0.0000 
 rs8 scaling factor        :     1.0000 
 Damping factor alpha6     :    14.0000 
 Damping factor alpha8     :    16.0000 
 ad hoc parameters k1-k3   :    16.0000     1.3333    -4.0000 

 Edisp/kcal,au: -2.384612028037  -0.003800120751 
 E6   /kcal   :  -2.384612028 
 E8   /kcal   :  -0.000000000 
 % E8         :   0.000000000 

-------------------------   ----------------
Dispersion correction           -0.003800121
-------------------------   ----------------


-------------------------   --------------------
FINAL SINGLE POINT ENERGY     -1047.068996788279
-------------------------   --------------------



           ************************************************************
           *        Program running with 6 parallel MPI-processes     *
           *              working on a common directory               *
           ************************************************************

------------------------------------------------------------------------------
                              ORCA PROPERTY CALCULATIONS
------------------------------------------------------------------------------

GBWName                                 ... data/single_point_P_M06-2x/75806/75806.gbw
Number of atoms                         ...     52
Number of basis functions               ...    793
Max core memory                         ...   1024 MB

Electric properties:
Dipole moment                           ... YES
Quadrupole moment                       ...  NO
Static polarizability (Dipole/Dipole)   ...  NO
Static polarizability (Dipole/Quad.)    ...  NO
Static polarizability (Quad./Quad.)     ...  NO
Static polarizability (Velocity)        ...  NO

Atomic electric properties:
Dipole moment                           ...  NO
Quadrupole moment                       ...  NO
Static polarizability                   ...  NO

Choice of electric origin               ... Center of mass
Position of electric origin             ...    -0.058041    -0.048626     0.270113

General magnetic properties:
Magnetizability                         ...  NO

EPR properties:
g-Tensor (aka g-matrix)                 ...  NO
Zero-Field splitting spin-orbit         ...  NO
Zero-field splitting spin-spin          ...  NO
Hyperfine couplings                     ...  NO (   0 nuclei)
Quadrupole couplings                    ...  NO (   0 nuclei)
Contact density                         ...  NO (   0 nuclei)

NMR properties:
Chemical shifts                         ...  NO (   0 nuclei)
Spin-rotation constants                 ...  NO (   0 nuclei)
Spin-spin couplings                     ...  NO (   0 nuclei,    0 pairs)

Choice of magnetic origin               ... GIAO
Position of magnetic origin             ...     0.000000     0.000000     0.000000

Properties with geometric perturbations:
SCF Hessian                             ...  NO
IR spectrum                             ...  NO
VCD spectrum                            ...  NO
X-ray spectroscopy properties:
SCF XES/XAS/RIXS spectra                ...  NO


-------------
DIPOLE MOMENT
-------------

Method             : SCF
Type of density    : Electron Density
Multiplicity       :   1
Irrep              :   0
Energy             : -1047.0651966675277436 Eh
Relativity type    : 
Basis              : AO
                                X                 Y                 Z
Electronic contribution:     -1.320459706      -1.238247229       6.380523656
Nuclear contribution   :      1.476572346       1.241227007      -6.851748087
                        -----------------------------------------
Total Dipole Moment    :      0.156112639       0.002979778      -0.471224431
                        -----------------------------------------
Magnitude (a.u.)       :      0.496419681
Magnitude (Debye)      :      1.261798552



--------------------
Rotational spectrum 
--------------------
 
Rotational constants in cm-1:             0.010956             0.009385             0.005963 
Rotational constants in MHz :           328.462301           281.359391           178.776904 

Dipole components along the rotational axes: 
x,y,z [a.u.] :     0.079628     0.024482    -0.489380 
x,y,z [Debye]:     0.202397     0.062229    -1.243905 

 

Dipole moment calculation done in   0.0 sec 

Maximum memory used throughout the entire PROP-calculation: 69.4 MB

--------------------------------
SUGGESTED CITATIONS FOR THIS RUN
--------------------------------

Below you find a list of papers that are relevant to this ORCA run
We neither can nor want to force you to cite these papers, but we appreciate if you do
You receive ORCA, which is the product of decades of hard work by many enthusiastic individuals, for free
The only thing we kindly ask in return is that you cite our papers,
We deeply appreciate it, if you show your appreciation for ORCA by not just citing the generic ORCA reference.

Please note that relegating all ORCA citations to the supporting information does *not* help us.
SI sections are not indexed - citations you put there will not count into any citation statistics
But we need these citations in order to attract the funding resources that allow us to do what we are doing

Therefore, if you are a happy ORCA user, please consider citing a few of the papers listed below in the main body of your paper

In addition to the list printed below, the program has created the file data/single_point_P_M06-2x/75806/75806.bibtex that contains the list in bibtex format
You can import this file easily into all common literature databanks and citation aid programs


List of essential papers. We consider these as the minimum necessary citations

  1. Neese,F.
     Software update: the ORCA program system, version 5.0
     WIRES Comput. Molec. Sci., 2022 12(1)e1606
     doi.org/10.1002/wcms.1606

List of papers to cite with high priority. The work reported in these papers was absolutely
necessary for this run to complete.
Our perspective: the developers of density functionals and basis sets usually get cited in chemistry papers
Good! But without the algorithms to do something with them, the functionals or basis sets would not do anything.
Hence, in our opinion, the algorithm design and method developments papers are equally worthy of getting cited

  1. Neese,F.
     An improvement of the resolution of the identity approximation for the formation of the Coulomb matrix
     J. Comp. Chem., 2003 24(14)1740-1747
     doi.org/10.1002/jcc.10318
  2. Neese,F.; Wennmohs,F.; Hansen,A.; Becker,U.
     Efficient, approximate and parallel Hartree-Fock and hybrid DFT calculations. A 'chain-of-spheres' algorithm for the Hartree-Fock exchange
     Chem. Phys., 2009 356(1-3)98-109
     doi.org/10.1016/j.chemphys.2008.10.036
  3. Helmich-Paris,B.; de Souza,B.; Neese,F.; Izsák,R.
     An improved chain of spheres for exchange algorithm
     J. Chem. Phys., 2021 155 104109
     doi.org/doi: 10.1063/5.0058766.
  4. Neese,F.
     The SHARK Integral Generation and Digestion System
     J. Comp. Chem., 2022  1-16
     doi.org/10.1002/jcc.26942
  5. Grimme,S.; Antony,J.; Ehrlich,S.; Krieg,H.
     A consistent and accurate ab initio parametrization of density functional dispersion correction (DFT-D) for the 94 elements H-Pu
     J. Chem. Phys., 2010 132 154104-XXXX
     doi.org/10.1063/1.3382344

List of suggested additional citations. These are papers that are important in the 'surrounding' of 
of this run, or papers that preceded the highly important papers. If you like your results we are grateful for a citation.

  1. Izsak,R.; Neese,F.
     An overlap fitted chain of spheres exchange method
     J. Chem. Phys., 2011 135 144105
     doi.org/10.1063/1.3646921
  2. Izsak,R.; Hansen,A.; Neese,F.
     The resolution of identity and chain of spheres approximations for the LPNO-CCSD singles Fock term
     Molec. Phys., 2012 110 2413-2417
     doi.org/10.1080/00268976.2012.687466
  3. Neese,F.
     The ORCA program system
     WIRES Comput. Molec. Sci., 2012 2(1)73-78
     doi.org/10.1002/wcms.81
  4. Izsak,R.; Neese,F.; Klopper,W.
     Robust fitting techniques in the chain of spheres approximation to the Fock exchange: The role of the complementary space
     J. Chem. Phys., 2013 139 
     doi.org/10.1063/1.4819264
  5. Neese,F.
     Software update: the ORCA program system, version 4.0
     WIRES Comput. Molec. Sci., 2018 8(1)1-6
     doi.org/10.1002/wcms.1327
  6. Neese,F.; Wennmohs,F.; Becker,U.; Riplinger,C.
     The ORCA quantum chemistry program package
     J. Chem. Phys., 2020 152 Art. No. L224108
     doi.org/10.1063/5.0004608

List of optional additional citations

  1. Neese,F.
     Approximate second-order SCF convergence for spin unrestricted wavefunctions
     Chem. Phys. Lett., 2000 325(1-3)93-98
     doi.org/10.1016/s0009-2614(00)00662-x

Timings for individual modules:

Sum of individual times          ...      163.159 sec (=   2.719 min)
Startup calculation              ...        5.627 sec (=   0.094 min)   3.4 %
SCF iterations                   ...      157.200 sec (=   2.620 min)  96.3 %
Property calculations            ...        0.332 sec (=   0.006 min)   0.2 %
                             ****ORCA TERMINATED NORMALLY****
TOTAL RUN TIME: 0 days 0 hours 2 minutes 43 seconds 437 msec
