
                                 *****************
                                 * O   R   C   A *
                                 *****************

                                            #,                                       
                                            ###                                      
                                            ####                                     
                                            #####                                    
                                            ######                                   
                                           ########,                                 
                                     ,,################,,,,,                         
                               ,,#################################,,                 
                          ,,##########################################,,             
                       ,#########################################, ''#####,          
                    ,#############################################,,   '####,        
                  ,##################################################,,,,####,       
                ,###########''''           ''''###############################       
              ,#####''   ,,,,##########,,,,          '''####'''          '####       
            ,##' ,,,,###########################,,,                        '##       
           ' ,,###''''                  '''############,,,                           
         ,,##''                                '''############,,,,        ,,,,,,###''
      ,#''                                            '''#######################'''  
     '                                                          ''''####''''         
             ,#######,   #######,   ,#######,      ##                                
            ,#'     '#,  ##    ##  ,#'     '#,    #''#        ,####,   ,####,        
            ##       ##  ##   ,#'  ##            #'  '#       #'       #'  '#        
            ##       ##  #######   ##           ,######,      #####,   #    #        
            '#,     ,#'  ##    ##  '#,     ,#' ,#      #,     #,   #   #,  ,#        
             '#######'   ##     ##  '#######'  #'      '#     '####' # '####'        



                #########################################################
                #                        -***-                          #
                #          Department of theory and spectroscopy        #
                #                                                       #
                #                      Frank Neese                      #
                #                                                       #
                #     Directorship, Architecture, Infrastructure        #
                #                    SHARK, DRIVERS                     #
                #        Core code/Algorithms in most modules           #
                #                                                       #
                #        Max Planck Institute fuer Kohlenforschung      #
                #                Kaiser Wilhelm Platz 1                 #
                #                 D-45470 Muelheim/Ruhr                 #
                #                      Germany                          #
                #                                                       #
                #                  All rights reserved                  #
                #                        -***-                          #
                #########################################################


                         Program Version 6.0.0  -   RELEASE   -


 With contributions from (in alphabetic order):
   Daniel Aravena         : Magnetic Suceptibility
   Michael Atanasov       : Ab Initio Ligand Field Theory (pilot matlab implementation)
   Alexander A. Auer      : GIAO ZORA, VPT2 properties, NMR spectrum
   Ute Becker             : All parallelization in ORCA, NUMFREQ, NUMCALC
   Giovanni Bistoni       : ED, misc. LED, open-shell LED, HFLD
   Martin Brehm           : Molecular dynamics
   Dmytro Bykov           : pre 5.0 version of the SCF Hessian
   Marcos Casanova-Páez   : Triplet and SCS-CIS(D). UHF-(DLPNO)-IP/EA/STEOM-CCSD. UHF-CVS-IP/STEOM-CCSD
   Vijay G. Chilkuri      : MRCI spin determinant printing, contributions to CSF-ICE
   Pauline Colinet        : FMM embedding
   Dipayan Datta          : RHF DLPNO-CCSD density
   Achintya Kumar Dutta   : EOM-CC, STEOM-CC
   Nicolas Foglia         : Exact transition moments, OPA infrastructure, MCD improvements
   Dmitry Ganyushin       : Spin-Orbit,Spin-Spin,Magnetic field MRCI
   Miquel Garcia          : C-PCM and meta-GGA Hessian, CCSD/C-PCM, Gaussian charge scheme
   Tiago L. C. Gouveia    : GS-ROHF, GS-ROCIS
   Yang Guo               : DLPNO-NEVPT2, F12-NEVPT2, CIM, IAO-localization
   Andreas Hansen         : Spin unrestricted coupled pair/coupled cluster methods
   Ingolf Harden          : AUTO-CI MPn and infrastructure 
   Benjamin Helmich-Paris : MC-RPA, TRAH-(SCF,CASSCF), AVAS, COSX integrals, SCF dyn. polar.
   Lee Huntington         : MR-EOM, pCC
   Robert Izsak           : Overlap fitted RIJCOSX, COSX-SCS-MP3, EOM
   Riya Kayal             : Wick's Theorem for AUTO-CI, AUTO-CI UHF-CCSDT
   Emily Kempfer          : AUTO-CI, RHF CISDT and CCSDT
   Christian Kollmar      : KDIIS, OOCD, Brueckner-CCSD(T), CCSD density, CASPT2, CASPT2-K, improved NEVPT2
   Axel Koslowski         : Symmetry handling
   Simone Kossmann        : Meta GGA functionals, TD-DFT gradient, OOMP2, (MP2 Hessian; deprecated post 5.0)
   Lucas Lang             : DCDCAS
   Marvin Lechner         : AUTO-CI (C++ implementation), FIC-MRCC
   Spencer Leger          : CASSCF response
   Dagmar Lenk            : GEPOL surface, SMD, ORCA-2-JSON
   Dimitrios Liakos       : Extrapolation schemes; Compound Job, initial MDCI parallelization
   Dimitrios Manganas     : Further ROCIS development; embedding schemes. LFT, Crystal Embedding
   Dimitrios Pantazis     : SARC Basis sets
   Anastasios Papadopoulos: AUTO-CI, single reference methods and gradients
   Taras Petrenko         : pre 6.0 DFT Hessian and TD-DFT gradient, (ASA, deprecated), ECA, 1-Electron XAS/XES, NRVS
   Peter Pinski           : DLPNO-MP2, DLPNO-MP2 Gradient
   Christoph Reimann      : Effective Core Potentials
   Marius Retegan         : Local ZFS, SOC
   Christoph Riplinger    : Optimizer, TS searches, QM/MM, DLPNO-CCSD(T), (RO)-DLPNO pert. Triples
   Michael Roemelt        : Original ROCIS implementation
   Masaaki Saitow         : Open-shell DLPNO-CCSD energy and density
   Barbara Sandhoefer     : DKH picture change effects
   Kantharuban Sivalingam : CASSCF convergence/infrastructure, NEVPT2 and variants, FIC-MRCI
   Bernardo de Souza      : ESD, SOC TD-DFT
   Georgi Stoychev        : AutoAux, RI-MP2 NMR, DLPNO-MP2 response, X2C
   Van Anh Tran           : RI-MP2 g-tensors
   Willem Van den Heuvel  : Paramagnetic NMR
   Zikuan Wang            : NOTCH, Electric field optimization 
   Frank Wennmohs         : Technical directorship and infrastructure
   Hang Xu                : AUTO-CI-Response properties 


 We gratefully acknowledge several colleagues who have allowed us to
 interface, adapt or use parts of their codes:
   Stefan Grimme, W. Hujo, H. Kruse, P. Pracht,  : VdW corrections, initial TS optimization,
                  C. Bannwarth, S. Ehlert,         DFT functionals, gCP, sTDA/sTD-DF
                  L. Wittmann, M. Mueller
   Ed Valeev, F. Pavosevic, A. Kumar             : LibInt (2-el integral package), F12 methods
   Garnet Chan, S. Sharma, J. Yang, R. Olivares  : DMRG
   Ulf Ekstrom                                   : XCFun DFT Library
   Mihaly Kallay                                 : mrcc  (arbitrary order and MRCC methods)
   Frank Weinhold                                : gennbo (NPA and NBO analysis)
   Simon Mueller                                 : openCOSMO-RS
   Christopher J. Cramer and Donald G. Truhlar   : smd solvation model
   Lars Goerigk                                  : TD-DFT with DH, B97 family of functionals
   V. Asgeirsson, H. Jonsson                     : NEB implementation
   FAccTs GmbH                                   : IRC, NEB, NEB-TS, DLPNO-Multilevel, CI-OPT
                                                   MM, QMMM, 2- and 3-layer-ONIOM, Crystal-QMMM,
                                                   LR-CPCM, SF, NACMEs, symmetry and pop. for TD-DFT,
                                                   nearIR, NL-DFT gradient (VV10), updates on ESD,
                                                   ML-optimized integration grids, MBIS, APM,
                                                   GOAT, DOCKER, SOLVATOR, interface openCOSMO-RS
   S Lehtola, MJT Oliveira, MAL Marques          : LibXC Library
   Liviu Ungur et al                             : ANISO software


 Your calculation uses the libint2 library for the computation of 2-el integrals
 For citations please refer to: http://libint.valeyev.net

 Your ORCA version has been built with support for libXC version: 6.2.2
 For citations please refer to: https://libxc.gitlab.io

 This ORCA versions uses:
   CBLAS   interface :  Fast vector & matrix operations
   LAPACKE interface :  Fast linear algebra routines
   Shared memory     :  Shared parallel matrices


Your calculation utilizes the atom-pairwise dispersion correction
with the Becke-Johnson damping scheme (D3BJ)


Warning: RI is on but no J-basis has been assigned. Assigning Def2/J (nothing to worry about!)
================================================================================

----- Orbital basis set information -----
Your calculation utilizes the basis: def2-SVP
   F. Weigend and R. Ahlrichs, Phys. Chem. Chem. Phys. 7, 3297 (2005).

----- AuxJ basis set information -----
Your calculation utilizes the auxiliary basis: def2/J
   F. Weigend, Phys. Chem. Chem. Phys. 8, 1057 (2006).

================================================================================
                                        WARNINGS
                       Please study these warnings very carefully!
================================================================================


WARNING: Geometry Optimization
  ===> : Switching off AutoStart
         For restart on a previous wavefunction, please use MOREAD

================================================================================
                                       INPUT FILE
================================================================================
NAME = data/geom_opt_PO_BP86/521585/521585.inp
|  1> ! RI BP86 def2-SVP D3BJ TIGHTSCF Opt
|  2> %pal
|  3> nprocs 6
|  4> end
|  5> 
|  6> * xyz 0 1
|  7> C     -1.355678    3.555979   -0.660235
|  8> C     -1.036735    3.331882    0.657393
|  9> O     -0.476640    2.106056    0.809856
| 10> C     -0.434339    1.522346   -0.427414
| 11> C     -0.967293    2.390604   -1.362164
| 12> P      0.194424   -0.067506   -0.776920
| 13> O      0.556890   -0.193367   -2.242597
| 14> C     -1.020731   -1.239455   -0.335268
| 15> C     -1.296063   -2.401559   -1.031957
| 16> C     -2.339473   -3.055950   -0.335744
| 17> C     -2.639770   -2.256687    0.740866
| 18> O     -1.850152   -1.153956    0.750133
| 19> C      1.592912   -0.330742    0.233062
| 20> C      2.906929   -0.212518   -0.180522
| 21> C      3.715193   -0.507000    0.942705
| 22> C      2.849812   -0.788132    1.972349
| 23> O      1.563509   -0.687043    1.554249
| 24> H     -1.811444    4.449462   -1.063345
| 25> H     -1.138385    3.914443    1.562681
| 26> H     -1.058128    2.196444   -2.423192
| 27> H     -0.797981   -2.727614   -1.936022
| 28> H     -2.814967   -3.993808   -0.586468
| 29> H     -3.352255   -2.327375    1.551190
| 30> H      3.232354    0.053282   -1.178108
| 31> H      4.794812   -0.514155    0.996635
| 32> H      2.983198   -1.063628    3.009446
| 33> **                         ****END OF INPUT****
================================================================================

                       *****************************
                       * Geometry Optimization Run *
                       *****************************

Geometry optimization settings:
Update method            Update   .... BFGS
Choice of coordinates    CoordSys .... (2022) Redundant Internals
Initial Hessian          InHess   .... Almloef's Model
Max. no of cycles        MaxIter  .... 78

Convergence Tolerances:
Energy Change            TolE     ....  5.0000e-06 Eh
Max. Gradient            TolMAXG  ....  3.0000e-04 Eh/bohr
RMS Gradient             TolRMSG  ....  1.0000e-04 Eh/bohr
Max. Displacement        TolMAXD  ....  4.0000e-03 bohr
RMS Displacement         TolRMSD  ....  2.0000e-03 bohr
Strict Convergence                .... False

------------------------------------------------------------------------------
                        ORCA OPTIMIZATION COORDINATE SETUP
------------------------------------------------------------------------------

The optimization will be done in redundant internal coordinates (2022)
Making redundant internal coordinates   ...  (2022 redundants) done
Evaluating the initial hessian          ...  (Almloef) done
Evaluating the coordinates              ...  done
Calculating the B-matrix                .... done
Calculating the G-matrix                .... done
Diagonalizing the G-matrix              .... done
Small eigenvalue found = 1.114e-02
Small eigenvalue found = 1.158e-02
Small eigenvalue found = 1.625e-02
The first mode is                       ....   64
The number of degrees of freedom        ....   72

    -----------------------------------------------------------------
                    Redundant Internal Coordinates


    -----------------------------------------------------------------
         Definition                    Initial Value    Approx d2E/dq
    -----------------------------------------------------------------
      1. B(C   1,C   0)                  1.3741         0.662434   
      2. B(O   2,C   1)                  1.3563         0.633303   
      3. B(C   3,O   2)                  1.3687         0.605140   
      4. B(C   4,C   0)                  1.4148         0.570399   
      5. B(C   4,C   3)                  1.3826         0.641940   
      6. B(P   5,C   3)                  1.7450         0.569910   
      7. B(O   6,P   5)                  1.5151         1.188040   
      8. B(C   7,P   5)                  1.7450         0.569912   
      9. B(C   8,C   7)                  1.3826         0.641941   
     10. B(C   9,C   8)                  1.4148         0.570401   
     11. B(C  10,C   9)                  1.3741         0.662433   
     12. B(O  11,C  10)                  1.3563         0.633305   
     13. B(O  11,C   7)                  1.3687         0.605139   
     14. B(C  12,P   5)                  1.7450         0.569911   
     15. B(C  13,C  12)                  1.3826         0.641941   
     16. B(C  14,C  13)                  1.4148         0.570397   
     17. B(C  15,C  14)                  1.3741         0.662435   
     18. B(O  16,C  15)                  1.3563         0.633302   
     19. B(O  16,C  12)                  1.3687         0.605135   
     20. B(H  17,C   0)                  1.0810         0.372223   
     21. B(H  18,C   1)                  1.0813         0.371765   
     22. B(H  19,C   4)                  1.0825         0.370208   
     23. B(H  20,C   8)                  1.0825         0.370207   
     24. B(H  21,C   9)                  1.0810         0.372222   
     25. B(H  22,C  10)                  1.0813         0.371765   
     26. B(H  23,C  13)                  1.0825         0.370208   
     27. B(H  24,C  14)                  1.0810         0.372220   
     28. B(H  25,C  15)                  1.0813         0.371763   
     29. A(C   1,C   0,H  17)          126.1750         0.358908   
     30. A(C   4,C   0,H  17)          127.7022         0.349923   
     31. A(C   1,C   0,C   4)          106.1227         0.432727   
     32. A(C   0,C   1,H  18)          133.8782         0.358833   
     33. A(C   0,C   1,O   2)          110.5510         0.438066   
     34. A(O   2,C   1,H  18)          115.5708         0.353903   
     35. A(C   1,O   2,C   3)          107.2527         0.428178   
     36. A(C   4,C   3,P   5)          125.1427         0.459216   
     37. A(O   2,C   3,C   4)          109.3550         0.432042   
     38. A(O   2,C   3,P   5)          125.5023         0.451296   
     39. A(C   0,C   4,C   3)          106.7181         0.430291   
     40. A(C   3,C   4,H  19)          125.6184         0.356666   
     41. A(C   0,C   4,H  19)          127.6633         0.349603   
     42. A(C   3,P   5,C  12)          108.0759         0.479994   
     43. A(O   6,P   5,C   7)          110.8330         0.547594   
     44. A(C   3,P   5,O   6)          110.8330         0.547593   
     45. A(C   3,P   5,C   7)          108.0757         0.479995   
     46. A(C   7,P   5,C  12)          108.0757         0.479995   
     47. A(O   6,P   5,C  12)          110.8331         0.547593   
     48. A(C   8,C   7,O  11)          109.3549         0.432042   
     49. A(P   5,C   7,O  11)          125.5024         0.451296   
     50. A(P   5,C   7,C   8)          125.1427         0.459216   
     51. A(C   7,C   8,C   9)          106.7181         0.430291   
     52. A(C   9,C   8,H  20)          127.6634         0.349603   
     53. A(C   7,C   8,H  20)          125.6183         0.356666   
     54. A(C   8,C   9,C  10)          106.1228         0.432727   
     55. A(C  10,C   9,H  21)          126.1749         0.358908   
     56. A(C   8,C   9,H  21)          127.7023         0.349923   
     57. A(O  11,C  10,H  22)          115.5709         0.353903   
     58. A(C   9,C  10,H  22)          133.8781         0.358833   
     59. A(C   9,C  10,O  11)          110.5510         0.438067   
     60. A(C   7,O  11,C  10)          107.2528         0.428178   
     61. A(C  13,C  12,O  16)          109.3549         0.432042   
     62. A(P   5,C  12,O  16)          125.5023         0.451295   
     63. A(P   5,C  12,C  13)          125.1427         0.459216   
     64. A(C  12,C  13,C  14)          106.7181         0.430290   
     65. A(C  14,C  13,H  23)          127.6634         0.349603   
     66. A(C  12,C  13,H  23)          125.6184         0.356666   
     67. A(C  13,C  14,C  15)          106.1229         0.432727   
     68. A(C  15,C  14,H  24)          126.1751         0.358908   
     69. A(C  13,C  14,H  24)          127.7020         0.349922   
     70. A(C  14,C  15,O  16)          110.5509         0.438066   
     71. A(O  16,C  15,H  25)          115.5709         0.353902   
     72. A(C  14,C  15,H  25)          133.8781         0.358833   
     73. A(C  12,O  16,C  15)          107.2528         0.428177   
     74. D(O   2,C   1,C   0,C   4)      0.0725         0.030637   
     75. D(H  18,C   1,C   0,H  17)      0.0650         0.030637   
     76. D(H  18,C   1,C   0,C   4)   -179.9518         0.030637   
     77. D(O   2,C   1,C   0,H  17)   -179.9107         0.030637   
     78. D(C   3,O   2,C   1,C   0)     -0.1777         0.029519   
     79. D(C   3,O   2,C   1,H  18)    179.8417         0.029519   
     80. D(C   4,C   3,O   2,C   1)      0.2149         0.026776   
     81. D(P   5,C   3,O   2,C   1)   -179.8573         0.026776   
     82. D(H  19,C   4,C   0,H  17)      0.1772         0.022320   
     83. D(C   0,C   4,C   3,O   2)     -0.1702         0.028643   
     84. D(H  19,C   4,C   0,C   1)   -179.8057         0.022320   
     85. D(C   3,C   4,C   0,H  17)   -179.9572         0.022320   
     86. D(H  19,C   4,C   3,O   2)    179.6989         0.028643   
     87. D(C   3,C   4,C   0,C   1)      0.0600         0.022320   
     88. D(H  19,C   4,C   3,P   5)     -0.2292         0.028643   
     89. D(C   0,C   4,C   3,P   5)    179.9016         0.028643   
     90. D(C  12,P   5,C   3,O   2)    -37.4636         0.006012   
     91. D(C   7,P   5,C   3,C   4)   -100.8128         0.006012   
     92. D(C   7,P   5,C   3,O   2)     79.2705         0.006012   
     93. D(O   6,P   5,C   3,C   4)     20.8201         0.006012   
     94. D(O   6,P   5,C   3,O   2)   -159.0967         0.006012   
     95. D(O  11,C   7,P   5,O   6)   -159.0975         0.006012   
     96. D(O  11,C   7,P   5,C   3)    -37.4646         0.006012   
     97. D(C   8,C   7,P   5,C  12)   -100.8133         0.006012   
     98. D(C   8,C   7,P   5,O   6)     20.8196         0.006012   
     99. D(C   8,C   7,P   5,C   3)    142.4525         0.006012   
    100. D(H  20,C   8,C   7,O  11)    179.6991         0.028643   
    101. D(H  20,C   8,C   7,P   5)     -0.2293         0.028643   
    102. D(C   9,C   8,C   7,O  11)     -0.1705         0.028643   
    103. D(C   9,C   8,C   7,P   5)    179.9011         0.028643   
    104. D(C  10,C   9,C   8,C   7)      0.0608         0.022320   
    105. D(H  21,C   9,C   8,H  20)      0.1770         0.022320   
    106. D(H  21,C   9,C   8,C   7)   -179.9569         0.022320   
    107. D(C  10,C   9,C   8,H  20)   -179.8054         0.022320   
    108. D(H  22,C  10,C   9,H  21)      0.0651         0.030637   
    109. D(H  22,C  10,C   9,C   8)   -179.9522         0.030637   
    110. D(O  11,C  10,C   9,H  21)   -179.9113         0.030637   
    111. D(O  11,C  10,C   9,C   8)      0.0714         0.030637   
    112. D(C   7,O  11,C  10,H  22)    179.8421         0.029519   
    113. D(C   7,O  11,C  10,C   9)     -0.1768         0.029519   
    114. D(C  10,O  11,C   7,C   8)      0.2145         0.026776   
    115. D(C  10,O  11,C   7,P   5)   -179.8574         0.026776   
    116. D(O  16,C  12,P   5,O   6)   -159.0973         0.006012   
    117. D(O  16,C  12,P   5,C   3)     79.2698         0.006012   
    118. D(C  13,C  12,P   5,C   7)    142.4523         0.006012   
    119. D(C  13,C  12,P   5,O   6)     20.8194         0.006012   
    120. D(C  13,C  12,P   5,C   3)   -100.8136         0.006012   
    121. D(H  23,C  13,C  12,O  16)    179.6991         0.028643   
    122. D(H  23,C  13,C  12,P   5)     -0.2289         0.028643   
    123. D(C  14,C  13,C  12,O  16)     -0.1699         0.028643   
    124. D(C  14,C  13,C  12,P   5)    179.9020         0.028643   
    125. D(H  24,C  14,C  13,H  23)      0.1772         0.022320   
    126. D(H  24,C  14,C  13,C  12)   -179.9573         0.022320   
    127. D(C  15,C  14,C  13,H  23)   -179.8058         0.022320   
    128. D(C  15,C  14,C  13,C  12)      0.0598         0.022320   
    129. D(H  25,C  15,C  14,H  24)      0.0645         0.030637   
    130. D(H  25,C  15,C  14,C  13)   -179.9522         0.030637   
    131. D(O  16,C  15,C  14,H  24)   -179.9107         0.030637   
    132. D(O  16,C  15,C  14,C  13)      0.0725         0.030637   
    133. D(C  12,O  16,C  15,H  25)    179.8422         0.029519   
    134. D(C  12,O  16,C  15,C  14)     -0.1776         0.029519   
    135. D(C  15,O  16,C  12,C  13)      0.2146         0.026775   
    136. D(C  15,O  16,C  12,P   5)   -179.8577         0.026775   
    -----------------------------------------------------------------

Number of atoms                         .... 26
Number of degrees of freedom            .... 136


         *************************************************************
         *                GEOMETRY OPTIMIZATION CYCLE   1            *
         *************************************************************
---------------------------------
CARTESIAN COORDINATES (ANGSTROEM)
---------------------------------
  C     -1.355678    3.555979   -0.660235
  C     -1.036735    3.331882    0.657393
  O     -0.476640    2.106056    0.809856
  C     -0.434339    1.522346   -0.427414
  C     -0.967293    2.390604   -1.362164
  P      0.194424   -0.067506   -0.776920
  O      0.556890   -0.193367   -2.242597
  C     -1.020731   -1.239455   -0.335268
  C     -1.296063   -2.401559   -1.031957
  C     -2.339473   -3.055950   -0.335744
  C     -2.639770   -2.256687    0.740866
  O     -1.850152   -1.153956    0.750133
  C      1.592912   -0.330742    0.233062
  C      2.906929   -0.212518   -0.180522
  C      3.715193   -0.507000    0.942705
  C      2.849812   -0.788132    1.972349
  O      1.563509   -0.687043    1.554249
  H     -1.811444    4.449462   -1.063345
  H     -1.138385    3.914443    1.562681
  H     -1.058128    2.196444   -2.423192
  H     -0.797981   -2.727614   -1.936022
  H     -2.814967   -3.993808   -0.586468
  H     -3.352255   -2.327375    1.551190
  H      3.232354    0.053282   -1.178108
  H      4.794812   -0.514155    0.996635
  H      2.983198   -1.063628    3.009446

----------------------------
CARTESIAN COORDINATES (A.U.)
----------------------------
  NO LB      ZA    FRAG     MASS         X           Y           Z
   0 C     6.0000    0    12.011   -2.561860    6.719826   -1.247663
   1 C     6.0000    0    12.011   -1.959145    6.296344    1.242293
   2 O     8.0000    0    15.999   -0.900719    3.979869    1.530406
   3 C     6.0000    0    12.011   -0.820782    2.876817   -0.807695
   4 C     6.0000    0    12.011   -1.827919    4.517587   -2.574117
   5 P    15.0000    0    30.974    0.367408   -0.127568   -1.468166
   6 O     8.0000    0    15.999    1.052370   -0.365411   -4.237894
   7 C     6.0000    0    12.011   -1.928902   -2.342231   -0.633565
   8 C     6.0000    0    12.011   -2.449204   -4.538289   -1.950116
   9 C     6.0000    0    12.011   -4.420963   -5.774909   -0.634464
  10 C     6.0000    0    12.011   -4.988442   -4.264520    1.400034
  11 O     8.0000    0    15.999   -3.496281   -2.180661    1.417546
  12 C     6.0000    0    12.011    3.010167   -0.625012    0.440423
  13 C     6.0000    0    12.011    5.493300   -0.401601   -0.341137
  14 C     6.0000    0    12.011    7.020697   -0.958091    1.781454
  15 C     6.0000    0    12.011    5.385364   -1.489354    3.727199
  16 O     8.0000    0    15.999    2.954604   -1.298323    2.937105
  17 H     1.0000    0     1.008   -3.423133    8.408265   -2.009431
  18 H     1.0000    0     1.008   -2.151236    7.397225    2.953039
  19 H     1.0000    0     1.008   -1.999572    4.150678   -4.579169
  20 H     1.0000    0     1.008   -1.507966   -5.154443   -3.658551
  21 H     1.0000    0     1.008   -5.319517   -7.547203   -1.108264
  22 H     1.0000    0     1.008   -6.334844   -4.398101    2.931324
  23 H     1.0000    0     1.008    6.108264    0.100688   -2.226301
  24 H     1.0000    0     1.008    9.060882   -0.971612    1.883367
  25 H     1.0000    0     1.008    5.637427   -2.009966    5.687029

--------------------------------
INTERNAL COORDINATES (ANGSTROEM)
--------------------------------
 C      0   0   0     0.000000000000     0.00000000     0.00000000
 C      1   0   0     1.374077017144     0.00000000     0.00000000
 O      2   1   0     1.356318825966   110.55104797     0.00000000
 C      3   2   1     1.368701498356   107.25268559   359.82225028
 C      4   3   2     1.382631361998   109.35499835     0.21489215
 P      4   3   2     1.745029150504   125.50230487   180.14273077
 O      6   4   3     1.515068203351   110.83299514   200.90332959
 C      6   4   3     1.745027971618   108.07570260    79.27046558
 C      8   6   4     1.382631179947   125.14271124   142.45245767
 C      9   8   6     1.414794879249   106.71814566   179.90106026
 C     10   9   8     1.374077408110   106.12276640     0.06078094
 O     11  10   9     1.356317854182   110.55096824     0.07142045
 C      6   4   3     1.745028801529   108.07585379   322.53636507
 C     13   6   4     1.382631301367   125.14269465   259.18639187
 C     14  13   6     1.414796535036   106.71807688   179.90201721
 C     15  14  13     1.374076505629   106.12287108     0.05975774
 O     16  15  14     1.356319285320   110.55094497     0.07254496
 H      1   2   3     1.080986674361   126.17504442   180.08931050
 H      2   1   3     1.081321600711   133.87818868   179.97564109
 H      5   4   3     1.082464558131   125.61844924   179.69894044
 H      9   8   6     1.082465272410   125.61834378   359.77070640
 H     10   9   8     1.080987833593   127.70231590   180.04311026
 H     11  10   9     1.081321716024   133.87814777   180.04775253
 H     14  13   6     1.082464271014   125.61835378   359.77107385
 H     15  14  13     1.080988817743   127.70203915   180.04271391
 H     16  15  14     1.081323290428   133.87810417   180.04776954

---------------------------
INTERNAL COORDINATES (A.U.)
---------------------------
 C      0   0   0     0.000000000000     0.00000000     0.00000000
 C      1   0   0     2.596629249317     0.00000000     0.00000000
 O      2   1   0     2.563071131357   110.55104797     0.00000000
 C      3   2   1     2.586470990980   107.25268559   359.82225028
 C      4   3   2     2.612794618346   109.35499835     0.21489215
 P      4   3   2     3.297627190162   125.50230487   180.14273077
 O      6   4   3     2.863063978546   110.83299514   200.90332959
 C      6   4   3     3.297624962391   108.07570260    79.27046558
 C      8   6   4     2.612794274320   125.14271124   142.45245767
 C      9   8   6     2.673574857455   106.71814566   179.90106026
 C     10   9   8     2.596629988136   106.12276640     0.06078094
 O     11  10   9     2.563069294953   110.55096824     0.07142045
 C      6   4   3     3.297626530694   108.07585379   322.53636507
 C     13   6   4     2.612794503772   125.14269465   259.18639187
 C     14  13   6     2.673577986438   106.71807688   179.90201721
 C     15  14  13     2.596628282694   106.12287108     0.05975774
 O     16  15  14     2.563071999410   110.55094497     0.07254496
 H      1   2   3     2.042768768960   126.17504442   180.08931050
 H      2   1   3     2.043401688038   133.87818868   179.97564109
 H      5   4   3     2.045561564543   125.61844924   179.69894044
 H      9   8   6     2.045562914336   125.61834378   359.77070640
 H     10   9   8     2.042770959592   127.70231590   180.04311026
 H     11  10   9     2.043401905947   133.87814777   180.04775253
 H     14  13   6     2.045561021970   125.61835378   359.77107385
 H     15  14  13     2.042772819366   127.70203915   180.04271391
 H     16  15  14     2.043404881139   133.87810417   180.04776954

---------------------
BASIS SET INFORMATION
---------------------
There are 4 groups of distinct atoms

 Group   1 Type C   : 7s4p1d contracted to 3s2p1d pattern {511/31/1}
 Group   2 Type O   : 7s4p1d contracted to 3s2p1d pattern {511/31/1}
 Group   3 Type P   : 10s7p1d contracted to 4s3p1d pattern {5311/511/1}
 Group   4 Type H   : 4s1p contracted to 2s1p pattern {31/1}

Atom   0C    basis set group =>   1
Atom   1C    basis set group =>   1
Atom   2O    basis set group =>   2
Atom   3C    basis set group =>   1
Atom   4C    basis set group =>   1
Atom   5P    basis set group =>   3
Atom   6O    basis set group =>   2
Atom   7C    basis set group =>   1
Atom   8C    basis set group =>   1
Atom   9C    basis set group =>   1
Atom  10C    basis set group =>   1
Atom  11O    basis set group =>   2
Atom  12C    basis set group =>   1
Atom  13C    basis set group =>   1
Atom  14C    basis set group =>   1
Atom  15C    basis set group =>   1
Atom  16O    basis set group =>   2
Atom  17H    basis set group =>   4
Atom  18H    basis set group =>   4
Atom  19H    basis set group =>   4
Atom  20H    basis set group =>   4
Atom  21H    basis set group =>   4
Atom  22H    basis set group =>   4
Atom  23H    basis set group =>   4
Atom  24H    basis set group =>   4
Atom  25H    basis set group =>   4
---------------------------------
AUXILIARY/J BASIS SET INFORMATION
---------------------------------
There are 4 groups of distinct atoms

 Group   1 Type C   : 12s5p4d2f1g contracted to 6s4p3d1f1g pattern {711111/2111/211/2/1}
 Group   2 Type O   : 12s5p4d2f1g contracted to 6s4p3d1f1g pattern {711111/2111/211/2/1}
 Group   3 Type P   : 14s5p5d2f1g contracted to 8s4p3d1f1g pattern {71111111/2111/311/2/1}
 Group   4 Type H   : 5s2p1d contracted to 3s1p1d pattern {311/2/1}

Atom   0C    basis set group =>   1
Atom   1C    basis set group =>   1
Atom   2O    basis set group =>   2
Atom   3C    basis set group =>   1
Atom   4C    basis set group =>   1
Atom   5P    basis set group =>   3
Atom   6O    basis set group =>   2
Atom   7C    basis set group =>   1
Atom   8C    basis set group =>   1
Atom   9C    basis set group =>   1
Atom  10C    basis set group =>   1
Atom  11O    basis set group =>   2
Atom  12C    basis set group =>   1
Atom  13C    basis set group =>   1
Atom  14C    basis set group =>   1
Atom  15C    basis set group =>   1
Atom  16O    basis set group =>   2
Atom  17H    basis set group =>   4
Atom  18H    basis set group =>   4
Atom  19H    basis set group =>   4
Atom  20H    basis set group =>   4
Atom  21H    basis set group =>   4
Atom  22H    basis set group =>   4
Atom  23H    basis set group =>   4
Atom  24H    basis set group =>   4
Atom  25H    basis set group =>   4


           ************************************************************
           *        Program running with 6 parallel MPI-processes     *
           *              working on a common directory               *
           ************************************************************
------------------------------------------------------------------------------
                             ORCA STARTUP CALCULATIONS
                           -- RI-GTO INTEGRALS CHOSEN --
------------------------------------------------------------------------------
------------------------------------------------------------------------------
                   ___                                                        
                  /   \      - P O W E R E D   B Y -                         
                 /     \                                                     
                 |  |  |   _    _      __       _____    __    __             
                 |  |  |  | |  | |    /  \     |  _  \  |  |  /  |          
                  \  \/   | |  | |   /    \    | | | |  |  | /  /          
                 / \  \   | |__| |  /  /\  \   | |_| |  |  |/  /          
                |  |  |   |  __  | /  /__\  \  |    /   |      \           
                |  |  |   | |  | | |   __   |  |    \   |  |\   \          
                \     /   | |  | | |  |  |  |  | |\  \  |  | \   \       
                 \___/    |_|  |_| |__|  |__|  |_| \__\ |__|  \__/        
                                                                              
                      - O R C A' S   B I G   F R I E N D -                    
                                      &                                       
                       - I N T E G R A L  F E E D E R -                       
                                                                              
 v1 FN, 2020, v2 2021, v3 2022-2024                                           
------------------------------------------------------------------------------


----------------------
SHARK INTEGRAL PACKAGE
----------------------

Number of atoms                             ...     26
Number of basis functions                   ...    287
Number of shells                            ...    131
Maximum angular momentum                    ...      2
Integral batch strategy                     ... SHARK/LIBINT Hybrid
RI-J (if used) integral strategy            ... SPLIT-RIJ (Revised 2003 algorithm where possible)
Printlevel                                  ...      1
Contraction scheme used                     ... SEGMENTED contraction
Prescreening option                         ... SCHWARTZ
   Thresh                                   ... 2.500e-11
   Tcut                                     ... 2.500e-12
   Tpresel                                  ... 2.500e-12 
Coulomb Range Separation                    ... NOT USED
Exchange Range Separation                   ... NOT USED
Multipole approximations                    ... NOT USED
Finite Nucleus Model                        ... NOT USED
CABS basis                                  ... NOT available
Auxiliary Coulomb fitting basis             ... AVAILABLE
   # of basis functions in Aux-J            ...    934
   # of shells in Aux-J                     ...    302
   Maximum angular momentum in Aux-J        ...      4
Auxiliary J/K fitting basis                 ... NOT available
Auxiliary Correlation fitting basis         ... NOT available
Auxiliary 'external' fitting basis          ... NOT available

Checking pre-screening integrals            ... done (  0.0 sec) Dimension = 131
Check shell pair data                       ... done (  0.0 sec)
Shell pair information
Shell pair cut-off parameter TPreSel        ...   2.5e-12
Total number of shell pairs                 ...      8646
Shell pairs after pre-screening             ...      6915
Total number of primitive shell pairs       ...     32898
Primitive shell pairs kept                  ...     17133
          la=0 lb=0:   2001 shell pairs
          la=1 lb=0:   2533 shell pairs
          la=1 lb=1:    831 shell pairs
          la=2 lb=0:    876 shell pairs
          la=2 lb=1:    571 shell pairs
          la=2 lb=2:    103 shell pairs

Calculating one electron integrals          ... done (  0.0 sec)
Calculating RI/J V-Matrix + Cholesky decomp.... done (  0.0 sec)
Calculating Nuclear repulsion               ... done (  0.0 sec) ENN=   1317.445737163929 Eh

Diagonalization of the overlap matrix:
Smallest eigenvalue                        ... 5.259e-04
Time for diagonalization                   ...    0.010 sec
Threshold for overlap eigenvalues          ... 1.000e-07
Number of eigenvalues below threshold      ... 0
Time for construction of square roots      ...    0.007 sec
Total time needed                          ...    0.018 sec

-------------------
DFT GRID GENERATION
-------------------

General Integration Accuracy     IntAcc      ... 4.388
Radial Grid Type                 RadialGrid  ... OptM3 with GC (2021)
Angular Grid (max. ang.)         AngularGrid ... 4 (Lebedev-302)
Angular grid pruning method      GridPruning ... 4 (adaptive)
Weight generation scheme         WeightScheme... mBecke (2022)
Basis function cutoff            BFCut       ... 1.0000e-11
Integration weight cutoff        WCut        ... 1.0000e-14
Partially contracted basis set               ... off
Rotationally invariant grid construction     ... off
Angular grids for H and He will be reduced by one unit

Total number of grid points                  ...   132547
Total number of batches                      ...     2082
Average number of points per batch           ...       63
Average number of grid points per atom       ...     5098
Initializing property integral containers    ... done (  0.0 sec)

SHARK setup successfully completed in   1.0 seconds

Maximum memory used throughout the entire STARTUP-calculation: 34.8 MB


           ************************************************************
           *        Program running with 6 parallel MPI-processes     *
           *              working on a common directory               *
           ************************************************************
-------------------------------------------------------------------------------
                                 ORCA GUESS
                   Start orbitals & Density for SCF / CASSCF
-------------------------------------------------------------------------------

------------
SCF SETTINGS
------------
Hamiltonian:
 Density Functional     Method          .... DFT(GTOs)
 Exchange Functional    Exchange        .... B88
   X-Alpha parameter    XAlpha          ....  0.666667
   Becke's b parameter  XBeta           ....  0.004200
 Correlation Functional Correlation     .... P86
 LDA part of GGA corr.  LDAOpt          .... PW91-LDA
 Gradients option       PostSCFGGA      .... off
   NL short-range parameter             ....  4.400000
 RI-approximation to the Coulomb term is turned on
   Number of AuxJ basis functions       .... 934


General Settings:
 Integral files         IntName         .... data/geom_opt_PO_BP86/521585/521585
 Hartree-Fock type      HFTyp           .... RHF
 Total Charge           Charge          ....    0
 Multiplicity           Mult            ....    1
 Number of Electrons    NEL             ....  128
 Basis Dimension        Dim             ....  287
 Nuclear Repulsion      ENuc            ....   1317.4457371639 Eh

Convergence Acceleration:
 AO-DIIS                CNVDIIS         .... on
   Start iteration      DIISMaxIt       ....    12
   Startup error        DIISStart       ....  0.200000
   # of expansion vecs  DIISMaxEq       ....     5
   Bias factor          DIISBfac        ....   1.050
   Max. coefficient     DIISMaxC        ....  10.000
 MO-DIIS                CNVKDIIS        .... off
 Trust-Rad. Augm. Hess. CNVTRAH         .... auto
   Auto Start mean grad. ratio tolernc. ....  1.125000
   Auto Start start iteration           ....    50
   Auto Start num. interpolation iter.  ....    10
   Max. Number of Micro iterations      ....    24
   Max. Number of Macro iterations      .... Maxiter - #DIIS iter
   Number of Davidson start vectors     ....     2
   Converg. threshold    (grad. norm)   ....   1.000e-05
   Grad. Scal. Fac. for Micro threshold ....   0.100
   Minimum threshold for Micro iter.    ....   1.000e-02
   NR start threshold (gradient norm)   ....   1.000e-04
   Initial trust radius                 ....   0.400
   Minimum AH scaling param. (alpha)    ....   1.000
   Maximum AH scaling param. (alpha)    .... 1000.000
   Quad. conv. algorithm                .... NR
   White noise on init. David. guess    .... on
   Maximum white noise                  ....   0.010
   Pseudo random numbers                .... off
   Inactive MOs                         .... canonical
   Orbital update algorithm             .... Taylor
   Preconditioner                       .... Diag
   Full preconditioner red. dimension   ....   250
 SOSCF                  CNVSOSCF        .... on
   Start iteration      SOSCFMaxIt      ....   150
   Startup grad/error   SOSCFStart      ....  0.003300
   Hessian update       SOSCFHessUp     .... L-BFGS
 Level Shifting         CNVShift        .... on
   Level shift para.    LevelShift      ....    0.2500
   Turn off err/grad.   ShiftErr        ....    0.0010
 Zerner damping         CNVZerner       .... off
 Static damping         CNVDamp         .... on
   Fraction old density DampFac         ....    0.7000
   Max. Damping (<1)    DampMax         ....    0.9800
   Min. Damping (>=0)   DampMin         ....    0.0000
   Turn off err/grad.   DampErr         ....    0.1000

SCF Procedure:
 Maximum # iterations   MaxIter         ....   125
 SCF integral mode      SCFMode         .... Direct
   Integral package                     .... SHARK and LIBINT hybrid scheme
 Reset frequency        DirectResetFreq ....    20
 Integral Threshold     Thresh          ....  2.500e-11 Eh
 Primitive CutOff       TCut            ....  2.500e-12 Eh

Convergence Tolerance:
 Convergence Check Mode ConvCheckMode   .... Total+1el-Energy
 Convergence forced     ConvForced      .... 0
 Energy Change          TolE            ....  1.000e-08 Eh
 1-El. energy change                    ....  1.000e-05 Eh
 Orbital Gradient       TolG            ....  1.000e-05
 Orbital Rotation angle TolX            ....  1.000e-05
 DIIS Error             TolErr          ....  5.000e-07

------------------------------
INITIAL GUESS: MODEL POTENTIAL
------------------------------
Loading Hartree-Fock densities                     ... done
Calculating cut-offs                               ... done
Initializing the effective Hamiltonian             ... done
Setting up the integral package (SHARK)            ... done
Starting the Coulomb interaction                   ... done (   0.1 sec)
Making the grid                                    ... done (   0.2 sec)
Mapping shells                                     ... done
Starting the XC term evaluation                    ... done (   0.1 sec)
  promolecular density results
     # of electrons  =    127.995725195
     EX              =   -119.915407805
     EC              =     -4.846051852
     EX+EC           =   -124.761459657
Transforming the Hamiltonian                       ... done (   0.0 sec)
Diagonalizing the Hamiltonian                      ... done (   0.0 sec)
Back transforming the eigenvectors                 ... done (   0.0 sec)
Now organizing SCF variables                       ... done
                      ------------------
                      INITIAL GUESS DONE (   0.4 sec)
                      ------------------
             **** ENERGY FILE WAS UPDATED (data/geom_opt_PO_BP86/521585/521585.en.tmp) ****
Finished Guess after   0.5 sec
Maximum memory used throughout the entire GUESS-calculation: 19.6 MB


           ************************************************************
           *        Program running with 6 parallel MPI-processes     *
           *              working on a common directory               *
           ************************************************************

-------------------------------------------------------------------------------------------
                                      ORCA LEAN-SCF
                              memory conserving SCF solver
-------------------------------------------------------------------------------------------

----------------------------------------D-I-I-S--------------------------------------------
Iteration    Energy (Eh)           Delta-E    RMSDP     MaxDP     DIISErr   Damp  Time(sec)
-------------------------------------------------------------------------------------------
               ***  Starting incremental Fock matrix formation  ***
    1    -1103.8936650269038182     0.00e+00  4.32e-03  1.58e-01  3.32e-01  0.700   0.6
    2    -1104.0817857147649192    -1.88e-01  2.16e-03  6.81e-02  6.49e-02  0.700   0.6
                               ***Turning on AO-DIIS***
    3    -1104.1289307863876274    -4.71e-02  7.37e-04  1.85e-02  3.82e-02  0.700   0.5
    4    -1104.1685442486723332    -3.96e-02  1.42e-03  4.97e-02  3.08e-02  0.000   0.5
    5    -1104.2597256001017740    -9.12e-02  3.81e-04  1.05e-02  7.55e-03  0.000   0.5
    6    -1104.2607403362462719    -1.01e-03  1.19e-04  3.20e-03  5.30e-03  0.000   0.6
                              *** Initializing SOSCF ***
---------------------------------------S-O-S-C-F--------------------------------------
Iteration    Energy (Eh)           Delta-E    RMSDP     MaxDP     MaxGrad    Time(sec)
--------------------------------------------------------------------------------------
    7    -1104.2608606091912407    -1.20e-04  4.50e-05  1.03e-03  7.30e-04     0.5
               *** Restarting incremental Fock matrix formation ***
    8    -1104.2608719805484725    -1.14e-05  2.92e-05  1.10e-03  8.51e-05     0.6
    9    -1104.2608722656254940    -2.85e-07  1.66e-05  5.42e-04  1.78e-04     0.5
   10    -1104.2608731657865064    -9.00e-07  1.48e-05  4.03e-04  7.67e-05     0.4
   11    -1104.2608732302182943    -6.44e-08  7.09e-06  2.36e-04  6.30e-05     0.5
   12    -1104.2608734059385824    -1.76e-07  8.24e-06  2.85e-04  5.07e-05     0.4
   13    -1104.2608734665413976    -6.06e-08  4.75e-06  1.18e-04  4.39e-05     0.5
   14    -1104.2608735277221967    -6.12e-08  3.84e-06  1.49e-04  3.73e-05     0.5
   15    -1104.2608735607163908    -3.30e-08  2.27e-06  1.28e-04  1.63e-05     0.5
   16    -1104.2608735854500992    -2.47e-08  1.52e-06  3.29e-05  7.19e-06     0.4
   17    -1104.2608735744843216     1.10e-08  8.72e-07  3.63e-05  1.22e-05     0.4
   18    -1104.2608735777944275    -3.31e-09  5.37e-07  1.61e-05  2.49e-06     0.5
                 **** Energy Check signals convergence ****

               *****************************************************
               *                     SUCCESS                       *
               *           SCF CONVERGED AFTER  18 CYCLES          *
               *****************************************************

             **** ENERGY FILE WAS UPDATED (data/geom_opt_PO_BP86/521585/521585.en.tmp) ****

----------------
TOTAL SCF ENERGY
----------------

Total Energy       :      -1104.26087357779443 Eh          -30048.46600 eV

Components:
Nuclear Repulsion  :       1317.44573716392915 Eh           35849.52106 eV
Electronic Energy  :      -2421.70661074172358 Eh          -65897.98707 eV
One Electron Energy:      -4128.79631538994545 Eh         -112350.25952 eV
Two Electron Energy:       1707.08970464822187 Eh           46452.27245 eV

Virial components:
Potential Energy   :      -2200.31249430881144 Eh          -59873.54688 eV
Kinetic Energy     :       1096.05162073101724 Eh           29825.08088 eV
Virial Ratio       :          2.00748984143767

DFT components:
N(Alpha)           :       64.000036058214 electrons
N(Beta)            :       64.000036058214 electrons
N(Total)           :      128.000072116428 electrons
E(X)               :     -121.266091588205 Eh       
E(C)               :       -4.854218897910 Eh       
E(XC)              :     -126.120310486115 Eh       

---------------
SCF CONVERGENCE
---------------

  Last Energy change         ...    3.3101e-09  Tolerance :   1.0000e-08
  Last MAX-Density change    ...    1.6059e-05  Tolerance :   1.0000e-07
  Last RMS-Density change    ...    5.3737e-07  Tolerance :   5.0000e-09
  Last DIIS Error            ...    7.2974e-04  Tolerance :   5.0000e-07
  Last Orbital Gradient      ...    2.4888e-06  Tolerance :   1.0000e-05
  Last Orbital Rotation      ...    1.0517e-05  Tolerance :   1.0000e-05


----------------
ORBITAL ENERGIES
----------------

  NO   OCC          E(Eh)            E(eV) 
   0   2.0000     -76.424204     -2079.6083 
   1   2.0000     -18.859255      -513.1864 
   2   2.0000     -18.859241      -513.1860 
   3   2.0000     -18.859240      -513.1860 
   4   2.0000     -18.717865      -509.3390 
   5   2.0000      -9.973092      -271.3816 
   6   2.0000      -9.973090      -271.3816 
   7   2.0000      -9.973085      -271.3814 
   8   2.0000      -9.958936      -270.9964 
   9   2.0000      -9.958932      -270.9963 
  10   2.0000      -9.958911      -270.9957 
  11   2.0000      -9.924044      -270.0470 
  12   2.0000      -9.924022      -270.0464 
  13   2.0000      -9.924021      -270.0463 
  14   2.0000      -9.922596      -270.0076 
  15   2.0000      -9.922594      -270.0075 
  16   2.0000      -9.922593      -270.0075 
  17   2.0000      -6.384104      -173.7203 
  18   2.0000      -4.605242      -125.3150 
  19   2.0000      -4.605241      -125.3150 
  20   2.0000      -4.604879      -125.3051 
  21   2.0000      -1.028817       -27.9955 
  22   2.0000      -1.026777       -27.9400 
  23   2.0000      -1.026775       -27.9400 
  24   2.0000      -0.857442       -23.3322 
  25   2.0000      -0.732085       -19.9210 
  26   2.0000      -0.732082       -19.9210 
  27   2.0000      -0.731838       -19.9143 
  28   2.0000      -0.711144       -19.3512 
  29   2.0000      -0.681631       -18.5481 
  30   2.0000      -0.681630       -18.5481 
  31   2.0000      -0.593716       -16.1558 
  32   2.0000      -0.552911       -15.0455 
  33   2.0000      -0.552335       -15.0298 
  34   2.0000      -0.552335       -15.0298 
  35   2.0000      -0.517991       -14.0953 
  36   2.0000      -0.517991       -14.0952 
  37   2.0000      -0.500307       -13.6141 
  38   2.0000      -0.493497       -13.4287 
  39   2.0000      -0.493494       -13.4287 
  40   2.0000      -0.449774       -12.2390 
  41   2.0000      -0.424494       -11.5511 
  42   2.0000      -0.424492       -11.5510 
  43   2.0000      -0.412799       -11.2328 
  44   2.0000      -0.408008       -11.1025 
  45   2.0000      -0.408008       -11.1025 
  46   2.0000      -0.381945       -10.3933 
  47   2.0000      -0.367560       -10.0018 
  48   2.0000      -0.367559       -10.0018 
  49   2.0000      -0.366699        -9.9784 
  50   2.0000      -0.359685        -9.7875 
  51   2.0000      -0.359683        -9.7875 
  52   2.0000      -0.340667        -9.2700 
  53   2.0000      -0.329824        -8.9750 
  54   2.0000      -0.329823        -8.9750 
  55   2.0000      -0.317562        -8.6413 
  56   2.0000      -0.263503        -7.1703 
  57   2.0000      -0.263502        -7.1703 
  58   2.0000      -0.262501        -7.1430 
  59   2.0000      -0.232477        -6.3260 
  60   2.0000      -0.232475        -6.3260 
  61   2.0000      -0.217911        -5.9297 
  62   2.0000      -0.217909        -5.9296 
  63   2.0000      -0.208763        -5.6807 
  64   0.0000      -0.058876        -1.6021 
  65   0.0000      -0.058871        -1.6020 
  66   0.0000      -0.044354        -1.2069 
  67   0.0000      -0.001849        -0.0503 
  68   0.0000       0.012117         0.3297 
  69   0.0000       0.012120         0.3298 
  70   0.0000       0.041880         1.1396 
  71   0.0000       0.063210         1.7200 
  72   0.0000       0.066344         1.8053 
  73   0.0000       0.066348         1.8054 
  74   0.0000       0.077808         2.1173 
*Only the first 10 virtual orbitals were printed.

                    ********************************
                    * MULLIKEN POPULATION ANALYSIS *
                    ********************************

-----------------------
MULLIKEN ATOMIC CHARGES
-----------------------
   0 C :   -0.021823
   1 C :    0.112806
   2 O :   -0.166922
   3 C :    0.002912
   4 C :   -0.035933
   5 P :    0.558114
   6 O :   -0.439232
   7 C :    0.003132
   8 C :   -0.036088
   9 C :   -0.021835
  10 C :    0.112727
  11 O :   -0.166941
  12 C :    0.002953
  13 C :   -0.035989
  14 C :   -0.021781
  15 C :    0.112729
  16 O :   -0.166937
  17 H :    0.014848
  18 H :    0.027834
  19 H :    0.026645
  20 H :    0.026697
  21 H :    0.014878
  22 H :    0.027857
  23 H :    0.026632
  24 H :    0.014867
  25 H :    0.027851
Sum of atomic charges:   -0.0000000

--------------------------------
MULLIKEN REDUCED ORBITAL CHARGES
--------------------------------
  0 C s       :     3.190668  s :     3.190668
      pz      :     0.909598  p :     2.799060
      px      :     1.012696
      py      :     0.876767
      dz2     :     0.008834  d :     0.032095
      dxz     :     0.006327
      dyz     :     0.007572
      dx2y2   :     0.004530
      dxy     :     0.004833

  1 C s       :     3.172328  s :     3.172328
      pz      :     0.878737  p :     2.654501
      px      :     0.998935
      py      :     0.776830
      dz2     :     0.013494  d :     0.060365
      dxz     :     0.006838
      dyz     :     0.016154
      dx2y2   :     0.011974
      dxy     :     0.011906

  2 O s       :     3.734650  s :     3.734650
      pz      :     1.498961  p :     4.412017
      px      :     1.588652
      py      :     1.324404
      dz2     :     0.005514  d :     0.020256
      dxz     :     0.003287
      dyz     :     0.004412
      dx2y2   :     0.003279
      dxy     :     0.003764

  3 C s       :     3.088694  s :     3.088694
      pz      :     0.780192  p :     2.849067
      px      :     1.096113
      py      :     0.972761
      dz2     :     0.018176  d :     0.059326
      dxz     :     0.011781
      dyz     :     0.017676
      dx2y2   :     0.005882
      dxy     :     0.005812

  4 C s       :     3.258869  s :     3.258869
      pz      :     0.837104  p :     2.744444
      px      :     0.984621
      py      :     0.922719
      dz2     :     0.007254  d :     0.032619
      dxz     :     0.004690
      dyz     :     0.010066
      dx2y2   :     0.005402
      dxy     :     0.005207

  5 P s       :     5.177904  s :     5.177904
      pz      :     2.839882  p :     8.722837
      px      :     2.938676
      py      :     2.944279
      dz2     :     0.097495  d :     0.541146
      dxz     :     0.148955
      dyz     :     0.124258
      dx2y2   :     0.074688
      dxy     :     0.095750

  6 O s       :     3.809556  s :     3.809556
      pz      :     1.336805  p :     4.617750
      px      :     1.632012
      py      :     1.648933
      dz2     :     0.004772  d :     0.011926
      dxz     :     0.003434
      dyz     :     0.003209
      dx2y2   :     0.000259
      dxy     :     0.000252

  7 C s       :     3.088643  s :     3.088643
      pz      :     0.866815  p :     2.848900
      px      :     0.969920
      py      :     1.012165
      dz2     :     0.015280  d :     0.059324
      dxz     :     0.015412
      dyz     :     0.009860
      dx2y2   :     0.008341
      dxy     :     0.010431

  8 C s       :     3.258809  s :     3.258809
      pz      :     0.880693  p :     2.744660
      px      :     0.919748
      py      :     0.944218
      dz2     :     0.005549  d :     0.032619
      dxz     :     0.006705
      dyz     :     0.007282
      dx2y2   :     0.007884
      dxy     :     0.005200

  9 C s       :     3.190651  s :     3.190651
      pz      :     0.955865  p :     2.799089
      px      :     0.966324
      py      :     0.876900
      dz2     :     0.007814  d :     0.032095
      dxz     :     0.004679
      dyz     :     0.007064
      dx2y2   :     0.005361
      dxy     :     0.007177

 10 C s       :     3.172344  s :     3.172344
      pz      :     0.927334  p :     2.654566
      px      :     0.897990
      py      :     0.829242
      dz2     :     0.011343  d :     0.060363
      dxz     :     0.010152
      dyz     :     0.009922
      dx2y2   :     0.012768
      dxy     :     0.016177

 11 O s       :     3.734645  s :     3.734645
      pz      :     1.511245  p :     4.412040
      px      :     1.391808
      py      :     1.508987
      dz2     :     0.004590  d :     0.020256
      dxz     :     0.003678
      dyz     :     0.003778
      dx2y2   :     0.004397
      dxy     :     0.003814

 12 C s       :     3.088683  s :     3.088683
      pz      :     0.774155  p :     2.849038
      px      :     0.979128
      py      :     1.095756
      dz2     :     0.020150  d :     0.059326
      dxz     :     0.015710
      dyz     :     0.011497
      dx2y2   :     0.005994
      dxy     :     0.005974

 13 C s       :     3.258876  s :     3.258876
      pz      :     0.829176  p :     2.744494
      px      :     0.930789
      py      :     0.984529
      dz2     :     0.008531  d :     0.032619
      dxz     :     0.008734
      dyz     :     0.004160
      dx2y2   :     0.004675
      dxy     :     0.006519

 14 C s       :     3.190630  s :     3.190630
      pz      :     0.934913  p :     2.799056
      px      :     0.819453
      py      :     1.044690
      dz2     :     0.007020  d :     0.032095
      dxz     :     0.010409
      dyz     :     0.005496
      dx2y2   :     0.005104
      dxy     :     0.004068

 15 C s       :     3.172341  s :     3.172341
      pz      :     0.861193  p :     2.654565
      px      :     0.751802
      py      :     1.041570
      dz2     :     0.014157  d :     0.060365
      dxz     :     0.016540
      dyz     :     0.004599
      dx2y2   :     0.012863
      dxy     :     0.012207

 16 O s       :     3.734657  s :     3.734657
      pz      :     1.350750  p :     4.412025
      px      :     1.454958
      py      :     1.606317
      dz2     :     0.005569  d :     0.020255
      dxz     :     0.003926
      dyz     :     0.003569
      dx2y2   :     0.003828
      dxy     :     0.003363

 17 H s       :     0.962036  s :     0.962036
      pz      :     0.005140  p :     0.023116
      px      :     0.007000
      py      :     0.010976

 18 H s       :     0.949694  s :     0.949694
      pz      :     0.010900  p :     0.022472
      px      :     0.005371
      py      :     0.006201

 19 H s       :     0.950330  s :     0.950330
      pz      :     0.013994  p :     0.023025
      px      :     0.004823
      py      :     0.004208

 20 H s       :     0.950279  s :     0.950279
      pz      :     0.011697  p :     0.023024
      px      :     0.006616
      py      :     0.004710

 21 H s       :     0.962006  s :     0.962006
      pz      :     0.004764  p :     0.023116
      px      :     0.006469
      py      :     0.011883

 22 H s       :     0.949672  s :     0.949672
      pz      :     0.010224  p :     0.022471
      px      :     0.009149
      py      :     0.003098

 23 H s       :     0.950343  s :     0.950343
      pz      :     0.013082  p :     0.023025
      px      :     0.004370
      py      :     0.005573

 24 H s       :     0.962017  s :     0.962017
      pz      :     0.003756  p :     0.023116
      px      :     0.013979
      py      :     0.005380

 25 H s       :     0.949677  s :     0.949677
      pz      :     0.013646  p :     0.022471
      px      :     0.002316
      py      :     0.006509



                     *******************************
                     * LOEWDIN POPULATION ANALYSIS *
                     *******************************

----------------------
LOEWDIN ATOMIC CHARGES
----------------------
   0 C :   -0.076957
   1 C :    0.036640
   2 O :    0.025126
   3 C :   -0.159632
   4 C :   -0.044116
   5 P :    0.820151
   6 O :   -0.481087
   7 C :   -0.159605
   8 C :   -0.044143
   9 C :   -0.076959
  10 C :    0.036630
  11 O :    0.025120
  12 C :   -0.159615
  13 C :   -0.044118
  14 C :   -0.076952
  15 C :    0.036625
  16 O :    0.025120
  17 H :    0.036545
  18 H :    0.026790
  19 H :    0.042581
  20 H :    0.042590
  21 H :    0.036550
  22 H :    0.026794
  23 H :    0.042578
  24 H :    0.036550
  25 H :    0.026794

-------------------------------
LOEWDIN REDUCED ORBITAL CHARGES
-------------------------------
  0 C s       :     2.869334  s :     2.869334
      pz      :     1.053410  p :     3.118944
      px      :     1.030884
      py      :     1.034650
      dz2     :     0.027408  d :     0.088679
      dxz     :     0.016249
      dyz     :     0.024338
      dx2y2   :     0.009989
      dxy     :     0.010694

  1 C s       :     2.881243  s :     2.881243
      pz      :     1.065695  p :     2.943592
      px      :     1.006618
      py      :     0.871279
      dz2     :     0.035447  d :     0.138525
      dxz     :     0.014987
      dyz     :     0.037491
      dx2y2   :     0.025140
      dxy     :     0.025460

  2 O s       :     3.441255  s :     3.441255
      pz      :     1.536885  p :     4.495207
      px      :     1.580549
      py      :     1.377772
      dz2     :     0.010587  d :     0.038413
      dxz     :     0.004784
      dyz     :     0.008874
      dx2y2   :     0.006560
      dxy     :     0.007609

  3 C s       :     2.921790  s :     2.921790
      pz      :     0.907286  p :     3.099973
      px      :     1.109524
      py      :     1.083163
      dz2     :     0.043317  d :     0.137869
      dxz     :     0.026009
      dyz     :     0.045349
      dx2y2   :     0.011444
      dxy     :     0.011749

  4 C s       :     2.874214  s :     2.874214
      pz      :     1.051277  p :     3.080438
      px      :     0.996009
      py      :     1.033153
      dz2     :     0.020337  d :     0.089465
      dxz     :     0.010949
      dyz     :     0.030853
      dx2y2   :     0.013851
      dxy     :     0.013474

  5 P s       :     4.887281  s :     4.887281
      pz      :     2.787542  p :     8.522802
      px      :     2.865402
      py      :     2.869858
      dz2     :     0.145513  d :     0.769765
      dxz     :     0.213327
      dyz     :     0.161612
      dx2y2   :     0.104171
      dxy     :     0.145142

  6 O s       :     3.662188  s :     3.662188
      pz      :     1.461330  p :     4.800528
      px      :     1.663797
      py      :     1.675401
      dz2     :     0.009373  d :     0.018371
      dxz     :     0.004634
      dyz     :     0.003746
      dx2y2   :     0.000338
      dxy     :     0.000281

  7 C s       :     2.921788  s :     2.921788
      pz      :     0.956029  p :     3.099950
      px      :     1.031917
      py      :     1.112004
      dz2     :     0.033689  d :     0.137867
      dxz     :     0.036196
      dyz     :     0.025363
      dx2y2   :     0.019694
      dxy     :     0.022924

  8 C s       :     2.874213  s :     2.874213
      pz      :     1.031186  p :     3.080467
      px      :     1.016145
      py      :     1.033137
      dz2     :     0.013343  d :     0.089463
      dxz     :     0.017551
      dyz     :     0.022087
      dx2y2   :     0.021266
      dxy     :     0.015216

  9 C s       :     2.869336  s :     2.869336
      pz      :     1.045727  p :     3.118944
      px      :     1.035248
      py      :     1.037970
      dz2     :     0.020451  d :     0.088678
      dxz     :     0.013794
      dyz     :     0.022306
      dx2y2   :     0.013396
      dxy     :     0.018731

 10 C s       :     2.881246  s :     2.881246
      pz      :     1.059597  p :     2.943600
      px      :     0.973070
      py      :     0.910933
      dz2     :     0.026399  d :     0.138523
      dxz     :     0.021884
      dyz     :     0.025206
      dx2y2   :     0.027658
      dxy     :     0.037376

 11 O s       :     3.441252  s :     3.441252
      pz      :     1.533364  p :     4.495215
      px      :     1.420434
      py      :     1.541417
      dz2     :     0.008529  d :     0.038413
      dxz     :     0.007761
      dyz     :     0.005933
      dx2y2   :     0.008144
      dxy     :     0.008046

 12 C s       :     2.921791  s :     2.921791
      pz      :     0.892244  p :     3.099957
      px      :     1.116341
      py      :     1.091372
      dz2     :     0.048226  d :     0.137867
      dxz     :     0.038019
      dyz     :     0.024145
      dx2y2   :     0.015670
      dxy     :     0.011807

 13 C s       :     2.874213  s :     2.874213
      pz      :     1.040412  p :     3.080441
      px      :     1.048868
      py      :     0.991160
      dz2     :     0.023079  d :     0.089464
      dxz     :     0.028566
      dyz     :     0.007988
      dx2y2   :     0.014314
      dxy     :     0.015516

 14 C s       :     2.869334  s :     2.869334
      pz      :     1.047992  p :     3.118939
      px      :     1.039899
      py      :     1.031047
      dz2     :     0.020862  d :     0.088679
      dxz     :     0.033968
      dyz     :     0.013202
      dx2y2   :     0.012883
      dxy     :     0.007764

 15 C s       :     2.881243  s :     2.881243
      pz      :     1.040245  p :     2.943608
      px      :     0.862210
      py      :     1.041153
      dz2     :     0.032650  d :     0.138524
      dxz     :     0.041926
      dyz     :     0.008171
      dx2y2   :     0.030100
      dxy     :     0.025677

 16 O s       :     3.441257  s :     3.441257
      pz      :     1.400130  p :     4.495210
      px      :     1.505603
      py      :     1.589478
      dz2     :     0.012001  d :     0.038413
      dxz     :     0.007771
      dyz     :     0.006653
      dx2y2   :     0.007029
      dxy     :     0.004959

 17 H s       :     0.892872  s :     0.892872
      pz      :     0.016033  p :     0.070583
      px      :     0.020830
      py      :     0.033720

 18 H s       :     0.901264  s :     0.901264
      pz      :     0.035370  p :     0.071945
      px      :     0.016320
      py      :     0.020255

 19 H s       :     0.885847  s :     0.885847
      pz      :     0.043550  p :     0.071572
      px      :     0.014360
      py      :     0.013663

 20 H s       :     0.885837  s :     0.885837
      pz      :     0.035999  p :     0.071573
      px      :     0.020738
      py      :     0.014836

 21 H s       :     0.892867  s :     0.892867
      pz      :     0.014652  p :     0.070583
      px      :     0.019826
      py      :     0.036104

 22 H s       :     0.901260  s :     0.901260
      pz      :     0.032588  p :     0.071945
      px      :     0.028793
      py      :     0.010564

 23 H s       :     0.885849  s :     0.885849
      pz      :     0.040814  p :     0.071573
      px      :     0.014119
      py      :     0.016640

 24 H s       :     0.892868  s :     0.892868
      pz      :     0.012063  p :     0.070583
      px      :     0.042681
      py      :     0.015838

 25 H s       :     0.901261  s :     0.901261
      pz      :     0.043707  p :     0.071945
      px      :     0.008632
      py      :     0.019607



                      *****************************
                      * MAYER POPULATION ANALYSIS *
                      *****************************

  NA   - Mulliken gross atomic population
  ZA   - Total nuclear charge
  QA   - Mulliken gross atomic charge
  VA   - Mayer's total valence
  BVA  - Mayer's bonded valence
  FA   - Mayer's free valence

  ATOM       NA         ZA         QA         VA         BVA        FA
  0 C      6.0218     6.0000    -0.0218     3.7661     3.7661    -0.0000
  1 C      5.8872     6.0000     0.1128     3.8074     3.8074    -0.0000
  2 O      8.1669     8.0000    -0.1669     2.4450     2.4450    -0.0000
  3 C      5.9971     6.0000     0.0029     3.6913     3.6913    -0.0000
  4 C      6.0359     6.0000    -0.0359     3.8951     3.8951    -0.0000
  5 P     14.4419    15.0000     0.5581     4.9145     4.9145    -0.0000
  6 O      8.4392     8.0000    -0.4392     2.1711     2.1711    -0.0000
  7 C      5.9969     6.0000     0.0031     3.6912     3.6912    -0.0000
  8 C      6.0361     6.0000    -0.0361     3.8952     3.8952    -0.0000
  9 C      6.0218     6.0000    -0.0218     3.7662     3.7662    -0.0000
 10 C      5.8873     6.0000     0.1127     3.8074     3.8074    -0.0000
 11 O      8.1669     8.0000    -0.1669     2.4450     2.4450    -0.0000
 12 C      5.9970     6.0000     0.0030     3.6913     3.6913    -0.0000
 13 C      6.0360     6.0000    -0.0360     3.8952     3.8952    -0.0000
 14 C      6.0218     6.0000    -0.0218     3.7661     3.7661    -0.0000
 15 C      5.8873     6.0000     0.1127     3.8074     3.8074    -0.0000
 16 O      8.1669     8.0000    -0.1669     2.4450     2.4450    -0.0000
 17 H      0.9852     1.0000     0.0148     0.9904     0.9904    -0.0000
 18 H      0.9722     1.0000     0.0278     0.9968     0.9968    -0.0000
 19 H      0.9734     1.0000     0.0266     1.0072     1.0072    -0.0000
 20 H      0.9733     1.0000     0.0267     1.0072     1.0072    -0.0000
 21 H      0.9851     1.0000     0.0149     0.9904     0.9904    -0.0000
 22 H      0.9721     1.0000     0.0279     0.9968     0.9968    -0.0000
 23 H      0.9734     1.0000     0.0266     1.0072     1.0072    -0.0000
 24 H      0.9851     1.0000     0.0149     0.9904     0.9904    -0.0000
 25 H      0.9721     1.0000     0.0279     0.9969     0.9969    -0.0000

  Mayer bond orders larger than 0.100000
B(  0-C ,  1-C ) :   1.4916 B(  0-C ,  4-C ) :   1.2434 B(  0-C , 17-H ) :   0.9983 
B(  1-C ,  2-O ) :   1.1653 B(  1-C ,  3-C ) :   0.1129 B(  1-C , 18-H ) :   0.9952 
B(  2-O ,  3-C ) :   1.1232 B(  3-C ,  4-C ) :   1.5061 B(  3-C ,  5-P ) :   0.9055 
B(  4-C , 19-H ) :   1.0047 B(  5-P ,  6-O ) :   1.9817 B(  5-P ,  7-C ) :   0.9054 
B(  5-P , 12-C ) :   0.9054 B(  7-C ,  8-C ) :   1.5061 B(  7-C , 10-C ) :   0.1129 
B(  7-C , 11-O ) :   1.1232 B(  8-C ,  9-C ) :   1.2435 B(  8-C , 20-H ) :   1.0047 
B(  9-C , 10-C ) :   1.4916 B(  9-C , 21-H ) :   0.9983 B( 10-C , 11-O ) :   1.1654 
B( 10-C , 22-H ) :   0.9952 B( 12-C , 13-C ) :   1.5061 B( 12-C , 15-C ) :   0.1129 
B( 12-C , 16-O ) :   1.1232 B( 13-C , 14-C ) :   1.2434 B( 13-C , 23-H ) :   1.0047 
B( 14-C , 15-C ) :   1.4916 B( 14-C , 24-H ) :   0.9983 B( 15-C , 16-O ) :   1.1653 
B( 15-C , 25-H ) :   0.9952 

-------
TIMINGS
-------

Total SCF time: 0 days 0 hours 0 min 9 sec 

Total time                  ....       9.357 sec
Sum of individual times     ....       9.288 sec  ( 99.3%)

SCF preparation             ....       0.086 sec  (  0.9%)
Fock matrix formation       ....       8.408 sec  ( 89.9%)
  Startup                   ....       0.046 sec  (  0.5% of F)
  Split-RI-J                ....       2.864 sec  ( 34.1% of F)
  XC integration            ....       5.292 sec  ( 62.9% of F)
    Basis function eval.    ....       1.533 sec  ( 29.0% of XC)
    Density eval.           ....       1.346 sec  ( 25.4% of XC)
    XC-Functional eval.     ....       0.168 sec  (  3.2% of XC)
    XC-Potential eval.      ....       1.115 sec  ( 21.1% of XC)
Diagonalization             ....       0.000 sec  (  0.0%)
Density matrix formation    ....       0.123 sec  (  1.3%)
Total Energy calculation    ....       0.051 sec  (  0.5%)
Population analysis         ....       0.046 sec  (  0.5%)
Orbital Transformation      ....       0.046 sec  (  0.5%)
Orbital Orthonormalization  ....       0.000 sec  (  0.0%)
DIIS solution               ....       0.274 sec  (  2.9%)
SOSCF solution              ....       0.254 sec  (  2.7%)
Finished LeanSCF after   9.4 sec

Maximum memory used throughout the entire LEANSCF-calculation: 27.0 MB


-------------------------------------------------------------------------------
                          DFT DISPERSION CORRECTION                            
                                                                               
                              DFTD3 V3.1  Rev 1                                
                          USING Becke-Johnson damping                          
-------------------------------------------------------------------------------
The BP86 functional is recognized
Active option DFTDOPT                   ...         4   

molecular C6(AA) [au] = 9923.137679 


            DFT-D V3
 parameters
 s6 scaling factor         :     1.0000 
 a1 scaling factor         :     0.3946 
 s8 scaling factor         :     3.2822 
 a2 scaling factor         :     4.8516 
 ad hoc parameters k1-k3   :    16.0000     1.3333    -4.0000 

 Edisp/kcal,au: -33.831027232365  -0.053913167883 
 E6   /kcal   : -12.067444183 
 E8   /kcal   : -21.763583049 
 % E8         :  64.330246019 

-------------------------   ----------------
Dispersion correction           -0.053913168
-------------------------   ----------------


-------------------------   --------------------
FINAL SINGLE POINT ENERGY     -1104.314786745678
-------------------------   --------------------



           ************************************************************
           *        Program running with 6 parallel MPI-processes     *
           *              working on a common directory               *
           ************************************************************
------------------------------------------------------------------------------
                         ORCA SCF GRADIENT CALCULATION
------------------------------------------------------------------------------

Nuc. rep. gradient        (SHARK) ... done (  0.0 sec)
HCore & Overlap gradient  (SHARK) ... done (  0.1 sec)
Split-RIJ-J gradient      (SHARK) ... done (  0.7 sec)
XC gradient                       ... done (  2.9 sec)
Dispersion correction             ... done (  0.1 sec)

-------------------
DISPERSION GRADIENT
-------------------

   1   C   :    0.000198301   -0.000367900    0.000113276
   2   C   :    0.000274370   -0.001156399   -0.001471813
   3   O   :   -0.000248850    0.000613907   -0.000032876
   4   C   :   -0.001016495    0.002704111    0.000560366
   5   C   :   -0.000047075    0.000645121    0.000936618
   6   P   :    0.000207077   -0.000071905   -0.000837367
   7   O   :    0.000145275   -0.000050444   -0.000587434
   8   C   :   -0.002079330   -0.001961713    0.000698185
   9   C   :   -0.000797980   -0.000046957    0.000810350
  10   C   :    0.000205888    0.000377488    0.000051143
  11   C   :    0.001294719    0.000305544   -0.001345011
  12   O   :   -0.000420521   -0.000512441    0.000021390
  13   C   :    0.002370949   -0.000490698    0.001672405
  14   C   :    0.000148205   -0.000356173    0.001070868
  15   C   :   -0.000426843   -0.000001713   -0.000072768
  16   C   :   -0.000431098    0.000455684   -0.001784648
  17   O   :    0.000612863   -0.000081848    0.000239977
  18   H   :   -0.000076517    0.000160883   -0.000049002
  19   H   :   -0.000033357    0.000132035    0.000133580
  20   H   :   -0.000094271    0.000190726   -0.000191789
  21   H   :   -0.000073650   -0.000232412   -0.000150353
  22   H   :   -0.000094407   -0.000156660   -0.000026158
  23   H   :   -0.000137503   -0.000047824    0.000123269
  24   H   :    0.000273524    0.000005017   -0.000084887
  25   H   :    0.000182216   -0.000008146    0.000029498
  26   H   :    0.000064512   -0.000047283    0.000173181

Difference to translation invariance:
           :    0.0000000000    0.0000000000    0.0000000000

Difference to rotation invariance:
           :   -0.0000000000   -0.0000000000    0.0000000000

Norm of the Dispersion gradient    ...    0.0066376715
RMS gradient                       ...    0.0007515683
MAX gradient                       ...    0.0027041112

------------------
CARTESIAN GRADIENT
------------------

   1   C   :    0.000762793   -0.003387464   -0.006456596
   2   C   :   -0.000710029    0.002076109    0.001263448
   3   O   :   -0.002254482    0.004658313   -0.006011875
   4   C   :    0.011752839   -0.024541079   -0.000193321
   5   C   :   -0.001814971    0.004871156    0.001741630
   6   P   :   -0.006602125    0.002306533    0.026565359
   7   O   :   -0.000500674    0.000170555    0.002059482
   8   C   :    0.016486962    0.021444381   -0.003002392
   9   C   :   -0.003933851   -0.003236732    0.001915909
  10   C   :    0.004400149    0.000182647   -0.005854275
  11   C   :   -0.001833238   -0.001193574    0.001245487
  12   O   :   -0.001475778   -0.006088238   -0.004863432
  13   C   :   -0.024616940    0.001843572   -0.011451796
  14   C   :    0.003966708   -0.000968167    0.003663066
  15   C   :   -0.000340414    0.001557792   -0.007146755
[...]
      dxz     :     0.029112
      dyz     :     0.036983
      dx2y2   :     0.011461
      dxy     :     0.011622

  4 C s       :     2.882656  s :     2.882656
      pz      :     1.046610  p :     3.086445
      px      :     1.003463
      py      :     1.036372
      dz2     :     0.019116  d :     0.086284
      dxz     :     0.010266
      dyz     :     0.029990
      dx2y2   :     0.013558
      dxy     :     0.013354

  5 P s       :     4.929943  s :     4.929943
      pz      :     2.778049  p :     8.511123
      px      :     2.864083
      py      :     2.868991
      dz2     :     0.131231  d :     0.713822
      dxz     :     0.206139
      dyz     :     0.157760
      dx2y2   :     0.087693
      dxy     :     0.130998

  6 O s       :     3.662728  s :     3.662728
      pz      :     1.464157  p :     4.794714
      px      :     1.659766
      py      :     1.670791
      dz2     :     0.009583  d :     0.018842
      dxz     :     0.004787
      dyz     :     0.003865
      dx2y2   :     0.000329
      dxy     :     0.000278

  7 C s       :     2.937348  s :     2.937348
      pz      :     0.889482  p :     3.082318
      px      :     1.083466
      py      :     1.109370
      dz2     :     0.046460  d :     0.134724
      dxz     :     0.033996
      dyz     :     0.029844
      dx2y2   :     0.009313
      dxy     :     0.015111

  8 C s       :     2.882660  s :     2.882660
      pz      :     1.043813  p :     3.086438
      px      :     1.014613
      py      :     1.028013
      dz2     :     0.019093  d :     0.086282
      dxz     :     0.017906
      dyz     :     0.021436
      dx2y2   :     0.015814
      dxy     :     0.012034

  9 C s       :     2.879083  s :     2.879083
      pz      :     1.048749  p :     3.115833
      px      :     1.031881
      py      :     1.035203
      dz2     :     0.023089  d :     0.085325
      dxz     :     0.018027
      dyz     :     0.024348
      dx2y2   :     0.007139
      dxy     :     0.012722

 10 C s       :     2.888137  s :     2.888137
      pz      :     1.064468  p :     2.943782
      px      :     0.953668
      py      :     0.925647
      dz2     :     0.034383  d :     0.135288
      dxz     :     0.022091
      dyz     :     0.024487
      dx2y2   :     0.022697
      dxy     :     0.031630

 11 O s       :     3.448434  s :     3.448434
      pz      :     1.484375  p :     4.496444
      px      :     1.482048
      py      :     1.530021
      dz2     :     0.011739  d :     0.037609
      dxz     :     0.006284
      dyz     :     0.006071
      dx2y2   :     0.006280
      dxy     :     0.007234

 12 C s       :     2.937364  s :     2.937364
      pz      :     0.871048  p :     3.082306
      px      :     1.109598
      py      :     1.101660
      dz2     :     0.051002  d :     0.134724
      dxz     :     0.038485
      dyz     :     0.021009
      dx2y2   :     0.013362
      dxy     :     0.010865

 13 C s       :     2.882664  s :     2.882664
      pz      :     1.037706  p :     3.086445
      px      :     1.049225
      py      :     0.999514
      dz2     :     0.025268  d :     0.086278
      dxz     :     0.026540
      dyz     :     0.007046
      dx2y2   :     0.013553
      dxy     :     0.013871

 14 C s       :     2.879085  s :     2.879085
      pz      :     1.042764  p :     3.115828
      px      :     1.039105
      py      :     1.033960
      dz2     :     0.019936  d :     0.085325
      dxz     :     0.034535
      dyz     :     0.013833
      dx2y2   :     0.010683
      dxy     :     0.006338

 15 C s       :     2.888123  s :     2.888123
      pz      :     1.027637  p :     2.943793
      px      :     0.875305
      py      :     1.040851
      dz2     :     0.033172  d :     0.135303
      dxz     :     0.043759
      dyz     :     0.007178
      dx2y2   :     0.026937
      dxy     :     0.024258

 16 O s       :     3.448411  s :     3.448411
      pz      :     1.360775  p :     4.496469
      px      :     1.527411
      py      :     1.608282
      dz2     :     0.011862  d :     0.037612
      dxz     :     0.008687
      dyz     :     0.006751
      dx2y2   :     0.005875
      dxy     :     0.004438

 17 H s       :     0.891947  s :     0.891947
      pz      :     0.013497  p :     0.068249
      px      :     0.017367
      py      :     0.037386

 18 H s       :     0.899469  s :     0.899469
      pz      :     0.037039  p :     0.069796
      px      :     0.019334
      py      :     0.013423

 19 H s       :     0.884470  s :     0.884470
      pz      :     0.042714  p :     0.069304
      px      :     0.015329
      py      :     0.011261

 20 H s       :     0.884473  s :     0.884473
      pz      :     0.042385  p :     0.069300
      px      :     0.013980
      py      :     0.012935

 21 H s       :     0.891948  s :     0.891948
      pz      :     0.012432  p :     0.068250
      px      :     0.024131
      py      :     0.031687

 22 H s       :     0.899464  s :     0.899464
      pz      :     0.038661  p :     0.069796
      px      :     0.019104
      py      :     0.012031

 23 H s       :     0.884473  s :     0.884473
      pz      :     0.040429  p :     0.069298
      px      :     0.014240
      py      :     0.014629

 24 H s       :     0.891949  s :     0.891949
      pz      :     0.011256  p :     0.068250
      px      :     0.040958
      py      :     0.016036

 25 H s       :     0.899469  s :     0.899469
      pz      :     0.045167  p :     0.069795
      px      :     0.007999
      py      :     0.016630



                      *****************************
                      * MAYER POPULATION ANALYSIS *
                      *****************************

  NA   - Mulliken gross atomic population
  ZA   - Total nuclear charge
  QA   - Mulliken gross atomic charge
  VA   - Mayer's total valence
  BVA  - Mayer's bonded valence
  FA   - Mayer's free valence

  ATOM       NA         ZA         QA         VA         BVA        FA
  0 C      6.0379     6.0000    -0.0379     3.7729     3.7729    -0.0000
  1 C      5.8927     6.0000     0.1073     3.8067     3.8067    -0.0000
  2 O      8.1721     8.0000    -0.1721     2.4314     2.4314    -0.0000
  3 C      6.0051     6.0000    -0.0051     3.6924     3.6924    -0.0000
  4 C      6.0491     6.0000    -0.0491     3.8946     3.8946    -0.0000
  5 P     14.3688    15.0000     0.6312     4.7448     4.7448    -0.0000
  6 O      8.4358     8.0000    -0.4358     2.1754     2.1754    -0.0000
  7 C      6.0052     6.0000    -0.0052     3.6924     3.6924    -0.0000
  8 C      6.0492     6.0000    -0.0492     3.8948     3.8948    -0.0000
  9 C      6.0379     6.0000    -0.0379     3.7730     3.7730    -0.0000
 10 C      5.8927     6.0000     0.1073     3.8067     3.8067    -0.0000
 11 O      8.1721     8.0000    -0.1721     2.4315     2.4315    -0.0000
 12 C      6.0050     6.0000    -0.0050     3.6923     3.6923    -0.0000
 13 C      6.0493     6.0000    -0.0493     3.8947     3.8947    -0.0000
 14 C      6.0379     6.0000    -0.0379     3.7731     3.7731    -0.0000
 15 C      5.8927     6.0000     0.1073     3.8067     3.8067    -0.0000
 16 O      8.1721     8.0000    -0.1721     2.4315     2.4315    -0.0000
 17 H      0.9760     1.0000     0.0240     0.9900     0.9900    -0.0000
 18 H      0.9639     1.0000     0.0361     0.9956     0.9956    -0.0000
 19 H      0.9682     1.0000     0.0318     1.0033     1.0033     0.0000
 20 H      0.9682     1.0000     0.0318     1.0033     1.0033    -0.0000
 21 H      0.9760     1.0000     0.0240     0.9900     0.9900    -0.0000
 22 H      0.9638     1.0000     0.0362     0.9956     0.9956     0.0000
 23 H      0.9682     1.0000     0.0318     1.0033     1.0033     0.0000
 24 H      0.9760     1.0000     0.0240     0.9900     0.9900    -0.0000
 25 H      0.9639     1.0000     0.0361     0.9956     0.9956    -0.0000

  Mayer bond orders larger than 0.100000
B(  0-C ,  1-C ) :   1.5120 B(  0-C ,  4-C ) :   1.2257 B(  0-C , 17-H ) :   0.9917 
B(  1-C ,  2-O ) :   1.1544 B(  1-C ,  3-C ) :   0.1100 B(  1-C , 18-H ) :   0.9912 
B(  2-O ,  3-C ) :   1.1176 B(  3-C ,  4-C ) :   1.5379 B(  3-C ,  5-P ) :   0.8543 
B(  4-C , 19-H ) :   1.0021 B(  5-P ,  6-O ) :   1.9895 B(  5-P ,  7-C ) :   0.8542 
B(  5-P , 12-C ) :   0.8544 B(  7-C ,  8-C ) :   1.5380 B(  7-C , 10-C ) :   0.1100 
B(  7-C , 11-O ) :   1.1176 B(  8-C ,  9-C ) :   1.2258 B(  8-C , 20-H ) :   1.0021 
B(  9-C , 10-C ) :   1.5119 B(  9-C , 21-H ) :   0.9917 B( 10-C , 11-O ) :   1.1544 
B( 10-C , 22-H ) :   0.9912 B( 12-C , 13-C ) :   1.5379 B( 12-C , 15-C ) :   0.1100 
B( 12-C , 16-O ) :   1.1176 B( 13-C , 14-C ) :   1.2258 B( 13-C , 23-H ) :   1.0021 
B( 14-C , 15-C ) :   1.5119 B( 14-C , 24-H ) :   0.9917 B( 15-C , 16-O ) :   1.1545 
B( 15-C , 25-H ) :   0.9912 

-------
TIMINGS
-------

Total SCF time: 0 days 0 hours 0 min 3 sec 

Total time                  ....       3.173 sec
Sum of individual times     ....       3.107 sec  ( 97.9%)

SCF preparation             ....       0.102 sec  (  3.2%)
Fock matrix formation       ....       2.704 sec  ( 85.2%)
  Startup                   ....       0.018 sec  (  0.7% of F)
  Split-RI-J                ....       0.931 sec  ( 34.4% of F)
  XC integration            ....       1.692 sec  ( 62.6% of F)
    Basis function eval.    ....       0.502 sec  ( 29.7% of XC)
    Density eval.           ....       0.463 sec  ( 27.4% of XC)
    XC-Functional eval.     ....       0.054 sec  (  3.2% of XC)
    XC-Potential eval.      ....       0.373 sec  ( 22.0% of XC)
Diagonalization             ....       0.000 sec  (  0.0%)
Density matrix formation    ....       0.037 sec  (  1.2%)
Total Energy calculation    ....       0.015 sec  (  0.5%)
Population analysis         ....       0.078 sec  (  2.5%)
Orbital Transformation      ....       0.023 sec  (  0.7%)
Orbital Orthonormalization  ....       0.000 sec  (  0.0%)
DIIS solution               ....       0.029 sec  (  0.9%)
SOSCF solution              ....       0.119 sec  (  3.8%)
Finished LeanSCF after   3.2 sec

Maximum memory used throughout the entire LEANSCF-calculation: 28.2 MB


-------------------------------------------------------------------------------
                          DFT DISPERSION CORRECTION                            
                                                                               
                              DFTD3 V3.1  Rev 1                                
                          USING Becke-Johnson damping                          
-------------------------------------------------------------------------------
The BP86 functional is recognized
Active option DFTDOPT                   ...         4   

molecular C6(AA) [au] = 10005.133237 


            DFT-D V3
 parameters
 s6 scaling factor         :     1.0000 
 a1 scaling factor         :     0.3946 
 s8 scaling factor         :     3.2822 
 a2 scaling factor         :     4.8516 
 ad hoc parameters k1-k3   :    16.0000     1.3333    -4.0000 

 Edisp/kcal,au: -33.479294284088  -0.053352645811 
 E6   /kcal   : -11.954747253 
 E8   /kcal   : -21.524547031 
 % E8         :  64.292116938 

-------------------------   ----------------
Dispersion correction           -0.053352646
-------------------------   ----------------


-------------------------   --------------------
FINAL SINGLE POINT ENERGY     -1104.324862932172
-------------------------   --------------------

                                *** OPTIMIZATION RUN DONE ***



           ************************************************************
           *        Program running with 6 parallel MPI-processes     *
           *              working on a common directory               *
           ************************************************************

------------------------------------------------------------------------------
                              ORCA PROPERTY CALCULATIONS
------------------------------------------------------------------------------

GBWName                                 ... data/geom_opt_PO_BP86/521585/521585.gbw
Number of atoms                         ...     26
Number of basis functions               ...    287
Max core memory                         ...   1024 MB

Electric properties:
Dipole moment                           ... YES
Quadrupole moment                       ...  NO
Static polarizability (Dipole/Dipole)   ...  NO
Static polarizability (Dipole/Quad.)    ...  NO
Static polarizability (Quad./Quad.)     ...  NO
Static polarizability (Velocity)        ...  NO

Atomic electric properties:
Dipole moment                           ...  NO
Quadrupole moment                       ...  NO
Static polarizability                   ...  NO

Choice of electric origin               ... Center of mass
Position of electric origin             ...     0.036804    -0.012853    -0.132874

General magnetic properties:
Magnetizability                         ...  NO

EPR properties:
g-Tensor (aka g-matrix)                 ...  NO
Zero-Field splitting spin-orbit         ...  NO
Zero-field splitting spin-spin          ...  NO
Hyperfine couplings                     ...  NO (   0 nuclei)
Quadrupole couplings                    ...  NO (   0 nuclei)
Contact density                         ...  NO (   0 nuclei)

NMR properties:
Chemical shifts                         ...  NO (   0 nuclei)
Spin-rotation constants                 ...  NO (   0 nuclei)
Spin-spin couplings                     ...  NO (   0 nuclei,    0 pairs)

Choice of magnetic origin               ... GIAO
Position of magnetic origin             ...     0.000000     0.000000     0.000000

Properties with geometric perturbations:
SCF Hessian                             ...  NO
IR spectrum                             ...  NO
VCD spectrum                            ...  NO
X-ray spectroscopy properties:
SCF XES/XAS/RIXS spectra                ...  NO


-------------
DIPOLE MOMENT
-------------

Method             : SCF
Type of density    : Electron Density
Multiplicity       :   1
Irrep              :   0
Energy             : -1104.2715102863612628 Eh
Relativity type    : 
Basis              : AO
                                X                 Y                 Z
Electronic contribution:      0.161299269      -0.056694730      -0.666106483
Nuclear contribution   :     -0.442235313       0.154366183       1.805670799
                        -----------------------------------------
Total Dipole Moment    :     -0.280936044       0.097671454       1.139564316
                        -----------------------------------------
Magnitude (a.u.)       :      1.177740041
Magnitude (Debye)      :      2.993577280



--------------------
Rotational spectrum 
--------------------
 
Rotational constants in cm-1:             0.015038             0.015033             0.010342 
Rotational constants in MHz :           450.821835           450.688508           310.049212 

Dipole components along the rotational axes: 
x,y,z [a.u.] :    -0.000093    -0.000144     1.177740 
x,y,z [Debye]:    -0.000236    -0.000366     2.993577 

 

Dipole moment calculation done in   0.0 sec 

Maximum memory used throughout the entire PROP-calculation: 14.3 MB

--------------------------------
SUGGESTED CITATIONS FOR THIS RUN
--------------------------------

Below you find a list of papers that are relevant to this ORCA run
We neither can nor want to force you to cite these papers, but we appreciate if you do
You receive ORCA, which is the product of decades of hard work by many enthusiastic individuals, for free
The only thing we kindly ask in return is that you cite our papers,
We deeply appreciate it, if you show your appreciation for ORCA by not just citing the generic ORCA reference.

Please note that relegating all ORCA citations to the supporting information does *not* help us.
SI sections are not indexed - citations you put there will not count into any citation statistics
But we need these citations in order to attract the funding resources that allow us to do what we are doing

Therefore, if you are a happy ORCA user, please consider citing a few of the papers listed below in the main body of your paper

In addition to the list printed below, the program has created the file data/geom_opt_PO_BP86/521585/521585.bibtex that contains the list in bibtex format
You can import this file easily into all common literature databanks and citation aid programs


List of essential papers. We consider these as the minimum necessary citations

  1. Neese,F.
     Software update: the ORCA program system, version 5.0
     WIRES Comput. Molec. Sci., 2022 12(1)e1606
     doi.org/10.1002/wcms.1606

List of papers to cite with high priority. The work reported in these papers was absolutely
necessary for this run to complete.
Our perspective: the developers of density functionals and basis sets usually get cited in chemistry papers
Good! But without the algorithms to do something with them, the functionals or basis sets would not do anything.
Hence, in our opinion, the algorithm design and method developments papers are equally worthy of getting cited

  1. Neese,F.
     An improvement of the resolution of the identity approximation for the formation of the Coulomb matrix
     J. Comp. Chem., 2003 24(14)1740-1747
     doi.org/10.1002/jcc.10318
  2. Neese,F.
     The SHARK Integral Generation and Digestion System
     J. Comp. Chem., 2022  1-16
     doi.org/10.1002/jcc.26942
  3. Grimme,S.; Antony,J.; Ehrlich,S.; Krieg,H.
     A consistent and accurate ab initio parametrization of density functional dispersion correction (DFT-D) for the 94 elements H-Pu
     J. Chem. Phys., 2010 132 154104-XXXX
     doi.org/10.1063/1.3382344
  4. Grimme,S.; Ehrlich,S.; Goerigk,L.
     Effect of the damping function in dispersion corrected density functional theory
     J. Comput. Chem., 2011 32(7)1456-1465
     doi.org/10.1002/jcc.21759

List of suggested additional citations. These are papers that are important in the 'surrounding' of 
of this run, or papers that preceded the highly important papers. If you like your results we are grateful for a citation.

  1. Neese,F.
     The ORCA program system
     WIRES Comput. Molec. Sci., 2012 2(1)73-78
     doi.org/10.1002/wcms.81
  2. Neese,F.
     Software update: the ORCA program system, version 4.0
     WIRES Comput. Molec. Sci., 2018 8(1)1-6
     doi.org/10.1002/wcms.1327
  3. Neese,F.; Wennmohs,F.; Becker,U.; Riplinger,C.
     The ORCA quantum chemistry program package
     J. Chem. Phys., 2020 152 Art. No. L224108
     doi.org/10.1063/5.0004608

List of optional additional citations

  1. Neese,F.
     Approximate second-order SCF convergence for spin unrestricted wavefunctions
     Chem. Phys. Lett., 2000 325(1-3)93-98
     doi.org/10.1016/s0009-2614(00)00662-x

Timings for individual modules:

Sum of individual times          ...      160.528 sec (=   2.675 min)
Startup calculation              ...       15.857 sec (=   0.264 min)   9.9 %
SCF iterations                   ...       95.122 sec (=   1.585 min)  59.3 %
Property calculations            ...        0.168 sec (=   0.003 min)   0.1 %
SCF Gradient evaluation          ...       49.219 sec (=   0.820 min)  30.7 %
Geometry relaxation              ...        0.162 sec (=   0.003 min)   0.1 %
                             ****ORCA TERMINATED NORMALLY****
TOTAL RUN TIME: 0 days 0 hours 2 minutes 43 seconds 465 msec
