
                                 *****************
                                 * O   R   C   A *
                                 *****************

                                            #,                                       
                                            ###                                      
                                            ####                                     
                                            #####                                    
                                            ######                                   
                                           ########,                                 
                                     ,,################,,,,,                         
                               ,,#################################,,                 
                          ,,##########################################,,             
                       ,#########################################, ''#####,          
                    ,#############################################,,   '####,        
                  ,##################################################,,,,####,       
                ,###########''''           ''''###############################       
              ,#####''   ,,,,##########,,,,          '''####'''          '####       
            ,##' ,,,,###########################,,,                        '##       
           ' ,,###''''                  '''############,,,                           
         ,,##''                                '''############,,,,        ,,,,,,###''
      ,#''                                            '''#######################'''  
     '                                                          ''''####''''         
             ,#######,   #######,   ,#######,      ##                                
            ,#'     '#,  ##    ##  ,#'     '#,    #''#        ,####,   ,####,        
            ##       ##  ##   ,#'  ##            #'  '#       #'       #'  '#        
            ##       ##  #######   ##           ,######,      #####,   #    #        
            '#,     ,#'  ##    ##  '#,     ,#' ,#      #,     #,   #   #,  ,#        
             '#######'   ##     ##  '#######'  #'      '#     '####' # '####'        



                #########################################################
                #                        -***-                          #
                #          Department of theory and spectroscopy        #
                #                                                       #
                #                      Frank Neese                      #
                #                                                       #
                #     Directorship, Architecture, Infrastructure        #
                #                    SHARK, DRIVERS                     #
                #        Core code/Algorithms in most modules           #
                #                                                       #
                #        Max Planck Institute fuer Kohlenforschung      #
                #                Kaiser Wilhelm Platz 1                 #
                #                 D-45470 Muelheim/Ruhr                 #
                #                      Germany                          #
                #                                                       #
                #                  All rights reserved                  #
                #                        -***-                          #
                #########################################################


                         Program Version 6.0.0  -   RELEASE   -


 With contributions from (in alphabetic order):
   Daniel Aravena         : Magnetic Suceptibility
   Michael Atanasov       : Ab Initio Ligand Field Theory (pilot matlab implementation)
   Alexander A. Auer      : GIAO ZORA, VPT2 properties, NMR spectrum
   Ute Becker             : All parallelization in ORCA, NUMFREQ, NUMCALC
   Giovanni Bistoni       : ED, misc. LED, open-shell LED, HFLD
   Martin Brehm           : Molecular dynamics
   Dmytro Bykov           : pre 5.0 version of the SCF Hessian
   Marcos Casanova-Páez   : Triplet and SCS-CIS(D). UHF-(DLPNO)-IP/EA/STEOM-CCSD. UHF-CVS-IP/STEOM-CCSD
   Vijay G. Chilkuri      : MRCI spin determinant printing, contributions to CSF-ICE
   Pauline Colinet        : FMM embedding
   Dipayan Datta          : RHF DLPNO-CCSD density
   Achintya Kumar Dutta   : EOM-CC, STEOM-CC
   Nicolas Foglia         : Exact transition moments, OPA infrastructure, MCD improvements
   Dmitry Ganyushin       : Spin-Orbit,Spin-Spin,Magnetic field MRCI
   Miquel Garcia          : C-PCM and meta-GGA Hessian, CCSD/C-PCM, Gaussian charge scheme
   Tiago L. C. Gouveia    : GS-ROHF, GS-ROCIS
   Yang Guo               : DLPNO-NEVPT2, F12-NEVPT2, CIM, IAO-localization
   Andreas Hansen         : Spin unrestricted coupled pair/coupled cluster methods
   Ingolf Harden          : AUTO-CI MPn and infrastructure 
   Benjamin Helmich-Paris : MC-RPA, TRAH-(SCF,CASSCF), AVAS, COSX integrals, SCF dyn. polar.
   Lee Huntington         : MR-EOM, pCC
   Robert Izsak           : Overlap fitted RIJCOSX, COSX-SCS-MP3, EOM
   Riya Kayal             : Wick's Theorem for AUTO-CI, AUTO-CI UHF-CCSDT
   Emily Kempfer          : AUTO-CI, RHF CISDT and CCSDT
   Christian Kollmar      : KDIIS, OOCD, Brueckner-CCSD(T), CCSD density, CASPT2, CASPT2-K, improved NEVPT2
   Axel Koslowski         : Symmetry handling
   Simone Kossmann        : Meta GGA functionals, TD-DFT gradient, OOMP2, (MP2 Hessian; deprecated post 5.0)
   Lucas Lang             : DCDCAS
   Marvin Lechner         : AUTO-CI (C++ implementation), FIC-MRCC
   Spencer Leger          : CASSCF response
   Dagmar Lenk            : GEPOL surface, SMD, ORCA-2-JSON
   Dimitrios Liakos       : Extrapolation schemes; Compound Job, initial MDCI parallelization
   Dimitrios Manganas     : Further ROCIS development; embedding schemes. LFT, Crystal Embedding
   Dimitrios Pantazis     : SARC Basis sets
   Anastasios Papadopoulos: AUTO-CI, single reference methods and gradients
   Taras Petrenko         : pre 6.0 DFT Hessian and TD-DFT gradient, (ASA, deprecated), ECA, 1-Electron XAS/XES, NRVS
   Peter Pinski           : DLPNO-MP2, DLPNO-MP2 Gradient
   Christoph Reimann      : Effective Core Potentials
   Marius Retegan         : Local ZFS, SOC
   Christoph Riplinger    : Optimizer, TS searches, QM/MM, DLPNO-CCSD(T), (RO)-DLPNO pert. Triples
   Michael Roemelt        : Original ROCIS implementation
   Masaaki Saitow         : Open-shell DLPNO-CCSD energy and density
   Barbara Sandhoefer     : DKH picture change effects
   Kantharuban Sivalingam : CASSCF convergence/infrastructure, NEVPT2 and variants, FIC-MRCI
   Bernardo de Souza      : ESD, SOC TD-DFT
   Georgi Stoychev        : AutoAux, RI-MP2 NMR, DLPNO-MP2 response, X2C
   Van Anh Tran           : RI-MP2 g-tensors
   Willem Van den Heuvel  : Paramagnetic NMR
   Zikuan Wang            : NOTCH, Electric field optimization 
   Frank Wennmohs         : Technical directorship and infrastructure
   Hang Xu                : AUTO-CI-Response properties 


 We gratefully acknowledge several colleagues who have allowed us to
 interface, adapt or use parts of their codes:
   Stefan Grimme, W. Hujo, H. Kruse, P. Pracht,  : VdW corrections, initial TS optimization,
                  C. Bannwarth, S. Ehlert,         DFT functionals, gCP, sTDA/sTD-DF
                  L. Wittmann, M. Mueller
   Ed Valeev, F. Pavosevic, A. Kumar             : LibInt (2-el integral package), F12 methods
   Garnet Chan, S. Sharma, J. Yang, R. Olivares  : DMRG
   Ulf Ekstrom                                   : XCFun DFT Library
   Mihaly Kallay                                 : mrcc  (arbitrary order and MRCC methods)
   Frank Weinhold                                : gennbo (NPA and NBO analysis)
   Simon Mueller                                 : openCOSMO-RS
   Christopher J. Cramer and Donald G. Truhlar   : smd solvation model
   Lars Goerigk                                  : TD-DFT with DH, B97 family of functionals
   V. Asgeirsson, H. Jonsson                     : NEB implementation
   FAccTs GmbH                                   : IRC, NEB, NEB-TS, DLPNO-Multilevel, CI-OPT
                                                   MM, QMMM, 2- and 3-layer-ONIOM, Crystal-QMMM,
                                                   LR-CPCM, SF, NACMEs, symmetry and pop. for TD-DFT,
                                                   nearIR, NL-DFT gradient (VV10), updates on ESD,
                                                   ML-optimized integration grids, MBIS, APM,
                                                   GOAT, DOCKER, SOLVATOR, interface openCOSMO-RS
   S Lehtola, MJT Oliveira, MAL Marques          : LibXC Library
   Liviu Ungur et al                             : ANISO software


 Your calculation uses the libint2 library for the computation of 2-el integrals
 For citations please refer to: http://libint.valeyev.net

 Your ORCA version has been built with support for libXC version: 6.2.2
 For citations please refer to: https://libxc.gitlab.io

 This ORCA versions uses:
   CBLAS   interface :  Fast vector & matrix operations
   LAPACKE interface :  Fast linear algebra routines
   Shared memory     :  Shared parallel matrices


Your calculation utilizes the atom-pairwise dispersion correction
with the Becke-Johnson damping scheme (D3BJ)


Warning: RI is on but no J-basis has been assigned. Assigning Def2/J (nothing to worry about!)
================================================================================

----- Orbital basis set information -----
Your calculation utilizes the basis: def2-SVP
   F. Weigend and R. Ahlrichs, Phys. Chem. Chem. Phys. 7, 3297 (2005).

----- AuxJ basis set information -----
Your calculation utilizes the auxiliary basis: def2/J
   F. Weigend, Phys. Chem. Chem. Phys. 8, 1057 (2006).

================================================================================
                                        WARNINGS
                       Please study these warnings very carefully!
================================================================================


WARNING: Geometry Optimization
  ===> : Switching off AutoStart
         For restart on a previous wavefunction, please use MOREAD

================================================================================
                                       INPUT FILE
================================================================================
NAME = data/geom_opt_P_BP86/119411/119411.inp
|  1> ! RI BP86 def2-SVP D3BJ TIGHTSCF Opt
|  2> %pal
|  3> nprocs 6
|  4> end
|  5> 
|  6> * xyz 0 1
|  7> C     -2.095146   -1.696748    0.738402
|  8> C     -0.758087   -1.447327    0.047849
|  9> P      0.106602    0.061776    0.702668
| 10> C     -0.879363    1.386367   -0.150092
| 11> C     -0.374019    2.788154    0.176131
| 12> C     -1.230774    3.830414   -0.487017
| 13> O     -2.192249    3.647029   -1.213328
| 14> O     -0.819309    5.080334   -0.196700
| 15> C      1.620808    0.051317   -0.374801
| 16> C      2.642561   -0.990924    0.068546
| 17> C      3.873473   -0.929257   -0.792357
| 18> O      4.078886   -0.190846   -1.740063
| 19> O      4.803051   -1.825762   -0.407587
| 20> C     -2.735063   -2.954683    0.220519
| 21> O     -2.309377   -3.701161   -0.643861
| 22> O     -3.908820   -3.211155    0.830769
| 23> H     -2.787476   -0.867645    0.556940
| 24> H     -1.951742   -1.807526    1.819574
| 25> H     -0.105411   -2.313006    0.208106
| 26> H     -0.899345   -1.353484   -1.035222
| 27> H     -0.867335    1.218626   -1.233384
| 28> H     -1.923065    1.298027    0.172322
| 29> H      0.653995    2.923155   -0.176886
| 30> H     -0.402053    2.961993    1.258149
| 31> H     -1.444492    5.659396   -0.681193
| 32> H      1.332188   -0.116930   -1.418924
| 33> H      2.080527    1.045143   -0.329680
| 34> H      2.227063   -2.001279   -0.010209
| 35> H      2.943935   -0.812481    1.107344
| 36> H      5.543150   -1.691664   -1.036214
| 37> H     -4.223115   -4.039854    0.411989
| 38> **                         ****END OF INPUT****
================================================================================

                       *****************************
                       * Geometry Optimization Run *
                       *****************************

Geometry optimization settings:
Update method            Update   .... BFGS
Choice of coordinates    CoordSys .... (2022) Redundant Internals
Initial Hessian          InHess   .... Almloef's Model
Max. no of cycles        MaxIter  .... 93

Convergence Tolerances:
Energy Change            TolE     ....  5.0000e-06 Eh
Max. Gradient            TolMAXG  ....  3.0000e-04 Eh/bohr
RMS Gradient             TolRMSG  ....  1.0000e-04 Eh/bohr
Max. Displacement        TolMAXD  ....  4.0000e-03 bohr
RMS Displacement         TolRMSD  ....  2.0000e-03 bohr
Strict Convergence                .... False

------------------------------------------------------------------------------
                        ORCA OPTIMIZATION COORDINATE SETUP
------------------------------------------------------------------------------

The optimization will be done in redundant internal coordinates (2022)
Making redundant internal coordinates   ...  (2022 redundants) done
Evaluating the initial hessian          ...  (Almloef) done
Evaluating the coordinates              ...  done
Calculating the B-matrix                .... done
Calculating the G-matrix                .... done
Diagonalizing the G-matrix              .... done
Small eigenvalue found = 5.562e-03
Small eigenvalue found = 5.836e-03
Small eigenvalue found = 9.954e-03
The first mode is                       ....   48
The number of degrees of freedom        ....   87

    -----------------------------------------------------------------
                    Redundant Internal Coordinates


    -----------------------------------------------------------------
         Definition                    Initial Value    Approx d2E/dq
    -----------------------------------------------------------------
      1. B(C   1,C   0)                  1.5254         0.379961   
      2. B(P   2,C   1)                  1.8585         0.375697   
      3. B(C   3,P   2)                  1.8585         0.375696   
      4. B(C   4,C   3)                  1.5254         0.379962   
      5. B(C   5,C   4)                  1.5034         0.411979   
      6. B(O   6,C   5)                  1.2188         1.049389   
      7. B(O   7,C   5)                  1.3475         0.654039   
      8. B(C   8,P   2)                  1.8585         0.375696   
      9. B(C   9,C   8)                  1.5254         0.379961   
     10. B(C  10,C   9)                  1.5034         0.411979   
     11. B(O  11,C  10)                  1.2188         1.049389   
     12. B(O  12,C  10)                  1.3475         0.654042   
     13. B(C  13,C   0)                  1.5034         0.411981   
     14. B(O  14,C  13)                  1.2188         1.049391   
     15. B(O  15,C  13)                  1.3475         0.654038   
     16. B(H  16,C   0)                  1.0953         0.353169   
     17. B(H  17,C   0)                  1.0963         0.351923   
     18. B(H  18,C   1)                  1.0959         0.352337   
     19. B(H  19,C   1)                  1.0963         0.351903   
     20. B(H  20,C   3)                  1.0963         0.351903   
     21. B(H  21,C   3)                  1.0959         0.352337   
     22. B(H  22,C   4)                  1.0953         0.353170   
     23. B(H  23,C   4)                  1.0963         0.351923   
     24. B(H  24,O   7)                  0.9803         0.482671   
     25. B(H  25,C   8)                  1.0963         0.351904   
     26. B(H  26,C   8)                  1.0959         0.352337   
     27. B(H  27,C   9)                  1.0953         0.353171   
     28. B(H  28,C   9)                  1.0963         0.351923   
     29. B(H  29,O  12)                  0.9803         0.482670   
     30. B(H  30,O  15)                  0.9803         0.482671   
     31. A(C   1,C   0,H  17)          110.3858         0.323999   
     32. A(C  13,C   0,H  17)          108.1117         0.328342   
     33. A(C  13,C   0,H  16)          107.8945         0.328533   
     34. A(C   1,C   0,H  16)          110.8106         0.324187   
     35. A(H  16,C   0,H  17)          108.8187         0.288912   
     36. A(C   1,C   0,C  13)          110.7306         0.370574   
     37. A(H  18,C   1,H  19)          106.7876         0.288802   
     38. A(C   0,C   1,H  18)          109.0661         0.324061   
     39. A(C   0,C   1,P   2)          112.4016         0.388189   
     40. A(P   2,C   1,H  18)          108.2282         0.343382   
     41. A(C   0,C   1,H  19)          110.3840         0.323996   
     42. A(P   2,C   1,H  19)          109.7883         0.343311   
     43. A(C   1,P   2,C   8)           99.8018         0.412780   
     44. A(C   1,P   2,C   3)           99.8018         0.412780   
     45. A(C   3,P   2,C   8)           99.8018         0.412780   
     46. A(C   4,C   3,H  20)          110.3839         0.323996   
     47. A(P   2,C   3,H  20)          109.7882         0.343311   
     48. A(P   2,C   3,C   4)          112.4015         0.388189   
     49. A(H  20,C   3,H  21)          106.7876         0.288802   
     50. A(C   4,C   3,H  21)          109.0662         0.324061   
     51. A(P   2,C   3,H  21)          108.2282         0.343382   
     52. A(C   5,C   4,H  22)          107.8945         0.328533   
     53. A(H  22,C   4,H  23)          108.8188         0.288912   
     54. A(C   5,C   4,H  23)          108.1117         0.328341   
     55. A(C   3,C   4,H  23)          110.3859         0.323999   
     56. A(C   3,C   4,H  22)          110.8106         0.324187   
     57. A(C   3,C   4,C   5)          110.7306         0.370574   
     58. A(O   6,C   5,O   7)          120.5842         0.475997   
     59. A(C   4,C   5,O   7)          111.9633         0.404783   
     60. A(C   4,C   5,O   6)          127.4522         0.440450   
     61. A(C   5,O   7,H  24)          104.2827         0.368786   
     62. A(H  25,C   8,H  26)          106.7876         0.288802   
     63. A(C   9,C   8,H  26)          109.0661         0.324061   
     64. A(P   2,C   8,H  26)          108.2282         0.343382   
     65. A(C   9,C   8,H  25)          110.3839         0.323996   
     66. A(P   2,C   8,H  25)          109.7882         0.343311   
     67. A(P   2,C   8,C   9)          112.4015         0.388188   
     68. A(H  27,C   9,H  28)          108.8188         0.288912   
     69. A(C  10,C   9,H  28)          108.1117         0.328341   
     70. A(C   8,C   9,H  28)          110.3858         0.323998   
     71. A(C  10,C   9,H  27)          107.8944         0.328533   
     72. A(C   8,C   9,H  27)          110.8107         0.324187   
     73. A(C   8,C   9,C  10)          110.7306         0.370574   
     74. A(O  11,C  10,O  12)          120.5843         0.475997   
     75. A(C   9,C  10,O  12)          111.9633         0.404783   
     76. A(C   9,C  10,O  11)          127.4522         0.440450   
     77. A(C  10,O  12,H  29)          104.2826         0.368786   
     78. A(O  14,C  13,O  15)          120.5842         0.475997   
     79. A(C   0,C  13,O  15)          111.9633         0.404783   
     80. A(C   0,C  13,O  14)          127.4523         0.440450   
     81. A(C  13,O  15,H  30)          104.2826         0.368785   
     82. D(P   2,C   1,C   0,H  16)     62.6086         0.011506   
     83. D(H  18,C   1,C   0,H  17)     62.0143         0.011506   
     84. D(H  18,C   1,C   0,C  13)    -57.6719         0.011506   
     85. D(P   2,C   1,C   0,H  17)    -58.0146         0.011506   
     86. D(P   2,C   1,C   0,C  13)   -177.7008         0.011506   
     87. D(H  18,C   1,C   0,H  16)   -177.3626         0.011506   
     88. D(C   3,P   2,C   1,C   0)    -76.9549         0.003404   
     89. D(C   8,P   2,C   1,H  18)     60.6925         0.003404   
     90. D(C   8,P   2,C   1,C   0)   -178.7942         0.003404   
     91. D(C   3,P   2,C   1,H  18)    162.5318         0.003404   
     92. D(C   3,P   2,C   1,H  19)     46.3222         0.003404   
     93. D(H  20,C   3,P   2,C   1)    -55.5171         0.003404   
     94. D(H  20,C   3,P   2,C   8)     46.3222         0.003404   
     95. D(C   4,C   3,P   2,C   1)   -178.7942         0.003404   
     96. D(C   4,C   3,P   2,C   8)    -76.9549         0.003404   
     97. D(H  21,C   3,P   2,C   1)     60.6924         0.003404   
     98. D(H  22,C   4,C   3,H  21)   -177.3625         0.011506   
     99. D(H  22,C   4,C   3,H  20)    -60.3344         0.011506   
    100. D(H  22,C   4,C   3,P   2)     62.6086         0.011506   
    101. D(C   5,C   4,C   3,H  21)    -57.6719         0.011506   
    102. D(C   5,C   4,C   3,H  20)     59.3562         0.011506   
    103. D(C   5,C   4,C   3,P   2)   -177.7008         0.011506   
    104. D(O   7,C   5,C   4,C   3)    178.9588         0.012566   
    105. D(O   6,C   5,C   4,H  23)   -122.2663         0.012566   
    106. D(O   6,C   5,C   4,H  22)    120.2011         0.012566   
    107. D(O   7,C   5,C   4,H  22)    -59.6156         0.012566   
    108. D(O   6,C   5,C   4,C   3)     -1.2245         0.012566   
    109. D(H  24,O   7,C   5,O   6)      0.0002         0.031646   
    110. D(H  24,O   7,C   5,C   4)    179.8311         0.031646   
    111. D(C   9,C   8,P   2,C   3)   -178.7942         0.003404   
    112. D(C   9,C   8,P   2,C   1)    -76.9549         0.003404   
    113. D(H  26,C   8,P   2,C   1)    162.5318         0.003404   
    114. D(H  25,C   8,P   2,C   3)    -55.5172         0.003404   
    115. D(H  25,C   8,P   2,C   1)     46.3222         0.003404   
    116. D(H  27,C   9,C   8,H  26)   -177.3625         0.011506   
    117. D(H  27,C   9,C   8,H  25)    -60.3344         0.011506   
    118. D(H  27,C   9,C   8,P   2)     62.6086         0.011506   
    119. D(C  10,C   9,C   8,H  26)    -57.6719         0.011506   
    120. D(C  10,C   9,C   8,H  25)     59.3562         0.011506   
    121. D(C  10,C   9,C   8,P   2)   -177.7008         0.011506   
    122. D(O  12,C  10,C   9,H  27)    -59.6154         0.012566   
    123. D(O  12,C  10,C   9,C   8)    178.9589         0.012566   
    124. D(O  11,C  10,C   9,H  28)   -122.2661         0.012566   
    125. D(O  11,C  10,C   9,H  27)    120.2013         0.012566   
    126. D(O  11,C  10,C   9,C   8)     -1.2244         0.012566   
    127. D(H  29,O  12,C  10,O  11)      0.0002         0.031647   
    128. D(H  29,O  12,C  10,C   9)    179.8311         0.031647   
    129. D(O  15,C  13,C   0,H  16)    -59.6154         0.012566   
    130. D(O  15,C  13,C   0,C   1)    178.9589         0.012566   
    131. D(O  14,C  13,C   0,H  17)   -122.2661         0.012566   
    132. D(O  14,C  13,C   0,H  16)    120.2013         0.012566   
    133. D(O  14,C  13,C   0,C   1)     -1.2244         0.012566   
    134. D(H  30,O  15,C  13,O  14)      0.0001         0.031646   
    135. D(H  30,O  15,C  13,C   0)    179.8310         0.031646   
    -----------------------------------------------------------------

Number of atoms                         .... 31
Number of degrees of freedom            .... 135


         *************************************************************
         *                GEOMETRY OPTIMIZATION CYCLE   1            *
         *************************************************************
---------------------------------
CARTESIAN COORDINATES (ANGSTROEM)
---------------------------------
  C     -2.095146   -1.696748    0.738402
  C     -0.758087   -1.447327    0.047849
  P      0.106602    0.061776    0.702668
  C     -0.879363    1.386367   -0.150092
  C     -0.374019    2.788154    0.176131
  C     -1.230774    3.830414   -0.487017
  O     -2.192249    3.647029   -1.213328
  O     -0.819309    5.080334   -0.196700
  C      1.620808    0.051317   -0.374801
  C      2.642561   -0.990924    0.068546
  C      3.873473   -0.929257   -0.792357
  O      4.078886   -0.190846   -1.740063
  O      4.803051   -1.825762   -0.407587
  C     -2.735063   -2.954683    0.220519
  O     -2.309377   -3.701161   -0.643861
  O     -3.908820   -3.211155    0.830769
  H     -2.787476   -0.867645    0.556940
  H     -1.951742   -1.807526    1.819574
  H     -0.105411   -2.313006    0.208106
  H     -0.899345   -1.353484   -1.035222
  H     -0.867335    1.218626   -1.233384
  H     -1.923065    1.298027    0.172322
  H      0.653995    2.923155   -0.176886
  H     -0.402053    2.961993    1.258149
  H     -1.444492    5.659396   -0.681193
  H      1.332188   -0.116930   -1.418924
  H      2.080527    1.045143   -0.329680
  H      2.227063   -2.001279   -0.010209
  H      2.943935   -0.812481    1.107344
  H      5.543150   -1.691664   -1.036214
  H     -4.223115   -4.039854    0.411989

----------------------------
CARTESIAN COORDINATES (A.U.)
----------------------------
  NO LB      ZA    FRAG     MASS         X           Y           Z
   0 C     6.0000    0    12.011   -3.959252   -3.206389    1.395378
   1 C     6.0000    0    12.011   -1.432577   -2.735052    0.090422
   2 P    15.0000    0    30.974    0.201449    0.116740    1.327850
   3 C     6.0000    0    12.011   -1.661755    2.619854   -0.283633
   4 C     6.0000    0    12.011   -0.706793    5.268847    0.332839
   5 C     6.0000    0    12.011   -2.325826    7.238433   -0.920329
   6 O     8.0000    0    15.999   -4.142750    6.891886   -2.292858
   7 O     8.0000    0    15.999   -1.548270    9.600440   -0.371709
   8 C     6.0000    0    12.011    3.062883    0.096975   -0.708271
   9 C     6.0000    0    12.011    4.993717   -1.872575    0.129533
  10 C     6.0000    0    12.011    7.319803   -1.756041   -1.497338
  11 O     8.0000    0    15.999    7.707977   -0.360647   -3.288243
  12 O     8.0000    0    15.999    9.076451   -3.450190   -0.770228
  13 C     6.0000    0    12.011   -5.168520   -5.583542    0.416721
  14 O     8.0000    0    15.999   -4.364090   -6.994181   -1.216721
  15 O     8.0000    0    15.999   -7.386599   -6.068204    1.569926
  16 H     1.0000    0     1.008   -5.267566   -1.639611    1.052464
  17 H     1.0000    0     1.008   -3.688258   -3.415729    3.438497
  18 H     1.0000    0     1.008   -0.199198   -4.370948    0.393263
  19 H     1.0000    0     1.008   -1.699516   -2.557714   -1.956286
  20 H     1.0000    0     1.008   -1.639026    2.302869   -2.330758
  21 H     1.0000    0     1.008   -3.634066    2.452916    0.325641
  22 H     1.0000    0     1.008    1.235871    5.523962   -0.334266
  23 H     1.0000    0     1.008   -0.759770    5.597356    2.377557
  24 H     1.0000    0     1.008   -2.729694   10.694709   -1.287268
  25 H     1.0000    0     1.008    2.517470   -0.220966   -2.681378
  26 H     1.0000    0     1.008    3.931626    1.975034   -0.623005
  27 H     1.0000    0     1.008    4.208539   -3.781869   -0.019292
  28 H     1.0000    0     1.008    5.563231   -1.535367    2.092577
  29 H     1.0000    0     1.008   10.475035   -3.196782   -1.958161
  30 H     1.0000    0     1.008   -7.980531   -7.634218    0.778546

--------------------------------
INTERNAL COORDINATES (ANGSTROEM)
--------------------------------
 C      0   0   0     0.000000000000     0.00000000     0.00000000
 C      1   0   0     1.525385541603     0.00000000     0.00000000
 P      2   1   0     1.858458192721   112.40156946     0.00000000
 C      3   2   1     1.858458478446    99.80179581   283.04511079
 C      4   3   2     1.525385458641   112.40152465   181.20580265
 C      5   4   3     1.503362999255   110.73058595   182.29923109
 O      6   5   4     1.218848597067   127.45224737   358.77545185
 O      6   5   4     1.347548668180   111.96325476   178.95878222
 C      3   2   1     1.858458675106    99.80177252   181.20580373
 C      9   3   2     1.525385871673   112.40150814   283.04512397
 C     10   9   3     1.503363278134   110.73060279   182.29920326
 O     11  10   9     1.218848623877   127.45217941   358.77564815
 O     11  10   9     1.347547559832   111.96328500   178.95893845
 C      1   2   3     1.503361910121   110.73060424   182.29920665
 O     14   1   2     1.218848128144   127.45227446   358.77564674
 O     14   1   2     1.347549050808   111.96327341   178.95892008
 H      1   2   3     1.095290404848   110.81063049    62.60857205
 H      1   2   3     1.096252418964   110.38583493   301.98543385
 H      2   1   3     1.095932661283   109.06609778   120.02886899
 H      2   1   3     1.096267815022   110.38395481   237.05689733
 H      4   3   2     1.096267883835   109.78824683   304.48286791
 H      4   3   2     1.095932756970   108.22815676    60.69243542
 H      5   4   3     1.095289485244   110.81064479    62.60861412
 H      5   4   3     1.096252186042   110.38585069   301.98538240
 H      8   6   5     0.980255094545   104.28265385   179.83114476
 H      9   3   2     1.096267027935   109.78823218    46.32216152
 H      9   3   2     1.095932288911   108.22818807   162.53178146
 H     10   9   3     1.095289077848   110.81065417    62.60860400
 H     10   9   3     1.096252469520   110.38582334   301.98538434
 H     13  11  10     0.980255430250   104.28264797   179.83113951
 H     16  14   1     0.980255103545   104.28264302   179.83104965

---------------------------
INTERNAL COORDINATES (A.U.)
---------------------------
 C      0   0   0     0.000000000000     0.00000000     0.00000000
 C      1   0   0     2.882560922273     0.00000000     0.00000000
 P      2   1   0     3.511977015585   112.40156946     0.00000000
 C      3   2   1     3.511977555526    99.80179581   283.04511079
 C      4   3   2     2.882560765498   112.40152465   181.20580265
 C      5   4   3     2.840944348462   110.73058595   182.29923109
 O      6   5   4     2.303290047170   127.45224737   358.77545185
 O      6   5   4     2.546497934991   111.96325476   178.95878222
 C      3   2   1     3.511977927161    99.80177252   181.20580373
 C      9   3   2     2.882561546014   112.40150814   283.04512397
 C     10   9   3     2.840944875467   110.73060279   182.29920326
 O     11  10   9     2.303290097834   127.45217941   358.77564815
 O     11  10   9     2.546495840516   111.96328500   178.95893845
 C      1   2   3     2.840942290298   110.73060424   182.29920665
 O     14   1   2     2.303289161035   127.45227446   358.77564674
 O     14   1   2     2.546498658052   111.96327341   178.95892008
 H      1   2   3     2.069798902275   110.81063049    62.60857205
 H      1   2   3     2.071616845490   110.38583493   301.98543385
 H      2   1   3     2.071012591044   109.06609778   120.02886899
 H      2   1   3     2.071645939825   110.38395481   237.05689733
 H      4   3   2     2.071646069862   109.78824683   304.48286791
 H      4   3   2     2.071012771867   108.22815676    60.69243542
 H      5   4   3     2.069797164475   110.81064479    62.60861412
 H      5   4   3     2.071616405331   110.38585069   301.98538240
 H      8   6   5     1.852413670072   104.28265385   179.83114476
 H      9   3   2     2.071644452445   109.78823218    46.32216152
 H      9   3   2     2.071011887364   108.22818807   162.53178146
 H     10   9   3     2.069796394609   110.81065417    62.60860400
 H     10   9   3     2.071616941028   110.38582334   301.98538434
 H     13  11  10     1.852414304461   104.28264797   179.83113951
 H     16  14   1     1.852413687079   104.28264302   179.83104965

---------------------
BASIS SET INFORMATION
---------------------
There are 4 groups of distinct atoms

 Group   1 Type C   : 7s4p1d contracted to 3s2p1d pattern {511/31/1}
 Group   2 Type P   : 10s7p1d contracted to 4s3p1d pattern {5311/511/1}
 Group   3 Type O   : 7s4p1d contracted to 3s2p1d pattern {511/31/1}
 Group   4 Type H   : 4s1p contracted to 2s1p pattern {31/1}

Atom   0C    basis set group =>   1
Atom   1C    basis set group =>   1
Atom   2P    basis set group =>   2
Atom   3C    basis set group =>   1
Atom   4C    basis set group =>   1
Atom   5C    basis set group =>   1
Atom   6O    basis set group =>   3
Atom   7O    basis set group =>   3
Atom   8C    basis set group =>   1
Atom   9C    basis set group =>   1
Atom  10C    basis set group =>   1
Atom  11O    basis set group =>   3
Atom  12O    basis set group =>   3
Atom  13C    basis set group =>   1
Atom  14O    basis set group =>   3
Atom  15O    basis set group =>   3
Atom  16H    basis set group =>   4
Atom  17H    basis set group =>   4
Atom  18H    basis set group =>   4
Atom  19H    basis set group =>   4
Atom  20H    basis set group =>   4
Atom  21H    basis set group =>   4
Atom  22H    basis set group =>   4
Atom  23H    basis set group =>   4
Atom  24H    basis set group =>   4
Atom  25H    basis set group =>   4
Atom  26H    basis set group =>   4
Atom  27H    basis set group =>   4
Atom  28H    basis set group =>   4
Atom  29H    basis set group =>   4
Atom  30H    basis set group =>   4
---------------------------------
AUXILIARY/J BASIS SET INFORMATION
---------------------------------
There are 4 groups of distinct atoms

 Group   1 Type C   : 12s5p4d2f1g contracted to 6s4p3d1f1g pattern {711111/2111/211/2/1}
 Group   2 Type P   : 14s5p5d2f1g contracted to 8s4p3d1f1g pattern {71111111/2111/311/2/1}
 Group   3 Type O   : 12s5p4d2f1g contracted to 6s4p3d1f1g pattern {711111/2111/211/2/1}
 Group   4 Type H   : 5s2p1d contracted to 3s1p1d pattern {311/2/1}

Atom   0C    basis set group =>   1
Atom   1C    basis set group =>   1
Atom   2P    basis set group =>   2
Atom   3C    basis set group =>   1
Atom   4C    basis set group =>   1
Atom   5C    basis set group =>   1
Atom   6O    basis set group =>   3
Atom   7O    basis set group =>   3
Atom   8C    basis set group =>   1
Atom   9C    basis set group =>   1
Atom  10C    basis set group =>   1
Atom  11O    basis set group =>   3
Atom  12O    basis set group =>   3
Atom  13C    basis set group =>   1
Atom  14O    basis set group =>   3
Atom  15O    basis set group =>   3
Atom  16H    basis set group =>   4
Atom  17H    basis set group =>   4
Atom  18H    basis set group =>   4
Atom  19H    basis set group =>   4
Atom  20H    basis set group =>   4
Atom  21H    basis set group =>   4
Atom  22H    basis set group =>   4
Atom  23H    basis set group =>   4
Atom  24H    basis set group =>   4
Atom  25H    basis set group =>   4
Atom  26H    basis set group =>   4
Atom  27H    basis set group =>   4
Atom  28H    basis set group =>   4
Atom  29H    basis set group =>   4
Atom  30H    basis set group =>   4


           ************************************************************
           *        Program running with 6 parallel MPI-processes     *
           *              working on a common directory               *
           ************************************************************
------------------------------------------------------------------------------
                             ORCA STARTUP CALCULATIONS
                           -- RI-GTO INTEGRALS CHOSEN --
------------------------------------------------------------------------------
------------------------------------------------------------------------------
                   ___                                                        
                  /   \      - P O W E R E D   B Y -                         
                 /     \                                                     
                 |  |  |   _    _      __       _____    __    __             
                 |  |  |  | |  | |    /  \     |  _  \  |  |  /  |          
                  \  \/   | |  | |   /    \    | | | |  |  | /  /          
                 / \  \   | |__| |  /  /\  \   | |_| |  |  |/  /          
                |  |  |   |  __  | /  /__\  \  |    /   |      \           
                |  |  |   | |  | | |   __   |  |    \   |  |\   \          
                \     /   | |  | | |  |  |  |  | |\  \  |  | \   \       
                 \___/    |_|  |_| |__|  |__|  |_| \__\ |__|  \__/        
                                                                              
                      - O R C A' S   B I G   F R I E N D -                    
                                      &                                       
                       - I N T E G R A L  F E E D E R -                       
                                                                              
 v1 FN, 2020, v2 2021, v3 2022-2024                                           
------------------------------------------------------------------------------


----------------------
SHARK INTEGRAL PACKAGE
----------------------

Number of atoms                             ...     31
Number of basis functions                   ...    303
Number of shells                            ...    143
Maximum angular momentum                    ...      2
Integral batch strategy                     ... SHARK/LIBINT Hybrid
RI-J (if used) integral strategy            ... SPLIT-RIJ (Revised 2003 algorithm where possible)
Printlevel                                  ...      1
Contraction scheme used                     ... SEGMENTED contraction
Prescreening option                         ... SCHWARTZ
   Thresh                                   ... 2.500e-11
   Tcut                                     ... 2.500e-12
   Tpresel                                  ... 2.500e-12 
Coulomb Range Separation                    ... NOT USED
Exchange Range Separation                   ... NOT USED
Multipole approximations                    ... NOT USED
Finite Nucleus Model                        ... NOT USED
CABS basis                                  ... NOT available
Auxiliary Coulomb fitting basis             ... AVAILABLE
   # of basis functions in Aux-J            ...    951
   # of shells in Aux-J                     ...    317
   Maximum angular momentum in Aux-J        ...      4
Auxiliary J/K fitting basis                 ... NOT available
Auxiliary Correlation fitting basis         ... NOT available
Auxiliary 'external' fitting basis          ... NOT available

Checking pre-screening integrals            ... done (  0.0 sec) Dimension = 143
Check shell pair data                       ... done (  0.0 sec)
Shell pair information
Shell pair cut-off parameter TPreSel        ...   2.5e-12
Total number of shell pairs                 ...     10296
Shell pairs after pre-screening             ...      7470
Total number of primitive shell pairs       ...     37664
Primitive shell pairs kept                  ...     18044
          la=0 lb=0:   2401 shell pairs
          la=1 lb=0:   2829 shell pairs
          la=1 lb=1:    861 shell pairs
          la=2 lb=0:    832 shell pairs
          la=2 lb=1:    472 shell pairs
          la=2 lb=2:     75 shell pairs

Calculating one electron integrals          ... done (  0.0 sec)
Calculating RI/J V-Matrix + Cholesky decomp.... done (  0.0 sec)
Calculating Nuclear repulsion               ... done (  0.0 sec) ENN=   1200.088594383785 Eh

Diagonalization of the overlap matrix:
Smallest eigenvalue                        ... 1.071e-03
Time for diagonalization                   ...    0.011 sec
Threshold for overlap eigenvalues          ... 1.000e-07
Number of eigenvalues below threshold      ... 0
Time for construction of square roots      ...    0.007 sec
Total time needed                          ...    0.020 sec

-------------------
DFT GRID GENERATION
-------------------

General Integration Accuracy     IntAcc      ... 4.388
Radial Grid Type                 RadialGrid  ... OptM3 with GC (2021)
Angular Grid (max. ang.)         AngularGrid ... 4 (Lebedev-302)
Angular grid pruning method      GridPruning ... 4 (adaptive)
Weight generation scheme         WeightScheme... mBecke (2022)
Basis function cutoff            BFCut       ... 1.0000e-11
Integration weight cutoff        WCut        ... 1.0000e-14
Partially contracted basis set               ... off
Rotationally invariant grid construction     ... off
Angular grids for H and He will be reduced by one unit

Total number of grid points                  ...   145477
Total number of batches                      ...     2291
Average number of points per batch           ...       63
Average number of grid points per atom       ...     4693
Initializing property integral containers    ... done (  0.0 sec)

SHARK setup successfully completed in   0.9 seconds

Maximum memory used throughout the entire STARTUP-calculation: 38.0 MB


           ************************************************************
           *        Program running with 6 parallel MPI-processes     *
           *              working on a common directory               *
           ************************************************************
-------------------------------------------------------------------------------
                                 ORCA GUESS
                   Start orbitals & Density for SCF / CASSCF
-------------------------------------------------------------------------------

------------
SCF SETTINGS
------------
Hamiltonian:
 Density Functional     Method          .... DFT(GTOs)
 Exchange Functional    Exchange        .... B88
   X-Alpha parameter    XAlpha          ....  0.666667
   Becke's b parameter  XBeta           ....  0.004200
 Correlation Functional Correlation     .... P86
 LDA part of GGA corr.  LDAOpt          .... PW91-LDA
 Gradients option       PostSCFGGA      .... off
   NL short-range parameter             ....  4.400000
 RI-approximation to the Coulomb term is turned on
   Number of AuxJ basis functions       .... 951


General Settings:
 Integral files         IntName         .... data/geom_opt_P_BP86/119411/119411
 Hartree-Fock type      HFTyp           .... RHF
 Total Charge           Charge          ....    0
 Multiplicity           Mult            ....    1
 Number of Electrons    NEL             ....  132
 Basis Dimension        Dim             ....  303
 Nuclear Repulsion      ENuc            ....   1200.0885943838 Eh

Convergence Acceleration:
 AO-DIIS                CNVDIIS         .... on
   Start iteration      DIISMaxIt       ....    12
   Startup error        DIISStart       ....  0.200000
   # of expansion vecs  DIISMaxEq       ....     5
   Bias factor          DIISBfac        ....   1.050
   Max. coefficient     DIISMaxC        ....  10.000
 MO-DIIS                CNVKDIIS        .... off
 Trust-Rad. Augm. Hess. CNVTRAH         .... auto
   Auto Start mean grad. ratio tolernc. ....  1.125000
   Auto Start start iteration           ....    50
   Auto Start num. interpolation iter.  ....    10
   Max. Number of Micro iterations      ....    24
   Max. Number of Macro iterations      .... Maxiter - #DIIS iter
   Number of Davidson start vectors     ....     2
   Converg. threshold    (grad. norm)   ....   1.000e-05
   Grad. Scal. Fac. for Micro threshold ....   0.100
   Minimum threshold for Micro iter.    ....   1.000e-02
   NR start threshold (gradient norm)   ....   1.000e-04
   Initial trust radius                 ....   0.400
   Minimum AH scaling param. (alpha)    ....   1.000
   Maximum AH scaling param. (alpha)    .... 1000.000
   Quad. conv. algorithm                .... NR
   White noise on init. David. guess    .... on
   Maximum white noise                  ....   0.010
   Pseudo random numbers                .... off
   Inactive MOs                         .... canonical
   Orbital update algorithm             .... Taylor
   Preconditioner                       .... Diag
   Full preconditioner red. dimension   ....   250
 SOSCF                  CNVSOSCF        .... on
   Start iteration      SOSCFMaxIt      ....   150
   Startup grad/error   SOSCFStart      ....  0.003300
   Hessian update       SOSCFHessUp     .... L-BFGS
 Level Shifting         CNVShift        .... on
   Level shift para.    LevelShift      ....    0.2500
   Turn off err/grad.   ShiftErr        ....    0.0010
 Zerner damping         CNVZerner       .... off
 Static damping         CNVDamp         .... on
   Fraction old density DampFac         ....    0.7000
   Max. Damping (<1)    DampMax         ....    0.9800
   Min. Damping (>=0)   DampMin         ....    0.0000
   Turn off err/grad.   DampErr         ....    0.1000

SCF Procedure:
 Maximum # iterations   MaxIter         ....   125
 SCF integral mode      SCFMode         .... Direct
   Integral package                     .... SHARK and LIBINT hybrid scheme
 Reset frequency        DirectResetFreq ....    20
 Integral Threshold     Thresh          ....  2.500e-11 Eh
 Primitive CutOff       TCut            ....  2.500e-12 Eh

Convergence Tolerance:
 Convergence Check Mode ConvCheckMode   .... Total+1el-Energy
 Convergence forced     ConvForced      .... 0
 Energy Change          TolE            ....  1.000e-08 Eh
 1-El. energy change                    ....  1.000e-05 Eh
 Orbital Gradient       TolG            ....  1.000e-05
 Orbital Rotation angle TolX            ....  1.000e-05
 DIIS Error             TolErr          ....  5.000e-07

------------------------------
INITIAL GUESS: MODEL POTENTIAL
------------------------------
Loading Hartree-Fock densities                     ... done
Calculating cut-offs                               ... done
Initializing the effective Hamiltonian             ... done
Setting up the integral package (SHARK)            ... done
Starting the Coulomb interaction                   ... done (   0.1 sec)
Making the grid                                    ... done (   0.2 sec)
Mapping shells                                     ... done
Starting the XC term evaluation                    ... done (   0.1 sec)
  promolecular density results
     # of electrons  =    131.995842261
     EX              =   -122.587907555
     EC              =     -4.976140865
     EX+EC           =   -127.564048420
Transforming the Hamiltonian                       ... done (   0.0 sec)
Diagonalizing the Hamiltonian                      ... done (   0.0 sec)
Back transforming the eigenvectors                 ... done (   0.0 sec)
Now organizing SCF variables                       ... done
                      ------------------
                      INITIAL GUESS DONE (   0.4 sec)
                      ------------------
             **** ENERGY FILE WAS UPDATED (data/geom_opt_P_BP86/119411/119411.en.tmp) ****
Finished Guess after   0.5 sec
Maximum memory used throughout the entire GUESS-calculation: 20.9 MB


           ************************************************************
           *        Program running with 6 parallel MPI-processes     *
           *              working on a common directory               *
           ************************************************************

-------------------------------------------------------------------------------------------
                                      ORCA LEAN-SCF
                              memory conserving SCF solver
-------------------------------------------------------------------------------------------

----------------------------------------D-I-I-S--------------------------------------------
Iteration    Energy (Eh)           Delta-E    RMSDP     MaxDP     DIISErr   Damp  Time(sec)
-------------------------------------------------------------------------------------------
               ***  Starting incremental Fock matrix formation  ***
    1    -1143.5723708419282048     0.00e+00  3.83e-03  1.53e-01  2.46e-01  0.700   0.5
    2    -1143.8484708264131768    -2.76e-01  2.20e-03  8.59e-02  7.87e-02  0.700   0.6
                               ***Turning on AO-DIIS***
    3    -1143.9243865556827586    -7.59e-02  7.78e-04  3.86e-02  2.37e-02  0.700   0.5
    4    -1143.9782838975347659    -5.39e-02  1.27e-03  8.89e-02  1.85e-02  0.000   0.5
    5    -1144.1051648636339451    -1.27e-01  3.34e-04  1.12e-02  9.60e-03  0.000   0.5
                              *** Initializing SOSCF ***
---------------------------------------S-O-S-C-F--------------------------------------
Iteration    Energy (Eh)           Delta-E    RMSDP     MaxDP     MaxGrad    Time(sec)
--------------------------------------------------------------------------------------
    6    -1144.1064764885472869    -1.31e-03  1.21e-04  2.70e-03  2.99e-03     0.5
               *** Restarting incremental Fock matrix formation ***
    7    -1144.1065779452874267    -1.01e-04  1.04e-04  2.06e-03  5.94e-04     0.6
    8    -1144.1065368132353797     4.11e-05  5.96e-05  1.65e-03  1.85e-03     0.5
    9    -1144.1065937867329012    -5.70e-05  4.86e-05  1.20e-03  3.46e-04     0.4
   10    -1144.1065847103313899     9.08e-06  2.83e-05  7.89e-04  4.64e-04     0.5
   11    -1144.1065978627170807    -1.32e-05  1.31e-05  5.34e-04  9.85e-05     0.5
   12    -1144.1065975027349850     3.60e-07  7.38e-06  2.59e-04  1.45e-04     0.6
   13    -1144.1065981093352093    -6.07e-07  1.75e-06  1.58e-04  5.54e-06     0.5
   14    -1144.1065981072370050     2.10e-09  9.54e-07  8.35e-05  6.80e-06     0.5
                 **** Energy Check signals convergence ****

               *****************************************************
               *                     SUCCESS                       *
               *           SCF CONVERGED AFTER  14 CYCLES          *
               *****************************************************

             **** ENERGY FILE WAS UPDATED (data/geom_opt_P_BP86/119411/119411.en.tmp) ****

----------------
TOTAL SCF ENERGY
----------------

Total Energy       :      -1144.10659810723701 Eh          -31132.72329 eV

Components:
Nuclear Repulsion  :       1200.08859438378477 Eh           32656.07086 eV
Electronic Energy  :      -2344.19519249102177 Eh          -63788.79415 eV
One Electron Energy:      -3953.55042986604849 Eh         -107581.57654 eV
Two Electron Energy:       1609.35523737502649 Eh           43792.78239 eV

Virial components:
Potential Energy   :      -2279.79289169655840 Eh          -62036.31845 eV
Kinetic Energy     :       1135.68629358932139 Eh           30903.59516 eV
Virial Ratio       :          2.00741428734805

DFT components:
N(Alpha)           :       66.000027764026 electrons
N(Beta)            :       66.000027764026 electrons
N(Total)           :      132.000055528053 electrons
E(X)               :     -124.262135295119 Eh       
E(C)               :       -4.986877228278 Eh       
E(XC)              :     -129.249012523396 Eh       

---------------
SCF CONVERGENCE
---------------

  Last Energy change         ...   -2.0982e-09  Tolerance :   1.0000e-08
  Last MAX-Density change    ...    8.3510e-05  Tolerance :   1.0000e-07
  Last RMS-Density change    ...    9.5353e-07  Tolerance :   5.0000e-09
  Last DIIS Error            ...    2.9864e-03  Tolerance :   5.0000e-07
  Last Orbital Gradient      ...    6.8017e-06  Tolerance :   1.0000e-05
  Last Orbital Rotation      ...    7.4226e-06  Tolerance :   1.0000e-05


----------------
ORBITAL ENERGIES
----------------

  NO   OCC          E(Eh)            E(eV) 
   0   2.0000     -76.336525     -2077.2225 
   1   2.0000     -18.827861      -512.3321 
   2   2.0000     -18.827855      -512.3320 
   3   2.0000     -18.827853      -512.3319 
   4   2.0000     -18.770898      -510.7821 
   5   2.0000     -18.770893      -510.7820 
   6   2.0000     -18.770889      -510.7819 
   7   2.0000     -10.037934      -273.1461 
   8   2.0000     -10.037932      -273.1460 
   9   2.0000     -10.037931      -273.1460 
  10   2.0000      -9.938117      -270.4299 
  11   2.0000      -9.938111      -270.4297 
  12   2.0000      -9.938104      -270.4296 
  13   2.0000      -9.923179      -270.0234 
  14   2.0000      -9.923160      -270.0229 
  15   2.0000      -9.923105      -270.0214 
  16   2.0000      -6.307281      -171.6298 
  17   2.0000      -4.528637      -123.2305 
  18   2.0000      -4.528633      -123.2304 
  19   2.0000      -4.524901      -123.1288 
  20   2.0000      -1.012657       -27.5558 
  21   2.0000      -1.012653       -27.5557 
  22   2.0000      -1.012652       -27.5556 
  23   2.0000      -0.916818       -24.9479 
  24   2.0000      -0.916809       -24.9476 
  25   2.0000      -0.916808       -24.9476 
  26   2.0000      -0.742898       -20.2153 
  27   2.0000      -0.722364       -19.6565 
  28   2.0000      -0.722358       -19.6564 
  29   2.0000      -0.652369       -17.7519 
  30   2.0000      -0.608466       -16.5572 
  31   2.0000      -0.608460       -16.5571 
  32   2.0000      -0.546853       -14.8806 
  33   2.0000      -0.529876       -14.4187 
  34   2.0000      -0.529873       -14.4186 
  35   2.0000      -0.487667       -13.2701 
  36   2.0000      -0.453788       -12.3482 
  37   2.0000      -0.453786       -12.3481 
  38   2.0000      -0.445825       -12.1315 
  39   2.0000      -0.445562       -12.1244 
  40   2.0000      -0.445559       -12.1243 
  41   2.0000      -0.426553       -11.6071 
  42   2.0000      -0.424906       -11.5623 
  43   2.0000      -0.424904       -11.5622 
  44   2.0000      -0.424468       -11.5503 
  45   2.0000      -0.389532       -10.5997 
  46   2.0000      -0.385005       -10.4765 
  47   2.0000      -0.385002       -10.4764 
  48   2.0000      -0.362784        -9.8719 
  49   2.0000      -0.362783        -9.8718 
  50   2.0000      -0.353124        -9.6090 
  51   2.0000      -0.345252        -9.3948 
  52   2.0000      -0.345162        -9.3923 
  53   2.0000      -0.345159        -9.3923 
  54   2.0000      -0.336570        -9.1585 
  55   2.0000      -0.323278        -8.7968 
  56   2.0000      -0.323273        -8.7967 
  57   2.0000      -0.289322        -7.8728 
  58   2.0000      -0.289316        -7.8727 
  59   2.0000      -0.281725        -7.6661 
  60   2.0000      -0.281301        -7.6546 
  61   2.0000      -0.281300        -7.6546 
  62   2.0000      -0.237051        -6.4505 
  63   2.0000      -0.236470        -6.4347 
  64   2.0000      -0.236468        -6.4346 
  65   2.0000      -0.201163        -5.4739 
  66   0.0000      -0.036416        -0.9909 
  67   0.0000      -0.036416        -0.9909 
  68   0.0000      -0.035401        -0.9633 
  69   0.0000       0.016547         0.4503 
  70   0.0000       0.016560         0.4506 
  71   0.0000       0.029782         0.8104 
  72   0.0000       0.036885         1.0037 
  73   0.0000       0.036887         1.0037 
  74   0.0000       0.037886         1.0309 
  75   0.0000       0.053369         1.4522 
  76   0.0000       0.053381         1.4526 
*Only the first 10 virtual orbitals were printed.

                    ********************************
                    * MULLIKEN POPULATION ANALYSIS *
                    ********************************

-----------------------
MULLIKEN ATOMIC CHARGES
-----------------------
   0 C :    0.018014
   1 C :   -0.167426
   2 P :    0.101161
   3 C :   -0.167672
   4 C :    0.018114
   5 C :    0.055871
   6 O :   -0.201223
   7 O :   -0.149081
   8 C :   -0.168009
   9 C :    0.018154
  10 C :    0.055958
  11 O :   -0.201231
  12 O :   -0.149095
  13 C :    0.055941
  14 O :   -0.201245
  15 O :   -0.149083
  16 H :    0.061021
  17 H :    0.061672
  18 H :    0.057544
  19 H :    0.049983
  20 H :    0.049991
  21 H :    0.057622
  22 H :    0.061045
  23 H :    0.061634
  24 H :    0.179987
  25 H :    0.050051
  26 H :    0.057646
  27 H :    0.061030
  28 H :    0.061658
  29 H :    0.179989
  30 H :    0.179980
Sum of atomic charges:   -0.0000000

--------------------------------
MULLIKEN REDUCED ORBITAL CHARGES
--------------------------------
  0 C s       :     2.953425  s :     2.953425
      pz      :     1.037007  p :     2.997029
      px      :     0.956603
      py      :     1.003419
      dz2     :     0.008756  d :     0.031532
      dxz     :     0.004681
      dyz     :     0.003337
      dx2y2   :     0.005066
      dxy     :     0.009692

  1 C s       :     3.090476  s :     3.090476
      pz      :     1.033921  p :     3.049035
      px      :     0.998061
      py      :     1.017054
      dz2     :     0.008823  d :     0.027915
      dxz     :     0.004755
      dyz     :     0.002776
      dx2y2   :     0.004171
      dxy     :     0.007389

  2 P s       :     5.816659  s :     5.816659
      pz      :     3.311296  p :     8.918001
      px      :     2.806215
      py      :     2.800490
      dz2     :     0.018539  d :     0.164180
      dxz     :     0.039444
      dyz     :     0.030422
      dx2y2   :     0.033543
      dxy     :     0.042232

  3 C s       :     3.090431  s :     3.090431
      pz      :     1.036357  p :     3.049325
      px      :     1.032003
      py      :     0.980966
      dz2     :     0.008105  d :     0.027916
      dxz     :     0.002823
      dyz     :     0.005091
      dx2y2   :     0.006760
      dxy     :     0.005136

  4 C s       :     2.953401  s :     2.953401
      pz      :     1.036620  p :     2.996953
      px      :     1.039677
      py      :     0.920655
      dz2     :     0.007178  d :     0.031532
      dxz     :     0.003337
      dyz     :     0.006416
      dx2y2   :     0.006973
      dxy     :     0.007628

  5 C s       :     3.076244  s :     3.076244
      pz      :     0.897331  p :     2.739875
      px      :     0.932091
      py      :     0.910453
      dz2     :     0.020567  d :     0.128010
      dxz     :     0.015441
      dyz     :     0.026078
      dx2y2   :     0.030039
      dxy     :     0.035886

  6 O s       :     3.747730  s :     3.747730
      pz      :     1.366489  p :     4.436182
      px      :     1.345643
      py      :     1.724050
      dz2     :     0.003735  d :     0.017312
      dxz     :     0.005643
      dyz     :     0.001592
      dx2y2   :     0.003700
      dxy     :     0.002642

  7 O s       :     3.690412  s :     3.690412
      pz      :     1.648391  p :     4.445215
      px      :     1.579305
      py      :     1.217519
      dz2     :     0.001586  d :     0.013454
      dxz     :     0.002387
      dyz     :     0.002953
      dx2y2   :     0.002407
      dxy     :     0.004120

  8 C s       :     3.090537  s :     3.090537
      pz      :     1.031948  p :     3.049554
      px      :     0.993149
      py      :     1.024456
      dz2     :     0.008084  d :     0.027918
      dxz     :     0.005763
      dyz     :     0.002248
      dx2y2   :     0.005841
      dxy     :     0.005982

  9 C s       :     2.953354  s :     2.953354
      pz      :     1.036655  p :     2.996959
      px      :     0.944971
      py      :     1.015333
      dz2     :     0.006835  d :     0.031533
      dxz     :     0.008040
      dyz     :     0.002597
      dx2y2   :     0.008489
      dxy     :     0.005571

 10 C s       :     3.076209  s :     3.076209
      pz      :     0.931398  p :     2.739823
      px      :     0.963074
      py      :     0.845351
      dz2     :     0.026522  d :     0.128009
      dxz     :     0.030648
      dyz     :     0.019458
      dx2y2   :     0.022882
      dxy     :     0.028498

 11 O s       :     3.747729  s :     3.747729
      pz      :     1.347424  p :     4.436190
      px      :     1.665497
      py      :     1.423268
      dz2     :     0.005178  d :     0.017312
      dxz     :     0.002641
      dyz     :     0.005596
      dx2y2   :     0.002018
      dxy     :     0.001878

 12 O s       :     3.690415  s :     3.690415
      pz      :     1.580161  p :     4.445226
      px      :     1.267189
      py      :     1.597875
      dz2     :     0.001891  d :     0.013454
      dxz     :     0.004039
      dyz     :     0.002336
      dx2y2   :     0.002216
      dxy     :     0.002973

 13 C s       :     3.076242  s :     3.076242
      pz      :     0.882046  p :     2.739807
      px      :     0.858937
      py      :     0.998824
      dz2     :     0.024957  d :     0.128010
      dxz     :     0.029180
      dyz     :     0.020140
      dx2y2   :     0.031541
      dxy     :     0.022192

 14 O s       :     3.747734  s :     3.747734
      pz      :     1.356049  p :     4.436199
      px      :     1.605033
      py      :     1.475118
      dz2     :     0.004601  d :     0.017312
      dxz     :     0.002962
      dyz     :     0.004903
      dx2y2   :     0.002111
      dxy     :     0.002734

 15 O s       :     3.690417  s :     3.690417
      pz      :     1.631306  p :     4.445213
      px      :     1.394942
      py      :     1.418965
      dz2     :     0.001942  d :     0.013454
      dxz     :     0.003644
      dyz     :     0.002694
      dx2y2   :     0.003574
      dxy     :     0.001600

 16 H s       :     0.916196  s :     0.916196
      pz      :     0.005304  p :     0.022783
      px      :     0.007679
      py      :     0.009799

 17 H s       :     0.915833  s :     0.915833
      pz      :     0.013084  p :     0.022496
      px      :     0.004696
      py      :     0.004716

 18 H s       :     0.919830  s :     0.919830
      pz      :     0.005206  p :     0.022626
      px      :     0.007358
      py      :     0.010062

 19 H s       :     0.927718  s :     0.927718
      pz      :     0.012804  p :     0.022299
      px      :     0.004302
      py      :     0.005193

 20 H s       :     0.927714  s :     0.927714
      pz      :     0.012933  p :     0.022295
      px      :     0.004976
      py      :     0.004387

 21 H s       :     0.919754  s :     0.919754
      pz      :     0.005840  p :     0.022623
      px      :     0.012200
      py      :     0.004583

 22 H s       :     0.916170  s :     0.916170
      pz      :     0.005950  p :     0.022785
      px      :     0.012289
      py      :     0.004546

 23 H s       :     0.915870  s :     0.915870
      pz      :     0.013271  p :     0.022496
      px      :     0.004852
      py      :     0.004372

 24 H s       :     0.755268  s :     0.755268
      pz      :     0.020153  p :     0.064745
      px      :     0.022951
      py      :     0.021640

 25 H s       :     0.927658  s :     0.927658
      pz      :     0.012354  p :     0.022292
      px      :     0.005255
      py      :     0.004683

 26 H s       :     0.919733  s :     0.919733
      pz      :     0.005147  p :     0.022621
      px      :     0.006225
      py      :     0.011249

 27 H s       :     0.916187  s :     0.916187
      pz      :     0.005107  p :     0.022783
      px      :     0.005972
      py      :     0.011704

 28 H s       :     0.915847  s :     0.915847
      pz      :     0.012609  p :     0.022496
      px      :     0.004855
      py      :     0.005032

 29 H s       :     0.755266  s :     0.755266
      pz      :     0.023104  p :     0.064745
      px      :     0.026891
      py      :     0.014751

 30 H s       :     0.755274  s :     0.755274
      pz      :     0.018315  p :     0.064745
      px      :     0.016463
      py      :     0.029968



                     *******************************
                     * LOEWDIN POPULATION ANALYSIS *
                     *******************************

----------------------
LOEWDIN ATOMIC CHARGES
----------------------
   0 C :   -0.076413
   1 C :   -0.175787
   2 P :    0.433727
   3 C :   -0.175832
   4 C :   -0.076393
   5 C :    0.056720
   6 O :   -0.173013
   7 O :   -0.027720
   8 C :   -0.175880
   9 C :   -0.076395
  10 C :    0.056726
  11 O :   -0.173016
  12 O :   -0.027721
  13 C :    0.056727
  14 O :   -0.173018
  15 O :   -0.027719
  16 H :    0.047867
  17 H :    0.050451
  18 H :    0.031175
  19 H :    0.026666
  20 H :    0.026662
  21 H :    0.031182
  22 H :    0.047867
  23 H :    0.050449
  24 H :    0.095499
  25 H :    0.026671
  26 H :    0.031199
  27 H :    0.047871
  28 H :    0.050452
  29 H :    0.095501
  30 H :    0.095496

-------------------------------
LOEWDIN REDUCED ORBITAL CHARGES
-------------------------------
  0 C s       :     2.845404  s :     2.845404
      pz      :     1.064049  p :     3.146041
      px      :     1.038155
      py      :     1.043838
      dz2     :     0.023010  d :     0.084968
      dxz     :     0.012614
      dyz     :     0.008949
      dx2y2   :     0.014559
      dxy     :     0.025836

  1 C s       :     2.892366  s :     2.892366
      pz      :     1.082547  p :     3.211704
      px      :     1.040690
      py      :     1.088468
      dz2     :     0.022101  d :     0.071717
      dxz     :     0.012548
      dyz     :     0.006819
      dx2y2   :     0.010931
      dxy     :     0.019317

  2 P s       :     5.313214  s :     5.313214
      pz      :     3.403168  p :     9.034646
      px      :     2.819076
      py      :     2.812402
      dz2     :     0.023705  d :     0.218414
      dxz     :     0.052448
      dyz     :     0.038661
      dx2y2   :     0.045250
      dxy     :     0.058350

  3 C s       :     2.892363  s :     2.892363
      pz      :     1.092258  p :     3.211754
      px      :     1.081943
      py      :     1.037553
      dz2     :     0.021247  d :     0.071715
      dxz     :     0.007285
      dyz     :     0.011851
      dx2y2   :     0.018369
      dxy     :     0.012963

  4 C s       :     2.845400  s :     2.845400
      pz      :     1.065340  p :     3.146025
      px      :     1.057918
      py      :     1.022767
      dz2     :     0.020344  d :     0.084968
      dxz     :     0.009079
      dyz     :     0.015310
      dx2y2   :     0.019931
      dxy     :     0.020304

  5 C s       :     2.854661  s :     2.854661
      pz      :     0.905734  p :     2.805471
      px      :     0.965281
      py      :     0.934456
      dz2     :     0.039053  d :     0.283148
      dxz     :     0.037776
      dyz     :     0.058274
      dx2y2   :     0.064400
      dxy     :     0.083645

  6 O s       :     3.557128  s :     3.557128
      pz      :     1.415902  p :     4.585409
      px      :     1.433545
      py      :     1.735961
      dz2     :     0.004696  d :     0.030476
      dxz     :     0.012058
      dyz     :     0.002617
      dx2y2   :     0.006685
      dxy     :     0.004419

  7 O s       :     3.443299  s :     3.443299
      pz      :     1.654171  p :     4.557446
      px      :     1.616035
      py      :     1.287240
      dz2     :     0.002608  d :     0.026974
      dxz     :     0.003977
      dyz     :     0.006063
      dx2y2   :     0.005504
      dxy     :     0.008823

  8 C s       :     2.892360  s :     2.892360
      pz      :     1.090631  p :     3.211805
      px      :     1.062732
      py      :     1.058441
      dz2     :     0.020595  d :     0.071714
      dxz     :     0.015063
      dyz     :     0.005318
      dx2y2   :     0.013771
      dxy     :     0.016967

  9 C s       :     2.845397  s :     2.845397
      pz      :     1.060575  p :     3.146030
      px      :     1.028370
      py      :     1.057084
      dz2     :     0.018862  d :     0.084969
      dxz     :     0.022398
      dyz     :     0.005779
      dx2y2   :     0.020541
      dxy     :     0.017389

 10 C s       :     2.854660  s :     2.854660
      pz      :     0.963280  p :     2.805467
      px      :     0.949712
      py      :     0.892474
      dz2     :     0.053217  d :     0.283147
      dxz     :     0.071046
      dyz     :     0.047492
      dx2y2   :     0.049061
      dxy     :     0.062332

 11 O s       :     3.557128  s :     3.557128
      pz      :     1.432704  p :     4.585412
      px      :     1.675325
      py      :     1.477384
      dz2     :     0.007748  d :     0.030476
      dxz     :     0.004376
      dyz     :     0.012089
      dx2y2   :     0.003384
      dxy     :     0.002879

 12 O s       :     3.443298  s :     3.443298
      pz      :     1.615329  p :     4.557450
      px      :     1.323503
      py      :     1.618617
      dz2     :     0.002766  d :     0.026974
      dxz     :     0.009059
      dyz     :     0.003466
      dx2y2   :     0.004509
      dxy     :     0.007173

 13 C s       :     2.854662  s :     2.854662
      pz      :     0.921004  p :     2.805463
      px      :     0.898064
      py      :     0.986394
      dz2     :     0.048798  d :     0.283149
      dxz     :     0.068678
      dyz     :     0.047896
      dx2y2   :     0.071412
      dxy     :     0.046366

 14 O s       :     3.557127  s :     3.557127
      pz      :     1.427279  p :     4.585415
      px      :     1.628660
      py      :     1.529476
      dz2     :     0.006273  d :     0.030476
      dxz     :     0.005619
      dyz     :     0.010512
      dx2y2   :     0.003541
      dxy     :     0.004531

 15 O s       :     3.443301  s :     3.443301
      pz      :     1.652151  p :     4.557443
      px      :     1.438913
      py      :     1.466379
      dz2     :     0.002615  d :     0.026975
      dxz     :     0.007311
      dyz     :     0.005087
      dx2y2   :     0.007976
      dxy     :     0.003985

 16 H s       :     0.882547  s :     0.882547
      pz      :     0.014258  p :     0.069586
      px      :     0.024671
      py      :     0.030657

 17 H s       :     0.880132  s :     0.880132
      pz      :     0.041812  p :     0.069416
      px      :     0.013561
      py      :     0.014043

 18 H s       :     0.897837  s :     0.897837
      pz      :     0.013737  p :     0.070988
      px      :     0.023202
      py      :     0.034049

 19 H s       :     0.901562  s :     0.901562
      pz      :     0.042857  p :     0.071772
      px      :     0.013966
      py      :     0.014949

 20 H s       :     0.901565  s :     0.901565
      pz      :     0.043381  p :     0.071773
      px      :     0.013861
      py      :     0.014530

 21 H s       :     0.897827  s :     0.897827
      pz      :     0.015508  p :     0.070991
      px      :     0.040784
      py      :     0.014700

 22 H s       :     0.882547  s :     0.882547
      pz      :     0.016363  p :     0.069587
      px      :     0.039142
      py      :     0.014082

 23 H s       :     0.880136  s :     0.880136
      pz      :     0.041864  p :     0.069415
      px      :     0.013672
      py      :     0.013879

 24 H s       :     0.734474  s :     0.734474
      pz      :     0.055756  p :     0.170026
      px      :     0.064660
      py      :     0.049610

 25 H s       :     0.901554  s :     0.901554
      pz      :     0.042301  p :     0.071775
      px      :     0.016048
      py      :     0.013427

 26 H s       :     0.897810  s :     0.897810
      pz      :     0.013828  p :     0.070991
      px      :     0.020724
      py      :     0.036439

 27 H s       :     0.882543  s :     0.882543
      pz      :     0.013915  p :     0.069586
      px      :     0.018084
      py      :     0.037587

 28 H s       :     0.880132  s :     0.880132
      pz      :     0.040106  p :     0.069416
      px      :     0.015464
      py      :     0.013846

 29 H s       :     0.734473  s :     0.734473
      pz      :     0.064995  p :     0.170027
      px      :     0.066032
      py      :     0.039000

 30 H s       :     0.734478  s :     0.734478
      pz      :     0.051104  p :     0.170026
      px      :     0.038435
      py      :     0.080487



                      *****************************
                      * MAYER POPULATION ANALYSIS *
                      *****************************

  NA   - Mulliken gross atomic population
  ZA   - Total nuclear charge
  QA   - Mulliken gross atomic charge
  VA   - Mayer's total valence
  BVA  - Mayer's bonded valence
  FA   - Mayer's free valence

  ATOM       NA         ZA         QA         VA         BVA        FA
  0 C      5.9820     6.0000     0.0180     3.8626     3.8626    -0.0000
  1 C      6.1674     6.0000    -0.1674     3.9610     3.9610    -0.0000
  2 P     14.8988    15.0000     0.1012     3.0795     3.0795    -0.0000
  3 C      6.1677     6.0000    -0.1677     3.9612     3.9612    -0.0000
  4 C      5.9819     6.0000     0.0181     3.8627     3.8627    -0.0000
  5 C      5.9441     6.0000     0.0559     4.4162     4.4162    -0.0000
  6 O      8.2012     8.0000    -0.2012     2.2953     2.2953    -0.0000
  7 O      8.1491     8.0000    -0.1491     2.2830     2.2830    -0.0000
  8 C      6.1680     6.0000    -0.1680     3.9613     3.9613    -0.0000
  9 C      5.9818     6.0000     0.0182     3.8626     3.8626    -0.0000
 10 C      5.9440     6.0000     0.0560     4.4162     4.4162    -0.0000
 11 O      8.2012     8.0000    -0.2012     2.2953     2.2953    -0.0000
 12 O      8.1491     8.0000    -0.1491     2.2830     2.2830    -0.0000
 13 C      5.9441     6.0000     0.0559     4.4161     4.4161    -0.0000
 14 O      8.2012     8.0000    -0.2012     2.2954     2.2954    -0.0000
 15 O      8.1491     8.0000    -0.1491     2.2830     2.2830    -0.0000
 16 H      0.9390     1.0000     0.0610     1.0033     1.0033    -0.0000
 17 H      0.9383     1.0000     0.0617     1.0008     1.0008    -0.0000
 18 H      0.9425     1.0000     0.0575     0.9944     0.9944    -0.0000
 19 H      0.9500     1.0000     0.0500     0.9933     0.9933    -0.0000
 20 H      0.9500     1.0000     0.0500     0.9933     0.9933    -0.0000
 21 H      0.9424     1.0000     0.0576     0.9943     0.9943    -0.0000
 22 H      0.9390     1.0000     0.0610     1.0033     1.0033    -0.0000
 23 H      0.9384     1.0000     0.0616     1.0008     1.0008    -0.0000
 24 H      0.8200     1.0000     0.1800     1.0407     1.0407    -0.0000
 25 H      0.9499     1.0000     0.0501     0.9932     0.9932    -0.0000
 26 H      0.9424     1.0000     0.0576     0.9943     0.9943    -0.0000
 27 H      0.9390     1.0000     0.0610     1.0033     1.0033    -0.0000
 28 H      0.9383     1.0000     0.0617     1.0008     1.0008    -0.0000
 29 H      0.8200     1.0000     0.1800     1.0407     1.0407    -0.0000
 30 H      0.8200     1.0000     0.1800     1.0407     1.0407    -0.0000

  Mayer bond orders larger than 0.100000
B(  0-C ,  1-C ) :   1.0671 B(  0-C , 13-C ) :   0.9752 B(  0-C , 16-H ) :   0.9105 
B(  0-C , 17-H ) :   0.9106 B(  1-C ,  2-P ) :   0.9688 B(  1-C , 18-H ) :   0.9318 
B(  1-C , 19-H ) :   0.9175 B(  2-P ,  3-C ) :   0.9688 B(  2-P ,  8-C ) :   0.9690 
B(  3-C ,  4-C ) :   1.0671 B(  3-C , 20-H ) :   0.9174 B(  3-C , 21-H ) :   0.9318 
B(  4-C ,  5-C ) :   0.9752 B(  4-C , 22-H ) :   0.9105 B(  4-C , 23-H ) :   0.9106 
B(  5-C ,  6-O ) :   2.0858 B(  5-C ,  7-O ) :   1.2590 B(  7-O , 24-H ) :   0.9401 
B(  8-C ,  9-C ) :   1.0671 B(  8-C , 25-H ) :   0.9174 B(  8-C , 26-H ) :   0.9318 
B(  9-C , 10-C ) :   0.9752 B(  9-C , 27-H ) :   0.9105 B(  9-C , 28-H ) :   0.9106 
B( 10-C , 11-O ) :   2.0858 B( 10-C , 12-O ) :   1.2590 B( 12-O , 29-H ) :   0.9401 
B( 13-C , 14-O ) :   2.0858 B( 13-C , 15-O ) :   1.2590 B( 15-O , 30-H ) :   0.9401 


-------
TIMINGS
-------

Total SCF time: 0 days 0 hours 0 min 7 sec 

Total time                  ....       7.450 sec
Sum of individual times     ....       7.386 sec  ( 99.1%)

SCF preparation             ....       0.094 sec  (  1.3%)
Fock matrix formation       ....       6.618 sec  ( 88.8%)
  Startup                   ....       0.036 sec  (  0.5% of F)
  Split-RI-J                ....       2.358 sec  ( 35.6% of F)
  XC integration            ....       4.060 sec  ( 61.3% of F)
    Basis function eval.    ....       1.145 sec  ( 28.2% of XC)
    Density eval.           ....       1.007 sec  ( 24.8% of XC)
    XC-Functional eval.     ....       0.128 sec  (  3.2% of XC)
    XC-Potential eval.      ....       0.864 sec  ( 21.3% of XC)
Diagonalization             ....       0.000 sec  (  0.0%)
Density matrix formation    ....       0.093 sec  (  1.2%)
Total Energy calculation    ....       0.041 sec  (  0.6%)
Population analysis         ....       0.048 sec  (  0.6%)
Orbital Transformation      ....       0.049 sec  (  0.7%)
Orbital Orthonormalization  ....       0.000 sec  (  0.0%)
DIIS solution               ....       0.242 sec  (  3.2%)
SOSCF solution              ....       0.201 sec  (  2.7%)
Finished LeanSCF after   7.5 sec

Maximum memory used throughout the entire LEANSCF-calculation: 28.8 MB


-------------------------------------------------------------------------------
                          DFT DISPERSION CORRECTION                            
                                                                               
                              DFTD3 V3.1  Rev 1                                
                          USING Becke-Johnson damping                          
-------------------------------------------------------------------------------
The BP86 functional is recognized
Active option DFTDOPT                   ...         4   

molecular C6(AA) [au] = 9828.618637 


            DFT-D V3
 parameters
 s6 scaling factor         :     1.0000 
 a1 scaling factor         :     0.3946 
 s8 scaling factor         :     3.2822 
 a2 scaling factor         :     4.8516 
 ad hoc parameters k1-k3   :    16.0000     1.3333    -4.0000 

 Edisp/kcal,au: -32.462906237286  -0.051732928531 
 E6   /kcal   : -12.327100813 
 E8   /kcal   : -20.135805424 
 % E8         :  62.027118820 

-------------------------   ----------------
Dispersion correction           -0.051732929
-------------------------   ----------------


-------------------------   --------------------
FINAL SINGLE POINT ENERGY     -1144.158331035768
-------------------------   --------------------



           ************************************************************
           *        Program running with 6 parallel MPI-processes     *
           *              working on a common directory               *
           ************************************************************
------------------------------------------------------------------------------
[...]
      dz2     :     0.004019  d :     0.030653
      dxz     :     0.008330
      dyz     :     0.000703
      dx2y2   :     0.011282
      dxy     :     0.006319

  7 O s       :     3.450021  s :     3.450021
      pz      :     1.690766  p :     4.559580
      px      :     1.588730
      py      :     1.280084
      dz2     :     0.003581  d :     0.026160
      dxz     :     0.002467
      dyz     :     0.003056
      dx2y2   :     0.004711
      dxy     :     0.012345

  8 C s       :     2.903972  s :     2.903972
      pz      :     1.084709  p :     3.207314
      px      :     1.063166
      py      :     1.059438
      dz2     :     0.020395  d :     0.069448
      dxz     :     0.014095
      dyz     :     0.004892
      dx2y2   :     0.012531
      dxy     :     0.017535

  9 C s       :     2.857589  s :     2.857589
      pz      :     1.064009  p :     3.144203
      px      :     1.024388
      py      :     1.055806
      dz2     :     0.020369  d :     0.082496
      dxz     :     0.016489
      dyz     :     0.005525
      dx2y2   :     0.023030
      dxy     :     0.017083

 10 C s       :     2.859828  s :     2.859828
      pz      :     0.888473  p :     2.799188
      px      :     0.968612
      py      :     0.942103
      dz2     :     0.033235  d :     0.279677
      dxz     :     0.035167
      dyz     :     0.050049
      dx2y2   :     0.076239
      dxy     :     0.084988

 11 O s       :     3.556375  s :     3.556375
      pz      :     1.418198  p :     4.581043
      px      :     1.662017
      py      :     1.500828
      dz2     :     0.004054  d :     0.030653
      dxz     :     0.002619
      dyz     :     0.010241
      dx2y2   :     0.007099
      dxy     :     0.006639

 12 O s       :     3.450005  s :     3.450005
      pz      :     1.663104  p :     4.559524
      px      :     1.322239
      py      :     1.574181
      dz2     :     0.002786  d :     0.026162
      dxz     :     0.004987
      dyz     :     0.003238
      dx2y2   :     0.006808
      dxy     :     0.008341

 13 C s       :     2.859830  s :     2.859830
      pz      :     0.853406  p :     2.799196
      px      :     0.911359
      py      :     1.034431
      dz2     :     0.027667  d :     0.279698
      dxz     :     0.049360
      dyz     :     0.031085
      dx2y2   :     0.107627
      dxy     :     0.063959

 14 O s       :     3.556369  s :     3.556369
      pz      :     1.401139  p :     4.581067
      px      :     1.641104
      py      :     1.538824
      dz2     :     0.003940  d :     0.030652
      dxz     :     0.003873
      dyz     :     0.007259
      dx2y2   :     0.006066
      dxy     :     0.009514

 15 O s       :     3.449960  s :     3.449960
      pz      :     1.697992  p :     4.559525
      px      :     1.408440
      py      :     1.453093
      dz2     :     0.003664  d :     0.026164
      dxz     :     0.004585
      dyz     :     0.001673
      dx2y2   :     0.012198
      dxy     :     0.004044

 16 H s       :     0.886412  s :     0.886412
      pz      :     0.014748  p :     0.067207
      px      :     0.025207
      py      :     0.027252

 17 H s       :     0.879188  s :     0.879188
      pz      :     0.040858  p :     0.066831
      px      :     0.012386
      py      :     0.013586

 18 H s       :     0.895636  s :     0.895636
      pz      :     0.013236  p :     0.069677
      px      :     0.021836
      py      :     0.034605

 19 H s       :     0.903891  s :     0.903891
      pz      :     0.041558  p :     0.068273
      px      :     0.012710
      py      :     0.014005

 20 H s       :     0.903868  s :     0.903868
      pz      :     0.041449  p :     0.068296
      px      :     0.013198
      py      :     0.013648

 21 H s       :     0.895736  s :     0.895736
      pz      :     0.015217  p :     0.069573
      px      :     0.040607
      py      :     0.013749

 22 H s       :     0.886337  s :     0.886337
      pz      :     0.017640  p :     0.067175
      px      :     0.036437
      py      :     0.013098

 23 H s       :     0.879159  s :     0.879159
      pz      :     0.040092  p :     0.066810
      px      :     0.013861
      py      :     0.012856

 24 H s       :     0.733458  s :     0.733458
      pz      :     0.046848  p :     0.168569
      px      :     0.068222
      py      :     0.053499

 25 H s       :     0.903921  s :     0.903921
      pz      :     0.040859  p :     0.068278
      px      :     0.015079
      py      :     0.012340

 26 H s       :     0.895660  s :     0.895660
      pz      :     0.013037  p :     0.069627
      px      :     0.021104
      py      :     0.035486

 27 H s       :     0.886245  s :     0.886245
      pz      :     0.014123  p :     0.067212
      px      :     0.016018
      py      :     0.037071

 28 H s       :     0.879208  s :     0.879208
      pz      :     0.040623  p :     0.066819
      px      :     0.013603
      py      :     0.012593

 29 H s       :     0.733446  s :     0.733446
      pz      :     0.053488  p :     0.168568
      px      :     0.077066
      py      :     0.038015

 30 H s       :     0.733440  s :     0.733440
      pz      :     0.044173  p :     0.168559
      px      :     0.034993
      py      :     0.089393



                      *****************************
                      * MAYER POPULATION ANALYSIS *
                      *****************************

  NA   - Mulliken gross atomic population
  ZA   - Total nuclear charge
  QA   - Mulliken gross atomic charge
  VA   - Mayer's total valence
  BVA  - Mayer's bonded valence
  FA   - Mayer's free valence

  ATOM       NA         ZA         QA         VA         BVA        FA
  0 C      6.0089     6.0000    -0.0089     3.8604     3.8604    -0.0000
  1 C      6.1767     6.0000    -0.1767     3.9417     3.9417    -0.0000
  2 P     14.8797    15.0000     0.1203     3.0773     3.0773    -0.0000
  3 C      6.1768     6.0000    -0.1768     3.9426     3.9426    -0.0000
  4 C      6.0084     6.0000    -0.0084     3.8600     3.8600    -0.0000
  5 C      5.9310     6.0000     0.0690     4.4021     4.4021    -0.0000
  6 O      8.1945     8.0000    -0.1945     2.3023     2.3023    -0.0000
  7 O      8.1593     8.0000    -0.1593     2.2782     2.2782    -0.0000
  8 C      6.1769     6.0000    -0.1769     3.9423     3.9423    -0.0000
  9 C      6.0091     6.0000    -0.0091     3.8608     3.8608    -0.0000
 10 C      5.9311     6.0000     0.0689     4.4020     4.4020    -0.0000
 11 O      8.1945     8.0000    -0.1945     2.3024     2.3024    -0.0000
 12 O      8.1592     8.0000    -0.1592     2.2783     2.2783    -0.0000
 13 C      5.9311     6.0000     0.0689     4.4018     4.4018    -0.0000
 14 O      8.1944     8.0000    -0.1944     2.3024     2.3024    -0.0000
 15 O      8.1592     8.0000    -0.1592     2.2784     2.2784    -0.0000
 16 H      0.9386     1.0000     0.0614     1.0009     1.0009     0.0000
 17 H      0.9331     1.0000     0.0669     0.9970     0.9970     0.0000
 18 H      0.9306     1.0000     0.0694     1.0003     1.0003     0.0000
 19 H      0.9506     1.0000     0.0494     0.9856     0.9856    -0.0000
 20 H      0.9506     1.0000     0.0494     0.9859     0.9859    -0.0000
 21 H      0.9311     1.0000     0.0689     0.9997     0.9997    -0.0000
 22 H      0.9387     1.0000     0.0613     1.0010     1.0010     0.0000
 23 H      0.9333     1.0000     0.0667     0.9968     0.9968     0.0000
 24 H      0.8166     1.0000     0.1834     1.0342     1.0342    -0.0000
 25 H      0.9506     1.0000     0.0494     0.9857     0.9857    -0.0000
 26 H      0.9307     1.0000     0.0693     0.9999     0.9999    -0.0000
 27 H      0.9383     1.0000     0.0617     1.0009     1.0009    -0.0000
 28 H      0.9332     1.0000     0.0668     0.9969     0.9969    -0.0000
 29 H      0.8166     1.0000     0.1834     1.0342     1.0342     0.0000
 30 H      0.8166     1.0000     0.1834     1.0341     1.0341    -0.0000

  Mayer bond orders larger than 0.100000
B(  0-C ,  1-C ) :   1.0595 B(  0-C , 13-C ) :   0.9716 B(  0-C , 16-H ) :   0.9190 
B(  0-C , 17-H ) :   0.9058 B(  1-C ,  2-P ) :   0.9664 B(  1-C , 18-H ) :   0.9256 
B(  1-C , 19-H ) :   0.9248 B(  2-P ,  3-C ) :   0.9664 B(  2-P ,  8-C ) :   0.9666 
B(  3-C ,  4-C ) :   1.0593 B(  3-C , 20-H ) :   0.9247 B(  3-C , 21-H ) :   0.9260 
B(  4-C ,  5-C ) :   0.9717 B(  4-C , 22-H ) :   0.9189 B(  4-C , 23-H ) :   0.9060 
B(  5-C ,  6-O ) :   2.0934 B(  5-C ,  7-O ) :   1.2465 B(  7-O , 24-H ) :   0.9397 
B(  8-C ,  9-C ) :   1.0595 B(  8-C , 25-H ) :   0.9247 B(  8-C , 26-H ) :   0.9259 
B(  9-C , 10-C ) :   0.9717 B(  9-C , 27-H ) :   0.9189 B(  9-C , 28-H ) :   0.9059 
B( 10-C , 11-O ) :   2.0932 B( 10-C , 12-O ) :   1.2465 B( 12-O , 29-H ) :   0.9397 
B( 13-C , 14-O ) :   2.0932 B( 13-C , 15-O ) :   1.2465 B( 15-O , 30-H ) :   0.9397 


-------
TIMINGS
-------

Total SCF time: 0 days 0 hours 0 min 4 sec 

Total time                  ....       4.098 sec
Sum of individual times     ....       4.056 sec  ( 99.0%)

SCF preparation             ....       0.101 sec  (  2.5%)
Fock matrix formation       ....       3.513 sec  ( 85.7%)
  Startup                   ....       0.025 sec  (  0.7% of F)
  Split-RI-J                ....       1.205 sec  ( 34.3% of F)
  XC integration            ....       2.199 sec  ( 62.6% of F)
    Basis function eval.    ....       0.639 sec  ( 29.1% of XC)
    Density eval.           ....       0.574 sec  ( 26.1% of XC)
    XC-Functional eval.     ....       0.081 sec  (  3.7% of XC)
    XC-Potential eval.      ....       0.402 sec  ( 18.3% of XC)
Diagonalization             ....       0.000 sec  (  0.0%)
Density matrix formation    ....       0.054 sec  (  1.3%)
Total Energy calculation    ....       0.022 sec  (  0.5%)
Population analysis         ....       0.076 sec  (  1.9%)
Orbital Transformation      ....       0.049 sec  (  1.2%)
Orbital Orthonormalization  ....       0.000 sec  (  0.0%)
DIIS solution               ....       0.088 sec  (  2.1%)
SOSCF solution              ....       0.153 sec  (  3.7%)
Finished LeanSCF after   4.1 sec

Maximum memory used throughout the entire LEANSCF-calculation: 30.0 MB


-------------------------------------------------------------------------------
                          DFT DISPERSION CORRECTION                            
                                                                               
                              DFTD3 V3.1  Rev 1                                
                          USING Becke-Johnson damping                          
-------------------------------------------------------------------------------
The BP86 functional is recognized
Active option DFTDOPT                   ...         4   

molecular C6(AA) [au] = 9833.961805 


            DFT-D V3
 parameters
 s6 scaling factor         :     1.0000 
 a1 scaling factor         :     0.3946 
 s8 scaling factor         :     3.2822 
 a2 scaling factor         :     4.8516 
 ad hoc parameters k1-k3   :    16.0000     1.3333    -4.0000 

 Edisp/kcal,au: -32.172204489494  -0.051269665858 
 E6   /kcal   : -12.210446948 
 E8   /kcal   : -19.961757542 
 % E8         :  62.046595372 

-------------------------   ----------------
Dispersion correction           -0.051269666
-------------------------   ----------------


-------------------------   --------------------
FINAL SINGLE POINT ENERGY     -1144.164313379513
-------------------------   --------------------

                                *** OPTIMIZATION RUN DONE ***



           ************************************************************
           *        Program running with 6 parallel MPI-processes     *
           *              working on a common directory               *
           ************************************************************

------------------------------------------------------------------------------
                              ORCA PROPERTY CALCULATIONS
------------------------------------------------------------------------------

GBWName                                 ... data/geom_opt_P_BP86/119411/119411.gbw
Number of atoms                         ...     31
Number of basis functions               ...    303
Max core memory                         ...   1024 MB

Electric properties:
Dipole moment                           ... YES
Quadrupole moment                       ...  NO
Static polarizability (Dipole/Dipole)   ...  NO
Static polarizability (Dipole/Quad.)    ...  NO
Static polarizability (Quad./Quad.)     ...  NO
Static polarizability (Velocity)        ...  NO

Atomic electric properties:
Dipole moment                           ...  NO
Quadrupole moment                       ...  NO
Static polarizability                   ...  NO

Choice of electric origin               ... Center of mass
Position of electric origin             ...     0.003907     0.000866    -0.200336

General magnetic properties:
Magnetizability                         ...  NO

EPR properties:
g-Tensor (aka g-matrix)                 ...  NO
Zero-Field splitting spin-orbit         ...  NO
Zero-field splitting spin-spin          ...  NO
Hyperfine couplings                     ...  NO (   0 nuclei)
Quadrupole couplings                    ...  NO (   0 nuclei)
Contact density                         ...  NO (   0 nuclei)

NMR properties:
Chemical shifts                         ...  NO (   0 nuclei)
Spin-rotation constants                 ...  NO (   0 nuclei)
Spin-spin couplings                     ...  NO (   0 nuclei,    0 pairs)

Choice of magnetic origin               ... GIAO
Position of magnetic origin             ...     0.000000     0.000000     0.000000

Properties with geometric perturbations:
SCF Hessian                             ...  NO
IR spectrum                             ...  NO
VCD spectrum                            ...  NO
X-ray spectroscopy properties:
SCF XES/XAS/RIXS spectra                ...  NO


-------------
DIPOLE MOMENT
-------------

Method             : SCF
Type of density    : Electron Density
Multiplicity       :   1
Irrep              :   0
Energy             : -1144.1130437136557703 Eh
Relativity type    : 
Basis              : AO
                                X                 Y                 Z
Electronic contribution:      0.094135928       0.035767650       0.604095141
Nuclear contribution   :     -0.072098274      -0.021339540      -0.397073946
                        -----------------------------------------
Total Dipole Moment    :      0.022037654       0.014428110       0.207021195
                        -----------------------------------------
Magnitude (a.u.)       :      0.208690210
Magnitude (Debye)      :      0.530448360



--------------------
Rotational spectrum 
--------------------
 
Rotational constants in cm-1:             0.009615             0.009593             0.004959 
Rotational constants in MHz :           288.249287           287.577740           148.659069 

Dipole components along the rotational axes: 
x,y,z [a.u.] :     0.000440    -0.005073     0.208628 
x,y,z [Debye]:     0.001119    -0.012895     0.530290 

 

Dipole moment calculation done in   0.0 sec 

Maximum memory used throughout the entire PROP-calculation: 14.7 MB

--------------------------------
SUGGESTED CITATIONS FOR THIS RUN
--------------------------------

Below you find a list of papers that are relevant to this ORCA run
We neither can nor want to force you to cite these papers, but we appreciate if you do
You receive ORCA, which is the product of decades of hard work by many enthusiastic individuals, for free
The only thing we kindly ask in return is that you cite our papers,
We deeply appreciate it, if you show your appreciation for ORCA by not just citing the generic ORCA reference.

Please note that relegating all ORCA citations to the supporting information does *not* help us.
SI sections are not indexed - citations you put there will not count into any citation statistics
But we need these citations in order to attract the funding resources that allow us to do what we are doing

Therefore, if you are a happy ORCA user, please consider citing a few of the papers listed below in the main body of your paper

In addition to the list printed below, the program has created the file data/geom_opt_P_BP86/119411/119411.bibtex that contains the list in bibtex format
You can import this file easily into all common literature databanks and citation aid programs


List of essential papers. We consider these as the minimum necessary citations

  1. Neese,F.
     Software update: the ORCA program system, version 5.0
     WIRES Comput. Molec. Sci., 2022 12(1)e1606
     doi.org/10.1002/wcms.1606

List of papers to cite with high priority. The work reported in these papers was absolutely
necessary for this run to complete.
Our perspective: the developers of density functionals and basis sets usually get cited in chemistry papers
Good! But without the algorithms to do something with them, the functionals or basis sets would not do anything.
Hence, in our opinion, the algorithm design and method developments papers are equally worthy of getting cited

  1. Neese,F.
     An improvement of the resolution of the identity approximation for the formation of the Coulomb matrix
     J. Comp. Chem., 2003 24(14)1740-1747
     doi.org/10.1002/jcc.10318
  2. Neese,F.
     The SHARK Integral Generation and Digestion System
     J. Comp. Chem., 2022  1-16
     doi.org/10.1002/jcc.26942
  3. Grimme,S.; Antony,J.; Ehrlich,S.; Krieg,H.
     A consistent and accurate ab initio parametrization of density functional dispersion correction (DFT-D) for the 94 elements H-Pu
     J. Chem. Phys., 2010 132 154104-XXXX
     doi.org/10.1063/1.3382344
  4. Grimme,S.; Ehrlich,S.; Goerigk,L.
     Effect of the damping function in dispersion corrected density functional theory
     J. Comput. Chem., 2011 32(7)1456-1465
     doi.org/10.1002/jcc.21759

List of suggested additional citations. These are papers that are important in the 'surrounding' of 
of this run, or papers that preceded the highly important papers. If you like your results we are grateful for a citation.

  1. Neese,F.
     The ORCA program system
     WIRES Comput. Molec. Sci., 2012 2(1)73-78
     doi.org/10.1002/wcms.81
  2. Neese,F.
     Software update: the ORCA program system, version 4.0
     WIRES Comput. Molec. Sci., 2018 8(1)1-6
     doi.org/10.1002/wcms.1327
  3. Neese,F.; Wennmohs,F.; Becker,U.; Riplinger,C.
     The ORCA quantum chemistry program package
     J. Chem. Phys., 2020 152 Art. No. L224108
     doi.org/10.1063/5.0004608

List of optional additional citations

  1. Neese,F.
     Approximate second-order SCF convergence for spin unrestricted wavefunctions
     Chem. Phys. Lett., 2000 325(1-3)93-98
     doi.org/10.1016/s0009-2614(00)00662-x

Timings for individual modules:

Sum of individual times          ...      133.132 sec (=   2.219 min)
Startup calculation              ...       13.289 sec (=   0.221 min)  10.0 %
SCF iterations                   ...       74.926 sec (=   1.249 min)  56.3 %
Property calculations            ...        0.154 sec (=   0.003 min)   0.1 %
SCF Gradient evaluation          ...       44.610 sec (=   0.743 min)  33.5 %
Geometry relaxation              ...        0.153 sec (=   0.003 min)   0.1 %
                             ****ORCA TERMINATED NORMALLY****
TOTAL RUN TIME: 0 days 0 hours 2 minutes 15 seconds 704 msec
