
                                 *****************
                                 * O   R   C   A *
                                 *****************

                                            #,                                       
                                            ###                                      
                                            ####                                     
                                            #####                                    
                                            ######                                   
                                           ########,                                 
                                     ,,################,,,,,                         
                               ,,#################################,,                 
                          ,,##########################################,,             
                       ,#########################################, ''#####,          
                    ,#############################################,,   '####,        
                  ,##################################################,,,,####,       
                ,###########''''           ''''###############################       
              ,#####''   ,,,,##########,,,,          '''####'''          '####       
            ,##' ,,,,###########################,,,                        '##       
           ' ,,###''''                  '''############,,,                           
         ,,##''                                '''############,,,,        ,,,,,,###''
      ,#''                                            '''#######################'''  
     '                                                          ''''####''''         
             ,#######,   #######,   ,#######,      ##                                
            ,#'     '#,  ##    ##  ,#'     '#,    #''#        ,####,   ,####,        
            ##       ##  ##   ,#'  ##            #'  '#       #'       #'  '#        
            ##       ##  #######   ##           ,######,      #####,   #    #        
            '#,     ,#'  ##    ##  '#,     ,#' ,#      #,     #,   #   #,  ,#        
             '#######'   ##     ##  '#######'  #'      '#     '####' # '####'        



                #########################################################
                #                        -***-                          #
                #          Department of theory and spectroscopy        #
                #                                                       #
                #                      Frank Neese                      #
                #                                                       #
                #     Directorship, Architecture, Infrastructure        #
                #                    SHARK, DRIVERS                     #
                #        Core code/Algorithms in most modules           #
                #                                                       #
                #        Max Planck Institute fuer Kohlenforschung      #
                #                Kaiser Wilhelm Platz 1                 #
                #                 D-45470 Muelheim/Ruhr                 #
                #                      Germany                          #
                #                                                       #
                #                  All rights reserved                  #
                #                        -***-                          #
                #########################################################


                         Program Version 6.0.0  -   RELEASE   -


 With contributions from (in alphabetic order):
   Daniel Aravena         : Magnetic Suceptibility
   Michael Atanasov       : Ab Initio Ligand Field Theory (pilot matlab implementation)
   Alexander A. Auer      : GIAO ZORA, VPT2 properties, NMR spectrum
   Ute Becker             : All parallelization in ORCA, NUMFREQ, NUMCALC
   Giovanni Bistoni       : ED, misc. LED, open-shell LED, HFLD
   Martin Brehm           : Molecular dynamics
   Dmytro Bykov           : pre 5.0 version of the SCF Hessian
   Marcos Casanova-Páez   : Triplet and SCS-CIS(D). UHF-(DLPNO)-IP/EA/STEOM-CCSD. UHF-CVS-IP/STEOM-CCSD
   Vijay G. Chilkuri      : MRCI spin determinant printing, contributions to CSF-ICE
   Pauline Colinet        : FMM embedding
   Dipayan Datta          : RHF DLPNO-CCSD density
   Achintya Kumar Dutta   : EOM-CC, STEOM-CC
   Nicolas Foglia         : Exact transition moments, OPA infrastructure, MCD improvements
   Dmitry Ganyushin       : Spin-Orbit,Spin-Spin,Magnetic field MRCI
   Miquel Garcia          : C-PCM and meta-GGA Hessian, CCSD/C-PCM, Gaussian charge scheme
   Tiago L. C. Gouveia    : GS-ROHF, GS-ROCIS
   Yang Guo               : DLPNO-NEVPT2, F12-NEVPT2, CIM, IAO-localization
   Andreas Hansen         : Spin unrestricted coupled pair/coupled cluster methods
   Ingolf Harden          : AUTO-CI MPn and infrastructure 
   Benjamin Helmich-Paris : MC-RPA, TRAH-(SCF,CASSCF), AVAS, COSX integrals, SCF dyn. polar.
   Lee Huntington         : MR-EOM, pCC
   Robert Izsak           : Overlap fitted RIJCOSX, COSX-SCS-MP3, EOM
   Riya Kayal             : Wick's Theorem for AUTO-CI, AUTO-CI UHF-CCSDT
   Emily Kempfer          : AUTO-CI, RHF CISDT and CCSDT
   Christian Kollmar      : KDIIS, OOCD, Brueckner-CCSD(T), CCSD density, CASPT2, CASPT2-K, improved NEVPT2
   Axel Koslowski         : Symmetry handling
   Simone Kossmann        : Meta GGA functionals, TD-DFT gradient, OOMP2, (MP2 Hessian; deprecated post 5.0)
   Lucas Lang             : DCDCAS
   Marvin Lechner         : AUTO-CI (C++ implementation), FIC-MRCC
   Spencer Leger          : CASSCF response
   Dagmar Lenk            : GEPOL surface, SMD, ORCA-2-JSON
   Dimitrios Liakos       : Extrapolation schemes; Compound Job, initial MDCI parallelization
   Dimitrios Manganas     : Further ROCIS development; embedding schemes. LFT, Crystal Embedding
   Dimitrios Pantazis     : SARC Basis sets
   Anastasios Papadopoulos: AUTO-CI, single reference methods and gradients
   Taras Petrenko         : pre 6.0 DFT Hessian and TD-DFT gradient, (ASA, deprecated), ECA, 1-Electron XAS/XES, NRVS
   Peter Pinski           : DLPNO-MP2, DLPNO-MP2 Gradient
   Christoph Reimann      : Effective Core Potentials
   Marius Retegan         : Local ZFS, SOC
   Christoph Riplinger    : Optimizer, TS searches, QM/MM, DLPNO-CCSD(T), (RO)-DLPNO pert. Triples
   Michael Roemelt        : Original ROCIS implementation
   Masaaki Saitow         : Open-shell DLPNO-CCSD energy and density
   Barbara Sandhoefer     : DKH picture change effects
   Kantharuban Sivalingam : CASSCF convergence/infrastructure, NEVPT2 and variants, FIC-MRCI
   Bernardo de Souza      : ESD, SOC TD-DFT
   Georgi Stoychev        : AutoAux, RI-MP2 NMR, DLPNO-MP2 response, X2C
   Van Anh Tran           : RI-MP2 g-tensors
   Willem Van den Heuvel  : Paramagnetic NMR
   Zikuan Wang            : NOTCH, Electric field optimization 
   Frank Wennmohs         : Technical directorship and infrastructure
   Hang Xu                : AUTO-CI-Response properties 


 We gratefully acknowledge several colleagues who have allowed us to
 interface, adapt or use parts of their codes:
   Stefan Grimme, W. Hujo, H. Kruse, P. Pracht,  : VdW corrections, initial TS optimization,
                  C. Bannwarth, S. Ehlert,         DFT functionals, gCP, sTDA/sTD-DF
                  L. Wittmann, M. Mueller
   Ed Valeev, F. Pavosevic, A. Kumar             : LibInt (2-el integral package), F12 methods
   Garnet Chan, S. Sharma, J. Yang, R. Olivares  : DMRG
   Ulf Ekstrom                                   : XCFun DFT Library
   Mihaly Kallay                                 : mrcc  (arbitrary order and MRCC methods)
   Frank Weinhold                                : gennbo (NPA and NBO analysis)
   Simon Mueller                                 : openCOSMO-RS
   Christopher J. Cramer and Donald G. Truhlar   : smd solvation model
   Lars Goerigk                                  : TD-DFT with DH, B97 family of functionals
   V. Asgeirsson, H. Jonsson                     : NEB implementation
   FAccTs GmbH                                   : IRC, NEB, NEB-TS, DLPNO-Multilevel, CI-OPT
                                                   MM, QMMM, 2- and 3-layer-ONIOM, Crystal-QMMM,
                                                   LR-CPCM, SF, NACMEs, symmetry and pop. for TD-DFT,
                                                   nearIR, NL-DFT gradient (VV10), updates on ESD,
                                                   ML-optimized integration grids, MBIS, APM,
                                                   GOAT, DOCKER, SOLVATOR, interface openCOSMO-RS
   S Lehtola, MJT Oliveira, MAL Marques          : LibXC Library
   Liviu Ungur et al                             : ANISO software


 Your calculation uses the libint2 library for the computation of 2-el integrals
 For citations please refer to: http://libint.valeyev.net

 Your ORCA version has been built with support for libXC version: 6.2.2
 For citations please refer to: https://libxc.gitlab.io

 This ORCA versions uses:
   CBLAS   interface :  Fast vector & matrix operations
   LAPACKE interface :  Fast linear algebra routines
   Shared memory     :  Shared parallel matrices


Your calculation utilizes the atom-pairwise dispersion correction
with the zero-damping scheme (D30)


XCFun DFT library Copyright 2009-2010 Ulf Ekstrom and contributors.
See http://admol.org/xcfun for more information.
This is free software; see the source code for copying conditions.
There is ABSOLUTELY NO WARRANTY; not even for MERCHANTABILITY or FITNESS FOR A PARTICULAR PURPOSE.
For details see the documentation.
Scientific users of this library should cite U. Ekstrom, L. Visscher, R. Bast, A. J. Thorvaldsen and K. Ruud;
J.Chem.Theor.Comp. 2010, DOI: 10.1021/ct100117s
XCFun Version 0.99 

Warning: RI is on but no J-basis has been assigned. Assigning Def2/J (nothing to worry about!)
================================================================================

----- Orbital basis set information -----
Your calculation utilizes the basis: def2-TZVP
   F. Weigend and R. Ahlrichs, Phys. Chem. Chem. Phys. 7, 3297 (2005).

----- AuxJ basis set information -----
Your calculation utilizes the auxiliary basis: def2/J
   F. Weigend, Phys. Chem. Chem. Phys. 8, 1057 (2006).

================================================================================
                                        WARNINGS
                       Please study these warnings very carefully!
================================================================================

WARNING: Functional chosen is sensitive to the integration grid.
         DEFGRID3 seems to be a minimum grid for robust results!

================================================================================
                                       INPUT FILE
================================================================================
NAME = data/single_point_P_M06-2x/121600/121600.inp
|  1> ! RIJCOSX M062X def2-TZVP D3ZERO NormalSCF
|  2> %pal
|  3> nprocs 6
|  4> end
|  5> 
|  6> * xyz 0 1
|  7>   C          -3.04463567501440     -2.49423240888022     -0.91818214610700
|  8>   C          -2.21181342737883     -1.48178742512932     -1.41723298101237
|  9>   C          -0.95897543722727     -1.23066137415526     -0.81560575389928
| 10>   C          -0.54166654443036     -2.01804107364023      0.27573664147851
| 11>   C          -1.38245241795823     -3.03685755486496      0.75317365951535
| 12>   C          -2.63628614211052     -3.28367952159491      0.16917482372360
| 13>   Cl         -0.85720100263705     -4.01215243877046      2.10985088907628
| 14>   P           0.05206304196107      0.15445929116599     -1.51759787855439
| 15>   C           1.65658488144384     -0.10978327533122     -0.62781898916580
| 16>   C           2.54844959741288     -1.04066131038972     -1.20267440020836
| 17>   C           3.76910553886153     -1.31596089251199     -0.56807765814157
| 18>   C           4.13286607547957     -0.66251573424109      0.62279667082633
| 19>   C           3.24731269090756      0.27261555010872      1.17941987909241
| 20>   C           2.01448960846447      0.54978017586051      0.56591339458553
| 21>   Cl          4.86325892995573     -2.48411384769606     -1.27803931437151
| 22>   C          -0.63455746611608      1.59148618904968     -0.57004545193867
| 23>   C          -1.51300389285391      1.44855970011162      0.52222076126021
| 24>   C          -1.97917483163071      2.59428425700644      1.18762967578435
| 25>   C          -1.58255232625519      3.88257222403370      0.79112926186456
| 26>   C          -0.70658925082342      4.01625782336437     -0.29854118658137
| 27>   C          -0.24209091244720      2.88362386129414     -0.98360719283794
| 28>   Cl         -3.07229290397005      2.40903225660159      2.54403330342098
| 29>   H          -4.02340038806616     -2.68204375941424     -1.38545111888985
| 30>   H          -2.53431050857201     -0.87569594772660     -2.27844208880283
| 31>   H           0.42790312358876     -1.84188322756005      0.76200925248543
| 32>   H          -3.27455127820777     -4.08668717023747      0.56335888252485
| 33>   H           2.29346132489588     -1.55761423004655     -2.14017883492127
| 34>   H           5.09804899558967     -0.88832055954788      1.09714744015643
| 35>   H           3.52287011600069      0.78849242566847      2.11206795955845
| 36>   H           1.32479180195012      1.27595673867265      1.01957019421827
| 37>   H          -1.83290210200056      0.45420902937660      0.86358138831791
| 38>   H          -1.96283328144585      4.76202331313989      1.32926087004080
| 39>   H          -0.39330453862641      5.02116192119285     -0.62059571487974
| 40>   H           0.43338660126022      2.99817899509103     -1.84598523761830
| 41> **                         ****END OF INPUT****
================================================================================

                       ****************************
                       * Single Point Calculation *
                       ****************************

---------------------------------
CARTESIAN COORDINATES (ANGSTROEM)
---------------------------------
  C     -3.044636   -2.494232   -0.918182
  C     -2.211813   -1.481787   -1.417233
  C     -0.958975   -1.230661   -0.815606
  C     -0.541667   -2.018041    0.275737
  C     -1.382452   -3.036858    0.753174
  C     -2.636286   -3.283680    0.169175
  Cl    -0.857201   -4.012152    2.109851
  P      0.052063    0.154459   -1.517598
  C      1.656585   -0.109783   -0.627819
  C      2.548450   -1.040661   -1.202674
  C      3.769106   -1.315961   -0.568078
  C      4.132866   -0.662516    0.622797
  C      3.247313    0.272616    1.179420
  C      2.014490    0.549780    0.565913
  Cl     4.863259   -2.484114   -1.278039
  C     -0.634557    1.591486   -0.570045
  C     -1.513004    1.448560    0.522221
  C     -1.979175    2.594284    1.187630
  C     -1.582552    3.882572    0.791129
  C     -0.706589    4.016258   -0.298541
  C     -0.242091    2.883624   -0.983607
  Cl    -3.072293    2.409032    2.544033
  H     -4.023400   -2.682044   -1.385451
  H     -2.534311   -0.875696   -2.278442
  H      0.427903   -1.841883    0.762009
  H     -3.274551   -4.086687    0.563359
  H      2.293461   -1.557614   -2.140179
  H      5.098049   -0.888321    1.097147
  H      3.522870    0.788492    2.112068
  H      1.324792    1.275957    1.019570
  H     -1.832902    0.454209    0.863581
  H     -1.962833    4.762023    1.329261
  H     -0.393305    5.021162   -0.620596
  H      0.433387    2.998179   -1.845985

----------------------------
CARTESIAN COORDINATES (A.U.)
----------------------------
  NO LB      ZA    FRAG     MASS         X           Y           Z
   0 C     6.0000    0    12.011   -5.753528   -4.713416   -1.735113
   1 C     6.0000    0    12.011   -4.179722   -2.800172   -2.678182
   2 C     6.0000    0    12.011   -1.812201   -2.325613   -1.541272
   3 C     6.0000    0    12.011   -1.023601   -3.813545    0.521067
   4 C     6.0000    0    12.011   -2.612456   -5.738829    1.423292
   5 C     6.0000    0    12.011   -4.981859   -6.205255    0.319694
   6 Cl   17.0000    0    35.453   -1.619875   -7.581869    3.987040
   7 P    15.0000    0    30.974    0.098385    0.291886   -2.867844
   8 C     6.0000    0    12.011    3.130492   -0.207460   -1.186406
   9 C     6.0000    0    12.011    4.815872   -1.966565   -2.272725
  10 C     6.0000    0    12.011    7.122577   -2.486806   -1.073511
  11 C     6.0000    0    12.011    7.809985   -1.251973    1.176915
  12 C     6.0000    0    12.011    6.136532    0.515169    2.228781
  13 C     6.0000    0    12.011    3.806834    1.038934    1.069421
  14 Cl   17.0000    0    35.453    9.190227   -4.694295   -2.415144
  15 C     6.0000    0    12.011   -1.199140    3.007473   -1.077230
  16 C     6.0000    0    12.011   -2.859163    2.737381    0.986854
  17 C     6.0000    0    12.011   -3.740098    4.902487    2.244295
  18 C     6.0000    0    12.011   -2.990590    7.336998    1.495018
  19 C     6.0000    0    12.011   -1.335260    7.589627   -0.564161
  20 C     6.0000    0    12.011   -0.457486    5.449259   -1.858748
  21 Cl   17.0000    0    35.453   -5.805792    4.552411    4.807526
  22 H     1.0000    0     1.008   -7.603125   -5.068328   -2.618123
  23 H     1.0000    0     1.008   -4.789153   -1.654826   -4.305632
  24 H     1.0000    0     1.008    0.808620   -3.480655    1.439989
  25 H     1.0000    0     1.008   -6.188005   -7.722720    1.064594
  26 H     1.0000    0     1.008    4.334014   -2.943464   -4.044352
  27 H     1.0000    0     1.008    9.633916   -1.678683    2.073308
  28 H     1.0000    0     1.008    6.657260    1.490035    3.991230
  29 H     1.0000    0     1.008    2.503494    2.411209    1.926708
  30 H     1.0000    0     1.008   -3.463683    0.858331    1.631932
  31 H     1.0000    0     1.008   -3.709217    8.998920    2.511939
  32 H     1.0000    0     1.008   -0.743238    9.488621   -1.172756
  33 H     1.0000    0     1.008    0.818982    5.665737   -3.488407

--------------------------------
INTERNAL COORDINATES (ANGSTROEM)
--------------------------------
 C      0   0   0     0.000000000000     0.00000000     0.00000000
 C      1   0   0     1.402743553576     0.00000000     0.00000000
 C      2   1   0     1.412311100094   120.22885245     0.00000000
 C      3   2   1     1.408950576535   119.55983401     1.01750291
 C      4   3   2     1.404583217090   119.42932970   359.66150111
 C      1   2   3     1.404393557603   120.56695833   358.96958276
 Cl     5   4   3     1.751474311852   119.18855730   179.98168617
 P      3   2   1     1.852984351520   117.10032192   181.49923724
 C      8   3   2     1.853650705858   100.59616856   189.42255322
 C      9   8   3     1.411529429856   116.45183156    85.05615444
 C     10   9   8     1.403033788742   119.66373395   181.48924611
 C     11  10   9     1.406233967113   121.12514124   358.89262835
 C     12  11  10     1.403034109306   118.84304698     0.38037200
 C     13  12  11     1.404657676768   120.81011491     0.34015344
 Cl    11  10   9     1.750942181588   119.41788711   179.36846375
 C      8   3   2     1.853199835026   100.58984523    86.28497431
 C     16   8   3     1.408950526592   123.27937519     9.47754589
 C     17  16   8     1.404552999342   119.43601773   179.65607489
 C     18  17  16     1.405065078918   121.36898139   359.68061726
 C     19  18  17     1.404480272273   118.83383239     0.31266078
 C     20  19  18     1.402830649550   120.56706174     0.36213550
 Cl    18  17  16     1.751872205612   119.18583615   179.94711478
 H      1   2   3     1.100724197894   120.00333497   179.56654529
 H      2   1   3     1.101377489192   120.10126697   180.25346780
 H      4   3   2     1.098889430331   120.96431322   180.07935060
 H      6   1   2     1.098901606127   121.30637678   180.62942620
 H     10   9   8     1.100533463993   120.68452236     1.09425544
 H     12  11  10     1.098896965492   119.81963849   180.52281641
 H     13  12  11     1.100860248741   119.37031298   179.93742898
 H     14  13  12     1.099463485770   120.04454256   179.25665514
 H     17  16   8     1.098906364670   120.93756353     0.02538940
 H     19  18  17     1.098923769298   119.86123414   179.97957944
 H     20  19  18     1.100771854621   119.43221040   179.70758499
 H     21  20  19     1.101403033554   120.09656468   179.13581676

---------------------------
INTERNAL COORDINATES (A.U.)
---------------------------
 C      0   0   0     0.000000000000     0.00000000     0.00000000
 C      1   0   0     2.650801152382     0.00000000     0.00000000
 C      2   1   0     2.668881195075   120.22885245     0.00000000
 C      3   2   1     2.662530725881   119.55983401     1.01750291
 C      4   3   2     2.654277612602   119.42932970   359.66150111
 C      1   2   3     2.653919208112   120.56695833   358.96958276
 Cl     5   4   3     3.309806779999   119.18855730   179.98168617
 P      3   2   1     3.501632954814   117.10032192   181.49923724
 C      8   3   2     3.502892182021   100.59616856   189.42255322
 C      9   8   3     2.667404052398   116.45183156    85.05615444
 C     10   9   8     2.651349617361   119.66373395   181.48924611
 C     11  10   9     2.657397078062   121.12514124   358.89262835
 C     12  11  10     2.651350223139   118.84304698     0.38037200
 C     13  12  11     2.654418321002   120.81011491     0.34015344
 Cl    11  10   9     3.308801199532   119.41788711   179.36846375
 C      8   3   2     3.502040159626   100.58984523    86.28497431
 C     16   8   3     2.662530631503   123.27937519     9.47754589
 C     17  16   8     2.654220509334   119.43601773   179.65607489
 C     18  17  16     2.655188199492   121.36898139   359.68061726
 C     19  18  17     2.654083075092   118.83383239     0.31266078
 C     20  19  18     2.650965739921   120.56706174     0.36213550
 Cl    18  17  16     3.310558690235   119.18583615   179.94711478
 H      1   2   3     2.080067283001   120.00333497   179.56654529
 H      2   1   3     2.081301824639   120.10126697   180.25346780
 H      4   3   2     2.076600074787   120.96431322   180.07935060
 H      6   1   2     2.076623083706   121.30637678   180.62942620
 H     10   9   8     2.079706848163   120.68452236     1.09425544
 H     12  11  10     2.076614314178   119.81963849   180.52281641
 H     13  12  11     2.080324381841   119.37031298   179.93742898
 H     14  13  12     2.077684882352   120.04454256   179.25665514
 H     17  16   8     2.076632076049   120.93756353     0.02538940
 H     19  18  17     2.076664966031   119.86123414   179.97957944
 H     20  19  18     2.080157341163   119.43221040   179.70758499
 H     21  20  19     2.081350096488   120.09656468   179.13581676

---------------------
BASIS SET INFORMATION
---------------------
There are 4 groups of distinct atoms

 Group   1 Type C   : 11s6p2d1f contracted to 5s3p2d1f pattern {62111/411/11/1}
 Group   2 Type Cl  : 14s9p3d1f contracted to 5s5p2d1f pattern {73211/51111/21/1}
 Group   3 Type P   : 14s9p3d1f contracted to 5s5p2d1f pattern {73211/51111/21/1}
 Group   4 Type H   : 5s1p contracted to 3s1p pattern {311/1}

Atom   0C    basis set group =>   1
Atom   1C    basis set group =>   1
Atom   2C    basis set group =>   1
Atom   3C    basis set group =>   1
Atom   4C    basis set group =>   1
Atom   5C    basis set group =>   1
Atom   6Cl   basis set group =>   2
Atom   7P    basis set group =>   3
Atom   8C    basis set group =>   1
Atom   9C    basis set group =>   1
Atom  10C    basis set group =>   1
Atom  11C    basis set group =>   1
Atom  12C    basis set group =>   1
Atom  13C    basis set group =>   1
Atom  14Cl   basis set group =>   2
Atom  15C    basis set group =>   1
Atom  16C    basis set group =>   1
Atom  17C    basis set group =>   1
Atom  18C    basis set group =>   1
Atom  19C    basis set group =>   1
Atom  20C    basis set group =>   1
Atom  21Cl   basis set group =>   2
Atom  22H    basis set group =>   4
Atom  23H    basis set group =>   4
Atom  24H    basis set group =>   4
Atom  25H    basis set group =>   4
Atom  26H    basis set group =>   4
Atom  27H    basis set group =>   4
Atom  28H    basis set group =>   4
Atom  29H    basis set group =>   4
Atom  30H    basis set group =>   4
Atom  31H    basis set group =>   4
Atom  32H    basis set group =>   4
Atom  33H    basis set group =>   4
---------------------------------
AUXILIARY/J BASIS SET INFORMATION
---------------------------------
There are 4 groups of distinct atoms

 Group   1 Type C   : 12s5p4d2f1g contracted to 6s4p3d1f1g pattern {711111/2111/211/2/1}
 Group   2 Type Cl  : 14s5p5d2f1g contracted to 8s4p3d1f1g pattern {71111111/2111/311/2/1}
 Group   3 Type P   : 14s5p5d2f1g contracted to 8s4p3d1f1g pattern {71111111/2111/311/2/1}
 Group   4 Type H   : 5s2p1d contracted to 3s1p1d pattern {311/2/1}

Atom   0C    basis set group =>   1
Atom   1C    basis set group =>   1
Atom   2C    basis set group =>   1
Atom   3C    basis set group =>   1
Atom   4C    basis set group =>   1
Atom   5C    basis set group =>   1
Atom   6Cl   basis set group =>   2
Atom   7P    basis set group =>   3
Atom   8C    basis set group =>   1
Atom   9C    basis set group =>   1
Atom  10C    basis set group =>   1
Atom  11C    basis set group =>   1
Atom  12C    basis set group =>   1
Atom  13C    basis set group =>   1
Atom  14Cl   basis set group =>   2
Atom  15C    basis set group =>   1
Atom  16C    basis set group =>   1
Atom  17C    basis set group =>   1
Atom  18C    basis set group =>   1
Atom  19C    basis set group =>   1
Atom  20C    basis set group =>   1
Atom  21Cl   basis set group =>   2
Atom  22H    basis set group =>   4
Atom  23H    basis set group =>   4
Atom  24H    basis set group =>   4
Atom  25H    basis set group =>   4
Atom  26H    basis set group =>   4
Atom  27H    basis set group =>   4
Atom  28H    basis set group =>   4
Atom  29H    basis set group =>   4
Atom  30H    basis set group =>   4
Atom  31H    basis set group =>   4
Atom  32H    basis set group =>   4
Atom  33H    basis set group =>   4


           ************************************************************
           *        Program running with 6 parallel MPI-processes     *
           *              working on a common directory               *
           ************************************************************
------------------------------------------------------------------------------
                             ORCA STARTUP CALCULATIONS
                           -- RI-GTO INTEGRALS CHOSEN --
------------------------------------------------------------------------------
------------------------------------------------------------------------------
                   ___                                                        
                  /   \      - P O W E R E D   B Y -                         
                 /     \                                                     
                 |  |  |   _    _      __       _____    __    __             
                 |  |  |  | |  | |    /  \     |  _  \  |  |  /  |          
                  \  \/   | |  | |   /    \    | | | |  |  | /  /          
                 / \  \   | |__| |  /  /\  \   | |_| |  |  |/  /          
                |  |  |   |  __  | /  /__\  \  |    /   |      \           
                |  |  |   | |  | | |   __   |  |    \   |  |\   \          
                \     /   | |  | | |  |  |  |  | |\  \  |  | \   \       
                 \___/    |_|  |_| |__|  |__|  |_| \__\ |__|  \__/        
                                                                              
                      - O R C A' S   B I G   F R I E N D -                    
                                      &                                       
                       - I N T E G R A L  F E E D E R -                       
                                                                              
 v1 FN, 2020, v2 2021, v3 2022-2024                                           
------------------------------------------------------------------------------


----------------------
SHARK INTEGRAL PACKAGE
----------------------

Number of atoms                             ...     34
Number of basis functions                   ...    778
Number of shells                            ...    298
Maximum angular momentum                    ...      3
Integral batch strategy                     ... SHARK/LIBINT Hybrid
RI-J (if used) integral strategy            ... SPLIT-RIJ (Revised 2003 algorithm where possible)
Printlevel                                  ...      1
Contraction scheme used                     ... SEGMENTED contraction
Prescreening option                         ... SCHWARTZ
   Thresh                                   ... 1.000e-10
   Tcut                                     ... 1.000e-11
   Tpresel                                  ... 1.000e-11 
Coulomb Range Separation                    ... NOT USED
Exchange Range Separation                   ... NOT USED
Multipole approximations                    ... NOT USED
Finite Nucleus Model                        ... NOT USED
CABS basis                                  ... NOT available
Auxiliary Coulomb fitting basis             ... AVAILABLE
   # of basis functions in Aux-J            ...   1218
   # of shells in Aux-J                     ...    398
   Maximum angular momentum in Aux-J        ...      4
Auxiliary J/K fitting basis                 ... NOT available
Auxiliary Correlation fitting basis         ... NOT available
Auxiliary 'external' fitting basis          ... NOT available

Checking pre-screening integrals            ... done (  0.0 sec) Dimension = 298
Check shell pair data                       ... done (  0.0 sec)
Shell pair information
Shell pair cut-off parameter TPreSel        ...   1.0e-11
Total number of shell pairs                 ...     44551
Shell pairs after pre-screening             ...     30811
Total number of primitive shell pairs       ...    146646
Primitive shell pairs kept                  ...     64544
          la=0 lb=0:   7092 shell pairs
          la=1 lb=0:   8953 shell pairs
          la=1 lb=1:   2846 shell pairs
          la=2 lb=0:   4349 shell pairs
          la=2 lb=1:   2763 shell pairs
          la=2 lb=2:    705 shell pairs
          la=3 lb=0:   2024 shell pairs
          la=3 lb=1:   1282 shell pairs
          la=3 lb=2:    643 shell pairs
          la=3 lb=3:    154 shell pairs

Calculating one electron integrals          ... done (  0.1 sec)
Calculating RI/J V-Matrix + Cholesky decomp.... done (  0.1 sec)
Calculating Nuclear repulsion               ... done (  0.0 sec) ENN=   2166.801592888820 Eh

Diagonalization of the overlap matrix:
Smallest eigenvalue                        ... 8.163e-06
Time for diagonalization                   ...    0.126 sec
Threshold for overlap eigenvalues          ... 1.000e-07
Number of eigenvalues below threshold      ... 0
Time for construction of square roots      ...    0.059 sec
Total time needed                          ...    0.190 sec

-------------------
DFT GRID GENERATION
-------------------

General Integration Accuracy     IntAcc      ... 4.388
Radial Grid Type                 RadialGrid  ... OptM3 with GC (2021)
Angular Grid (max. ang.)         AngularGrid ... 4 (Lebedev-302)
Angular grid pruning method      GridPruning ... 4 (adaptive)
Weight generation scheme         WeightScheme... mBecke (2022)
Basis function cutoff            BFCut       ... 1.0000e-10
Integration weight cutoff        WCut        ... 1.0000e-14
Partially contracted basis set               ... off
Rotationally invariant grid construction     ... off
Angular grids for H and He will be reduced by one unit

Total number of grid points                  ...   174846
Total number of batches                      ...     2753
Average number of points per batch           ...       63
Average number of grid points per atom       ...     5143

--------------------
COSX GRID GENERATION
--------------------

GRIDX 1
-------
General Integration Accuracy     IntAcc      ... 3.816
Radial Grid Type                 RadialGrid  ... OptM3 with GC (2021)
Angular Grid (max. ang.)         AngularGrid ... 1 (Lebedev-50)
Angular grid pruning method      GridPruning ... 4 (adaptive)
Weight generation scheme         WeightScheme... mBecke (2022)
Basis function cutoff            BFCut       ... 1.0000e-10
Integration weight cutoff        WCut        ... 1.0000e-14
Partially contracted basis set               ... on
Rotationally invariant grid construction     ... off
Angular grids for H and He will be reduced by one unit

Total number of grid points                  ...    26234
Total number of batches                      ...      215
Average number of points per batch           ...      122
Average number of grid points per atom       ...      772
UseSFitting                                  ... on

GRIDX 2
-------
General Integration Accuracy     IntAcc      ... 4.020
Radial Grid Type                 RadialGrid  ... OptM3 with GC (2021)
Angular Grid (max. ang.)         AngularGrid ... 2 (Lebedev-110)
Angular grid pruning method      GridPruning ... 4 (adaptive)
Weight generation scheme         WeightScheme... mBecke (2022)
Basis function cutoff            BFCut       ... 1.0000e-10
Integration weight cutoff        WCut        ... 1.0000e-14
Partially contracted basis set               ... on
Rotationally invariant grid construction     ... off
Angular grids for H and He will be reduced by one unit

Total number of grid points                  ...    48249
Total number of batches                      ...      394
Average number of points per batch           ...      122
Average number of grid points per atom       ...     1419
UseSFitting                                  ... on

GRIDX 3
-------
General Integration Accuracy     IntAcc      ... 4.338
Radial Grid Type                 RadialGrid  ... OptM3 with GC (2021)
Angular Grid (max. ang.)         AngularGrid ... 3 (Lebedev-194)
Angular grid pruning method      GridPruning ... 4 (adaptive)
Weight generation scheme         WeightScheme... mBecke (2022)
Basis function cutoff            BFCut       ... 1.0000e-10
Integration weight cutoff        WCut        ... 1.0000e-14
Partially contracted basis set               ... on
Rotationally invariant grid construction     ... off
Angular grids for H and He will be reduced by one unit

Total number of grid points                  ...   107871
Total number of batches                      ...      859
Average number of points per batch           ...      125
Average number of grid points per atom       ...     3173
UseSFitting                                  ... on
Initializing property integral containers    ... done (  0.0 sec)

SHARK setup successfully completed in   4.1 seconds

Maximum memory used throughout the entire STARTUP-calculation: 74.1 MB


           ************************************************************
           *        Program running with 6 parallel MPI-processes     *
           *              working on a common directory               *
           ************************************************************
-------------------------------------------------------------------------------
                                 ORCA GUESS
                   Start orbitals & Density for SCF / CASSCF
-------------------------------------------------------------------------------

------------
SCF SETTINGS
------------
Hamiltonian:
 Density Functional     Method          .... DFT(GTOs)
 Exchange Functional    Exchange        .... M062X
 Correlation Functional Correlation     .... M062X
 Gradients option       PostSCFGGA      .... off
 Hybrid DFT is turned on
   Fraction HF Exchange ScalHFX         ....  0.540000
   Scaling of DF-GGA-X  ScalDFX         ....  0.460000
   Scaling of DF-GGA-C  ScalDFC         ....  1.000000
   Scaling of DF-LDA-C  ScalLDAC        ....  1.000000
   Perturbative correction              ....  0.000000
 RI-approximation to the Coulomb term is turned on
   Number of AuxJ basis functions       .... 1218
   RIJ-COSX (HFX calculated with COS-X)).... on


General Settings:
 Integral files         IntName         .... data/single_point_P_M06-2x/121600/121600
 Hartree-Fock type      HFTyp           .... RHF
 Total Charge           Charge          ....    0
 Multiplicity           Mult            ....    1
 Number of Electrons    NEL             ....  186
 Basis Dimension        Dim             ....  778
 Nuclear Repulsion      ENuc            ....   2166.8015928888 Eh

Convergence Acceleration:
 AO-DIIS                CNVDIIS         .... on
   Start iteration      DIISMaxIt       ....    12
   Startup error        DIISStart       ....  0.200000
   # of expansion vecs  DIISMaxEq       ....     5
   Bias factor          DIISBfac        ....   1.050
   Max. coefficient     DIISMaxC        ....  10.000
 MO-DIIS                CNVKDIIS        .... off
 Trust-Rad. Augm. Hess. CNVTRAH         .... auto
   Auto Start mean grad. ratio tolernc. ....  1.125000
   Auto Start start iteration           ....    50
   Auto Start num. interpolation iter.  ....    10
   Max. Number of Micro iterations      ....    24
   Max. Number of Macro iterations      .... Maxiter - #DIIS iter
   Number of Davidson start vectors     ....     2
   Converg. threshold    (grad. norm)   ....   5.000e-05
   Grad. Scal. Fac. for Micro threshold ....   0.100
   Minimum threshold for Micro iter.    ....   1.000e-02
   NR start threshold (gradient norm)   ....   1.000e-04
   Initial trust radius                 ....   0.400
   Minimum AH scaling param. (alpha)    ....   1.000
   Maximum AH scaling param. (alpha)    .... 1000.000
   Quad. conv. algorithm                .... NR
   White noise on init. David. guess    .... on
   Maximum white noise                  ....   0.010
   Pseudo random numbers                .... off
   Inactive MOs                         .... canonical
   Orbital update algorithm             .... Taylor
   Preconditioner                       .... Diag
   Full preconditioner red. dimension   ....   250
 SOSCF                  CNVSOSCF        .... on
   Start iteration      SOSCFMaxIt      ....   150
   Startup grad/error   SOSCFStart      ....  0.003300
   Hessian update       SOSCFHessUp     .... L-BFGS
 Level Shifting         CNVShift        .... on
   Level shift para.    LevelShift      ....    0.2500
   Turn off err/grad.   ShiftErr        ....    0.0010
 Zerner damping         CNVZerner       .... off
 Static damping         CNVDamp         .... on
   Fraction old density DampFac         ....    0.7000
   Max. Damping (<1)    DampMax         ....    0.9800
   Min. Damping (>=0)   DampMin         ....    0.0000
   Turn off err/grad.   DampErr         ....    0.1000

SCF Procedure:
 Maximum # iterations   MaxIter         ....   125
 SCF integral mode      SCFMode         .... Direct
   Integral package                     .... SHARK and LIBINT hybrid scheme
 Reset frequency        DirectResetFreq ....    20
 Integral Threshold     Thresh          ....  1.000e-10 Eh
 Primitive CutOff       TCut            ....  1.000e-11 Eh

Convergence Tolerance:
 Convergence Check Mode ConvCheckMode   .... Total+1el-Energy
 Convergence forced     ConvForced      .... 0
 Energy Change          TolE            ....  1.000e-06 Eh
 1-El. energy change                    ....  1.000e-03 Eh
 Orbital Gradient       TolG            ....  5.000e-05
 Orbital Rotation angle TolX            ....  5.000e-05
 DIIS Error             TolErr          ....  1.000e-05

------------------------------
INITIAL GUESS: MODEL POTENTIAL
------------------------------
Loading Hartree-Fock densities                     ... done
Calculating cut-offs                               ... done
Initializing the effective Hamiltonian             ... done
Setting up the integral package (SHARK)            ... done
Starting the Coulomb interaction                   ... done (   0.6 sec)
Making the grid                                    ... done (   0.3 sec)
Mapping shells                                     ... done
Starting the XC term evaluation                    ... done (   0.5 sec)
  promolecular density results
     # of electrons  =    185.984301037
     EX              =   -200.190398444
     EC              =     -6.593042627
     EX+EC           =   -206.783441070
Transforming the Hamiltonian                       ... done (   0.1 sec)
Diagonalizing the Hamiltonian                      ... done (   0.1 sec)
Back transforming the eigenvectors                 ... done (   0.0 sec)
Now organizing SCF variables                       ... done
                      ------------------
                      INITIAL GUESS DONE (   1.7 sec)
                      ------------------
             **** ENERGY FILE WAS UPDATED (data/single_point_P_M06-2x/121600/121600.en.tmp) ****
Finished Guess after   1.9 sec
Maximum memory used throughout the entire GUESS-calculation: 57.0 MB


           ************************************************************
           *        Program running with 6 parallel MPI-processes     *
           *              working on a common directory               *
           ************************************************************

-------------------------------------------------------------------------------------------
                                      ORCA LEAN-SCF
                              memory conserving SCF solver
-------------------------------------------------------------------------------------------

----------------------------------------D-I-I-S--------------------------------------------
Iteration    Energy (Eh)           Delta-E    RMSDP     MaxDP     DIISErr   Damp  Time(sec)
-------------------------------------------------------------------------------------------
               ***  Starting incremental Fock matrix formation  ***
    1    -2414.6222437474398248     0.00e+00  1.12e-03  4.21e-02  1.29e-01  0.700  15.9
    2    -2414.8031928753589455    -1.81e-01  9.02e-04  3.36e-02  7.25e-02  0.700   9.4
                               ***Turning on AO-DIIS***
    3    -2414.8899570450712417    -8.68e-02  6.59e-04  2.97e-02  3.42e-02  0.700   9.1
    4    -2414.9410655069223139    -5.11e-02  1.65e-03  8.78e-02  2.31e-02  0.000   8.8
                              *** Initializing SOSCF ***
---------------------------------------S-O-S-C-F--------------------------------------
Iteration    Energy (Eh)           Delta-E    RMSDP     MaxDP     MaxGrad    Time(sec)
--------------------------------------------------------------------------------------
    5    -2415.0508600057628428    -1.10e-01  1.68e-04  1.27e-02  2.59e-03     9.6
               *** Restarting incremental Fock matrix formation ***
    6    -2415.0511236599950280    -2.64e-04  1.23e-04  6.96e-03  9.63e-04    15.5
    7    -2415.0511637017671092    -4.00e-05  6.31e-05  4.33e-03  3.20e-04    12.0
    8    -2415.0511673991604766    -3.70e-06  4.27e-05  2.51e-03  2.66e-04    11.5
    9    -2415.0511734667788915    -6.07e-06  9.24e-06  3.21e-04  5.65e-05    11.3
   10    -2415.0511737314927814    -2.65e-07  4.99e-06  1.88e-04  6.44e-05     9.4
                 **** Energy Check signals convergence ****

               *****************************************************
               *                     SUCCESS                       *
               *           SCF CONVERGED AFTER  10 CYCLES          *
               *****************************************************

Recomputing exchange energy using gridx3       ... done (   24.728 sec)
Old exchange energy                            :   -109.489885218 Eh
New exchange energy                            :   -109.489734587 Eh
Exchange energy change after final integration :      0.000150631 Eh
Total energy after final integration           :  -2415.051023100 Eh
             **** ENERGY FILE WAS UPDATED (data/single_point_P_M06-2x/121600/121600.en.tmp) ****

----------------
TOTAL SCF ENERGY
----------------

Total Energy       :      -2415.05102310017128 Eh          -65716.87932 eV

Components:
Nuclear Repulsion  :       2166.80159288881987 Eh           58961.66890 eV
Electronic Energy  :      -4581.85276662031174 Eh         -124678.55231 eV
One Electron Energy:      -7627.16654983090484 Eh         -207545.75324 eV
Two Electron Energy:       3045.31378321059265 Eh           82867.20093 eV

Virial components:
Potential Energy   :      -4823.72700937645823 Eh         -131260.28507 eV
Kinetic Energy     :       2408.67598627628695 Eh           65543.40575 eV
Virial Ratio       :          2.00264669754679

DFT components:
N(Alpha)           :       93.000046940193 electrons
N(Beta)            :       93.000046940193 electrons
N(Total)           :      186.000093880386 electrons
E(XC)              :     -100.303189938755 Eh       

---------------
SCF CONVERGENCE
---------------

  Last Energy change         ...    2.6471e-07  Tolerance :   1.0000e-06
  Last MAX-Density change    ...    1.8763e-04  Tolerance :   1.0000e-05
  Last RMS-Density change    ...    4.9864e-06  Tolerance :   1.0000e-06
  Last DIIS Error            ...    2.5884e-03  Tolerance :   1.0000e-05
  Last Orbital Gradient      ...    6.4397e-05  Tolerance :   5.0000e-05
  Last Orbital Rotation      ...    1.7684e-04  Tolerance :   5.0000e-05


----------------
ORBITAL ENERGIES
----------------

  NO   OCC          E(Eh)            E(eV) 
   0   2.0000    -102.652200     -2793.3084 
   1   2.0000    -102.651689     -2793.2945 
   2   2.0000    -102.650650     -2793.2662 
   3   2.0000     -78.050231     -2123.8548 
   4   2.0000     -10.620318      -288.9936 
   5   2.0000     -10.619579      -288.9734 
   6   2.0000     -10.619011      -288.9580 
   7   2.0000     -10.574957      -287.7592 
   8   2.0000     -10.574246      -287.7399 
   9   2.0000     -10.573993      -287.7330 
  10   2.0000     -10.571802      -287.6734 
  11   2.0000     -10.571794      -287.6731 
  12   2.0000     -10.570796      -287.6460 
  13   2.0000     -10.570418      -287.6357 
  14   2.0000     -10.570368      -287.6343 
  15   2.0000     -10.570150      -287.6284 
  16   2.0000     -10.569756      -287.6177 
  17   2.0000     -10.568774      -287.5910 
  18   2.0000     -10.568254      -287.5768 
  19   2.0000     -10.568249      -287.5767 
  20   2.0000     -10.567119      -287.5459 
  21   2.0000     -10.565215      -287.4941 
  22   2.0000      -9.814168      -267.0571 
  23   2.0000      -9.813652      -267.0430 
  24   2.0000      -9.812621      -267.0150 
  25   2.0000      -7.536098      -205.0676 
  26   2.0000      -7.535585      -205.0537 
  27   2.0000      -7.534550      -205.0255 
  28   2.0000      -7.531202      -204.9344 
  29   2.0000      -7.531101      -204.9317 
  30   2.0000      -7.530682      -204.9203 
  31   2.0000      -7.530590      -204.9178 
  32   2.0000      -7.529653      -204.8923 
  33   2.0000      -7.529561      -204.8898 
  34   2.0000      -6.866159      -186.8377 
  35   2.0000      -4.980742      -135.5329 
  36   2.0000      -4.980330      -135.5217 
  37   2.0000      -4.980320      -135.5214 
  38   2.0000      -1.001831       -27.2612 
  39   2.0000      -0.998986       -27.1838 
  40   2.0000      -0.998050       -27.1583 
  41   2.0000      -0.948206       -25.8020 
  42   2.0000      -0.940085       -25.5810 
  43   2.0000      -0.939502       -25.5652 
  44   2.0000      -0.881818       -23.9955 
  45   2.0000      -0.860218       -23.4077 
  46   2.0000      -0.856140       -23.2968 
  47   2.0000      -0.837885       -22.8000 
  48   2.0000      -0.834882       -22.7183 
  49   2.0000      -0.832291       -22.6478 
  50   2.0000      -0.754575       -20.5330 
  51   2.0000      -0.709552       -19.3079 
  52   2.0000      -0.704860       -19.1802 
  53   2.0000      -0.697241       -18.9729 
  54   2.0000      -0.688398       -18.7323 
  55   2.0000      -0.680453       -18.5161 
  56   2.0000      -0.638742       -17.3811 
  57   2.0000      -0.601896       -16.3784 
  58   2.0000      -0.601162       -16.3585 
  59   2.0000      -0.585685       -15.9373 
  60   2.0000      -0.549988       -14.9659 
  61   2.0000      -0.548884       -14.9359 
  62   2.0000      -0.548665       -14.9299 
  63   2.0000      -0.534548       -14.5458 
  64   2.0000      -0.533344       -14.5130 
  65   2.0000      -0.523296       -14.2396 
  66   2.0000      -0.504569       -13.7300 
  67   2.0000      -0.503214       -13.6931 
  68   2.0000      -0.502805       -13.6820 
  69   2.0000      -0.492723       -13.4077 
  70   2.0000      -0.492253       -13.3949 
  71   2.0000      -0.475105       -12.9283 
  72   2.0000      -0.471867       -12.8402 
  73   2.0000      -0.471501       -12.8302 
  74   2.0000      -0.452751       -12.3200 
  75   2.0000      -0.430690       -11.7197 
  76   2.0000      -0.430382       -11.7113 
  77   2.0000      -0.429161       -11.6781 
  78   2.0000      -0.412262       -11.2182 
  79   2.0000      -0.411425       -11.1954 
  80   2.0000      -0.408948       -11.1280 
  81   2.0000      -0.401715       -10.9312 
  82   2.0000      -0.399622       -10.8743 
  83   2.0000      -0.385111       -10.4794 
  84   2.0000      -0.378771       -10.3069 
  85   2.0000      -0.377854       -10.2819 
  86   2.0000      -0.349068        -9.4986 
  87   2.0000      -0.332485        -9.0474 
  88   2.0000      -0.328868        -8.9490 
  89   2.0000      -0.315116        -8.5748 
  90   2.0000      -0.310140        -8.4393 
  91   2.0000      -0.307235        -8.3603 
  92   2.0000      -0.283860        -7.7242 
  93   0.0000      -0.020170        -0.5489 
  94   0.0000      -0.019329        -0.5260 
  95   0.0000      -0.017931        -0.4879 
  96   0.0000      -0.001797        -0.0489 
  97   0.0000       0.004988         0.1357 
  98   0.0000       0.006096         0.1659 
  99   0.0000       0.049720         1.3529 
 100   0.0000       0.052389         1.4256 
 101   0.0000       0.057382         1.5614 
 102   0.0000       0.076029         2.0689 
 103   0.0000       0.077235         2.1017 
*Only the first 10 virtual orbitals were printed.

                    ********************************
                    * MULLIKEN POPULATION ANALYSIS *
                    ********************************

-----------------------
MULLIKEN ATOMIC CHARGES
-----------------------
   0 C :   -0.132918
   1 C :   -0.151681
   2 C :   -0.089348
   3 C :   -0.160192
   4 C :    0.062630
   5 C :   -0.165993
   6 Cl:   -0.076469
   7 P :    0.136775
   8 C :   -0.087708
   9 C :   -0.181286
  10 C :    0.085693
  11 C :   -0.162857
  12 C :   -0.150017
  13 C :   -0.140535
  14 Cl:   -0.079090
  15 C :   -0.089039
  16 C :   -0.155766
  17 C :    0.056417
  18 C :   -0.167306
  19 C :   -0.134423
  20 C :   -0.153612
  21 Cl:   -0.076043
  22 H :    0.153026
  23 H :    0.159915
  24 H :    0.194567
  25 H :    0.162076
  26 H :    0.171426
  27 H :    0.162816
  28 H :    0.153596
  29 H :    0.184210
  30 H :    0.194721
  31 H :    0.162327
  32 H :    0.153136
  33 H :    0.160950
Sum of atomic charges:   -0.0000000

--------------------------------
MULLIKEN REDUCED ORBITAL CHARGES
--------------------------------
  0 C s       :     3.224570  s :     3.224570
      pz      :     0.927037  p :     2.840154
      px      :     0.998550
      py      :     0.914567
      dz2     :     0.017236  d :     0.061835
      dxz     :     0.012326
      dyz     :     0.007139
      dx2y2   :     0.013923
      dxy     :     0.011211
      f0      :     0.000945  f :     0.006358
      f+1     :     0.000611
      f-1     :     0.001031
      f+2     :     0.001103
      f-2     :     0.001106
      f+3     :     0.000694
      f-3     :     0.000869

  1 C s       :     3.206009  s :     3.206009
      pz      :     0.997991  p :     2.874915
      px      :     0.920147
      py      :     0.956778
      dz2     :     0.008604  d :     0.064202
      dxz     :     0.013664
      dyz     :     0.012340
      dx2y2   :     0.018455
      dxy     :     0.011139
      f0      :     0.000299  f :     0.006555
      f+1     :     0.001178
      f-1     :     0.000903
      f+2     :     0.000879
      f-2     :     0.001089
      f+3     :     0.000929
      f-3     :     0.001278

  2 C s       :     3.235477  s :     3.235477
      pz      :     0.894226  p :     2.769775
      px      :     0.945862
      py      :     0.929687
      dz2     :     0.022363  d :     0.077097
      dxz     :     0.011621
      dyz     :     0.011744
      dx2y2   :     0.014241
      dxy     :     0.017129
      f0      :     0.000896  f :     0.006999
      f+1     :     0.001131
      f-1     :     0.000929
      f+2     :     0.001207
      f-2     :     0.001203
      f+3     :     0.000731
      f-3     :     0.000902

  3 C s       :     3.182482  s :     3.182482
      pz      :     0.933353  p :     2.902387
      px      :     1.024825
      py      :     0.944208
      dz2     :     0.014271  d :     0.068669
      dxz     :     0.016511
      dyz     :     0.010062
      dx2y2   :     0.017172
      dxy     :     0.010653
      f0      :     0.000937  f :     0.006653
      f+1     :     0.000523
      f-1     :     0.001088
      f+2     :     0.001321
      f-2     :     0.001176
      f+3     :     0.000750
      f-3     :     0.000858

  4 C s       :     3.143416  s :     3.143416
      pz      :     0.863807  p :     2.658820
      px      :     0.899181
      py      :     0.895832
      dz2     :     0.028309  d :     0.125850
      dxz     :     0.027276
      dyz     :     0.021591
      dx2y2   :     0.027848
      dxy     :     0.020826
      f0      :     0.000960  f :     0.009284
      f+1     :     0.001476
      f-1     :     0.001292
      f+2     :     0.001517
      f-2     :     0.001639
      f+3     :     0.000987
      f-3     :     0.001413

  5 C s       :     3.222198  s :     3.222198
      pz      :     0.949338  p :     2.874005
      px      :     0.933656
      py      :     0.991011
      dz2     :     0.015258  d :     0.063309
      dxz     :     0.012859
      dyz     :     0.010166
      dx2y2   :     0.011644
      dxy     :     0.013383
      f0      :     0.000893  f :     0.006480
      f+1     :     0.001103
      f-1     :     0.000654
      f+2     :     0.001130
      f-2     :     0.001213
      f+3     :     0.000764
      f-3     :     0.000724

  6 Cls       :     5.886304  s :     5.886304
      pz      :     3.517302  p :    11.129041
      px      :     3.888922
      py      :     3.722817
      dz2     :     0.016883  d :     0.055758
      dxz     :     0.009190
      dyz     :     0.017815
      dx2y2   :     0.004901
      dxy     :     0.006968
      f0      :     0.000799  f :     0.005366
      f+1     :     0.000645
      f-1     :     0.001562
      f+2     :     0.000834
      f-2     :     0.001109
      f+3     :     0.000251
      f-3     :     0.000166

  7 P s       :     5.762865  s :     5.762865
      pz      :     3.345744  p :     8.819000
      px      :     2.735502
      py      :     2.737754
      dz2     :     0.024763  d :     0.255968
      dxz     :     0.052939
      dyz     :     0.053126
      dx2y2   :     0.059864
      dxy     :     0.065277
      f0      :     0.002369  f :     0.025392
      f+1     :     0.002682
      f-1     :     0.002902
      f+2     :     0.004897
      f-2     :     0.005393
      f+3     :     0.003515
      f-3     :     0.003634

  8 C s       :     3.232995  s :     3.232995
      pz      :     0.885261  p :     2.770211
      px      :     0.917198
      py      :     0.967753
      dz2     :     0.020758  d :     0.077495
      dxz     :     0.018872
      dyz     :     0.007494
      dx2y2   :     0.018400
      dxy     :     0.011971
      f0      :     0.001000  f :     0.007006
      f+1     :     0.001093
      f-1     :     0.001012
      f+2     :     0.001083
      f-2     :     0.001132
      f+3     :     0.000809
      f-3     :     0.000875

  9 C s       :     3.196732  s :     3.196732
      pz      :     1.008494  p :     2.910986
      px      :     0.921365
      py      :     0.981127
      dz2     :     0.011054  d :     0.066831
      dxz     :     0.013337
      dyz     :     0.011755
      dx2y2   :     0.017967
      dxy     :     0.012717
      f0      :     0.000289  f :     0.006738
      f+1     :     0.001252
      f-1     :     0.000961
      f+2     :     0.000827
      f-2     :     0.001039
      f+3     :     0.001075
      f-3     :     0.001294

 10 C s       :     3.129085  s :     3.129085
      pz      :     0.897140  p :     2.649524
      px      :     0.861143
      py      :     0.891241
      dz2     :     0.029083  d :     0.126377
      dxz     :     0.021624
      dyz     :     0.021595
      dx2y2   :     0.028935
      dxy     :     0.025140
      f0      :     0.001101  f :     0.009322
      f+1     :     0.001581
      f-1     :     0.001139
      f+2     :     0.001355
      f-2     :     0.001608
      f+3     :     0.001168
      f-3     :     0.001371

 11 C s       :     3.221140  s :     3.221140
      pz      :     0.925433  p :     2.871798
      px      :     0.999819
      py      :     0.946546
      dz2     :     0.017544  d :     0.063439
      dxz     :     0.011803
      dyz     :     0.010833
      dx2y2   :     0.014272
      dxy     :     0.008987
      f0      :     0.001031  f :     0.006480
      f+1     :     0.000690
      f-1     :     0.001053
      f+2     :     0.001152
      f-2     :     0.001052
      f+3     :     0.000736
      f-3     :     0.000766

 12 C s       :     3.233998  s :     3.233998
      pz      :     0.994691  p :     2.848201
      px      :     0.910959
      py      :     0.942550
      dz2     :     0.008841  d :     0.061506
      dxz     :     0.014550
      dyz     :     0.009685
      dx2y2   :     0.017045
      dxy     :     0.011385
      f0      :     0.000276  f :     0.006313
      f+1     :     0.001146
      f-1     :     0.000880
      f+2     :     0.000879
      f-2     :     0.001059
      f+3     :     0.000999
      f-3     :     0.001075

 13 C s       :     3.193282  s :     3.193282
      pz      :     0.894648  p :     2.875502
      px      :     0.988214
      py      :     0.992640
      dz2     :     0.016112  d :     0.065280
      dxz     :     0.014062
      dyz     :     0.011508
      dx2y2   :     0.008608
      dxy     :     0.014989
      f0      :     0.000965  f :     0.006472
      f+1     :     0.001174
      f-1     :     0.000604
      f+2     :     0.001035
      f-2     :     0.001217
      f+3     :     0.000693
      f-3     :     0.000784

 14 Cls       :     5.887463  s :     5.887463
      pz      :     3.833510  p :    11.130323
      px      :     3.674204
      py      :     3.622609
      dz2     :     0.006828  d :     0.055927
      dxz     :     0.010917
      dyz     :     0.009263
      dx2y2   :     0.012183
      dxy     :     0.016734
      f0      :     0.000598  f :     0.005377
      f+1     :     0.000406
      f-1     :     0.000493
      f+2     :     0.000445
      f-2     :     0.001426
      f+3     :     0.001093
      f-3     :     0.000916

 15 C s       :     3.237388  s :     3.237388
      pz      :     0.898647  p :     2.767815
      px      :     0.953839
      py      :     0.915330
      dz2     :     0.021714  d :     0.076836
      dxz     :     0.006082
      dyz     :     0.017622
      dx2y2   :     0.014071
      dxy     :     0.017346
      f0      :     0.000972  f :     0.006999
      f+1     :     0.001025
      f-1     :     0.000911
      f+2     :     0.001209
      f-2     :     0.001120
      f+3     :     0.000816
      f-3     :     0.000948

 16 C s       :     3.180362  s :     3.180362
      pz      :     0.924443  p :     2.900134
      px      :     0.956737
      py      :     1.018955
      dz2     :     0.016541  d :     0.068628
      dxz     :     0.007737
      dyz     :     0.017862
      dx2y2   :     0.011905
      dxy     :     0.014583
      f0      :     0.000857  f :     0.006641
      f+1     :     0.000960
      f-1     :     0.000917
      f+2     :     0.001138
      f-2     :     0.001343
      f+3     :     0.000674
      f-3     :     0.000753

 17 C s       :     3.147296  s :     3.147296
      pz      :     0.865663  p :     2.661404
      px      :     0.900828
      py      :     0.894912
      dz2     :     0.028074  d :     0.125600
      dxz     :     0.017202
      dyz     :     0.031861
      dx2y2   :     0.018615
      dxy     :     0.029847
      f0      :     0.000995  f :     0.009284
      f+1     :     0.001301
      f-1     :     0.001426
      f+2     :     0.001582
      f-2     :     0.001591
      f+3     :     0.001027
      f-3     :     0.001362

 18 C s       :     3.223167  s :     3.223167
      pz      :     0.963892  p :     2.874599
      px      :     0.961531
      py      :     0.949175
      dz2     :     0.013670  d :     0.063059
      dxz     :     0.006569
      dyz     :     0.016681
      dx2y2   :     0.011901
      dxy     :     0.014238
      f0      :     0.001004  f :     0.006481
      f+1     :     0.000882
      f-1     :     0.000648
      f+2     :     0.001131
      f-2     :     0.001187
      f+3     :     0.000844
      f-3     :     0.000784

 19 C s       :     3.225410  s :     3.225410
      pz      :     0.918259  p :     2.841247
      px      :     0.937298
      py      :     0.985690
      dz2     :     0.019151  d :     0.061413
      dxz     :     0.007389
      dyz     :     0.010779
      dx2y2   :     0.013632
      dxy     :     0.010461
      f0      :     0.000875  f :     0.006353
      f+1     :     0.000897
      f-1     :     0.000926
      f+2     :     0.001102
      f-2     :     0.001131
      f+3     :     0.000638
      f-3     :     0.000785

 20 C s       :     3.207495  s :     3.207495
      pz      :     1.008562  p :     2.875710
      px      :     0.975887
      py      :     0.891261
      dz2     :     0.009439  d :     0.063861
      dxz     :     0.009278
      dyz     :     0.015894
      dx2y2   :     0.011428
      dxy     :     0.017820
      f0      :     0.000369  f :     0.006547
      f+1     :     0.000821
      f-1     :     0.001191
      f+2     :     0.001159
      f-2     :     0.000836
      f+3     :     0.000954
      f-3     :     0.001217

 21 Cls       :     5.886180  s :     5.886180
      pz      :     3.518004  p :    11.128814
      px      :     3.659907
      py      :     3.950903
      dz2     :     0.016674  d :     0.055691
      dxz     :     0.021033
      dyz     :     0.006083
      dx2y2   :     0.007913
      dxy     :     0.003988
      f0      :     0.000793  f :     0.005358
      f+1     :     0.001871
      f-1     :     0.000330
      f+2     :     0.001245
      f-2     :     0.000700
      f+3     :     0.000237
      f-3     :     0.000182

 22 H s       :     0.827097  s :     0.827097
      pz      :     0.005019  p :     0.019877
      px      :     0.011403
      py      :     0.003456

 23 H s       :     0.820033  s :     0.820033
      pz      :     0.009770  p :     0.020051
      px      :     0.003774
      py      :     0.006507

 24 H s       :     0.784332  s :     0.784332
      pz      :     0.005213  p :     0.021100
      px      :     0.012292
      py      :     0.003595

 25 H s       :     0.817780  s :     0.817780
      pz      :     0.004553  p :     0.020144
      px      :     0.006480
      py      :     0.009111

 26 H s       :     0.808207  s :     0.808207
      pz      :     0.011171  p :     0.020367
      px      :     0.003498
      py      :     0.005697

 27 H s       :     0.817046  s :     0.817046
      pz      :     0.004925  p :     0.020138
      px      :     0.011487
      py      :     0.003726

 28 H s       :     0.826541  s :     0.826541
      pz      :     0.010737  p :     0.019864
      px      :     0.003537
      py      :     0.005590

 29 H s       :     0.795046  s :     0.795046
      pz      :     0.004737  p :     0.020744
      px      :     0.007759
      py      :     0.008248

 30 H s       :     0.784141  s :     0.784141
      pz      :     0.004072  p :     0.021138
      px      :     0.004330
      py      :     0.012736

 31 H s       :     0.817544  s :     0.817544
      pz      :     0.005783  p :     0.020130
      px      :     0.004702
      py      :     0.009645

 32 H s       :     0.826997  s :     0.826997
      pz      :     0.003988  p :     0.019867
      px      :     0.004221
      py      :     0.011658

 33 H s       :     0.819012  s :     0.819012
      pz      :     0.009773  p :     0.020038
      px      :     0.007443
      py      :     0.002822



                     *******************************
                     * LOEWDIN POPULATION ANALYSIS *
                     *******************************

----------------------
LOEWDIN ATOMIC CHARGES
----------------------
   0 C :   -0.132341
   1 C :   -0.141557
   2 C :   -0.273230
   3 C :   -0.140234
   4 C :   -0.414167
   5 C :   -0.137873
   6 Cl:    0.381719
   7 P :    0.712747
   8 C :   -0.272570
   9 C :   -0.144435
  10 C :   -0.415484
  11 C :   -0.138294
  12 C :   -0.131329
  13 C :   -0.137164
  14 Cl:    0.381731
  15 C :   -0.272317
  16 C :   -0.139869
  17 C :   -0.414799
  18 C :   -0.139496
  19 C :   -0.133601
  20 C :   -0.141977
  21 Cl:    0.380814
  22 H :    0.152366
  23 H :    0.152958
  24 H :    0.162254
  25 H :    0.153571
  26 H :    0.156322
  27 H :    0.153546
  28 H :    0.152524
  29 H :    0.159173
  30 H :    0.162369
  31 H :    0.153371
  32 H :    0.152186
  33 H :    0.153085

-------------------------------
LOEWDIN REDUCED ORBITAL CHARGES
-------------------------------
  0 C s       :     2.777294  s :     2.777294
      pz      :     0.976930  p :     2.936926
      px      :     0.976098
      py      :     0.983899
      dz2     :     0.072971  d :     0.377325
      dxz     :     0.077540
      dyz     :     0.076548
      dx2y2   :     0.091123
      dxy     :     0.059143
      f0      :     0.005661  f :     0.040796
      f+1     :     0.005397
      f-1     :     0.005835
      f+2     :     0.006566
      f-2     :     0.006054
      f+3     :     0.004769
      f-3     :     0.006514

  1 C s       :     2.776427  s :     2.776427
      pz      :     0.955273  p :     2.943828
      px      :     1.022919
      py      :     0.965636
      dz2     :     0.056234  d :     0.380495
      dxz     :     0.076237
      dyz     :     0.064119
      dx2y2   :     0.087896
      dxy     :     0.096008
      f0      :     0.002453  f :     0.040807
      f+1     :     0.007987
      f-1     :     0.004237
      f+2     :     0.006538
      f-2     :     0.005555
      f+3     :     0.004972
      f-3     :     0.009066

  2 C s       :     2.779015  s :     2.779015
      pz      :     0.999766  p :     2.990501
      px      :     1.016163
      py      :     0.974571
      dz2     :     0.092801  d :     0.458731
      dxz     :     0.109527
      dyz     :     0.081449
      dx2y2   :     0.074727
      dxy     :     0.100227
      f0      :     0.005437  f :     0.044983
      f+1     :     0.007965
      f-1     :     0.005651
      f+2     :     0.007956
      f-2     :     0.006164
      f+3     :     0.004904
      f-3     :     0.006906

  3 C s       :     2.777248  s :     2.777248
      pz      :     0.979694  p :     2.944985
      px      :     0.982119
      py      :     0.983172
      dz2     :     0.068443  d :     0.377231
      dxz     :     0.081706
      dyz     :     0.076135
      dx2y2   :     0.090004
      dxy     :     0.060943
      f0      :     0.005747  f :     0.040769
      f+1     :     0.005139
      f-1     :     0.005822
      f+2     :     0.006531
      f-2     :     0.006060
      f+3     :     0.005079
      f-3     :     0.006391

  4 C s       :     2.791808  s :     2.791808
      pz      :     0.932537  p :     2.965418
      px      :     1.058356
      py      :     0.974525
      dz2     :     0.120593  d :     0.596800
      dxz     :     0.121345
      dyz     :     0.113221
      dx2y2   :     0.119984
      dxy     :     0.121656
      f0      :     0.006490  f :     0.060141
      f+1     :     0.010681
      f-1     :     0.007530
      f+2     :     0.009937
      f-2     :     0.008157
      f+3     :     0.006181
      f-3     :     0.011165

  5 C s       :     2.779750  s :     2.779750
      pz      :     0.989921  p :     2.948802
      px      :     0.999855
      py      :     0.959026
      dz2     :     0.074269  d :     0.368632
      dxz     :     0.093179
      dyz     :     0.055759
      dx2y2   :     0.060094
      dxy     :     0.085331
      f0      :     0.005256  f :     0.040690
      f+1     :     0.006984
      f-1     :     0.004684
      f+2     :     0.007547
      f-2     :     0.005481
      f+3     :     0.004950
      f-3     :     0.005789

  6 Cls       :     5.552802  s :     5.552802
      pz      :     3.490336  p :    10.959007
      px      :     3.802511
      py      :     3.666161
      dz2     :     0.027571  d :     0.095291
      dxz     :     0.017051
      dyz     :     0.029832
      dx2y2   :     0.009236
      dxy     :     0.011601
      f0      :     0.001784  f :     0.011181
      f+1     :     0.001364
      f-1     :     0.002962
      f+2     :     0.001911
      f-2     :     0.002222
      f+3     :     0.000494
      f-3     :     0.000445

  7 P s       :     4.932739  s :     4.932739
      pz      :     3.299870  p :     8.771254
      px      :     2.734170
      py      :     2.737213
      dz2     :     0.068289  d :     0.488224
      dxz     :     0.087279
      dyz     :     0.088782
      dx2y2   :     0.116533
      dxy     :     0.127342
      f0      :     0.007178  f :     0.095035
      f+1     :     0.009561
      f-1     :     0.009597
      f+2     :     0.018378
      f-2     :     0.020361
      f+3     :     0.015423
      f-3     :     0.014537

  8 C s       :     2.779321  s :     2.779321
      pz      :     1.026143  p :     2.989729
      px      :     1.005995
      py      :     0.957591
      dz2     :     0.097996  d :     0.458551
      dxz     :     0.125463
      dyz     :     0.081182
      dx2y2   :     0.088724
      dxy     :     0.065187
      f0      :     0.005884  f :     0.044969
      f+1     :     0.009154
      f-1     :     0.006652
      f+2     :     0.006445
      f-2     :     0.006167
      f+3     :     0.004692
      f-3     :     0.005976

  9 C s       :     2.778068  s :     2.778068
      pz      :     0.971450  p :     2.947589
      px      :     1.017701
      py      :     0.958437
      dz2     :     0.068992  d :     0.377967
      dxz     :     0.078854
      dyz     :     0.059555
      dx2y2   :     0.087445
      dxy     :     0.083121
      f0      :     0.002343  f :     0.040811
      f+1     :     0.008737
      f-1     :     0.004532
      f+2     :     0.006640
      f-2     :     0.005661
      f+3     :     0.004903
      f-3     :     0.007995

 10 C s       :     2.791560  s :     2.791560
      pz      :     1.026921  p :     2.966838
      px      :     1.006902
      py      :     0.933016
      dz2     :     0.120550  d :     0.596890
      dxz     :     0.142495
      dyz     :     0.098320
      dx2y2   :     0.109075
      dxy     :     0.126450
      f0      :     0.006741  f :     0.060196
      f+1     :     0.012290
      f-1     :     0.007476
      f+2     :     0.009455
      f-2     :     0.008031
      f+3     :     0.006851
      f-3     :     0.009352

 11 C s       :     2.779734  s :     2.779734
      pz      :     0.992928  p :     2.949081
      px      :     0.985235
      py      :     0.970917
      dz2     :     0.081697  d :     0.368781
      dxz     :     0.084285
      dyz     :     0.076467
      dx2y2   :     0.074619
      dxy     :     0.051713
      f0      :     0.006263  f :     0.040700
      f+1     :     0.006487
      f-1     :     0.006781
      f+2     :     0.005675
      f-2     :     0.005742
      f+3     :     0.004404
      f-3     :     0.005348

 12 C s       :     2.777509  s :     2.777509
      pz      :     0.960542  p :     2.935402
      px      :     1.026073
      py      :     0.948787
      dz2     :     0.068871  d :     0.377699
      dxz     :     0.079243
      dyz     :     0.056644
      dx2y2   :     0.085658
      dxy     :     0.087282
      f0      :     0.002247  f :     0.040720
      f+1     :     0.008859
      f-1     :     0.004532
      f+2     :     0.006521
      f-2     :     0.005600
      f+3     :     0.004720
      f-3     :     0.008240

 13 C s       :     2.775566  s :     2.775566
      pz      :     0.993569  p :     2.941882
      px      :     1.006473
      py      :     0.941840
      dz2     :     0.082499  d :     0.378994
      dxz     :     0.109577
      dyz     :     0.059930
      dx2y2   :     0.048235
      dxy     :     0.078753
      f0      :     0.005679  f :     0.040722
      f+1     :     0.008625
      f-1     :     0.005033
      f+2     :     0.006714
      f-2     :     0.005189
      f+3     :     0.004095
      f-3     :     0.005387

 14 Cls       :     5.552808  s :     5.552808
      pz      :     3.756496  p :    10.958842
      px      :     3.619006
      py      :     3.583339
      dz2     :     0.012380  d :     0.095421
      dxz     :     0.017627
      dyz     :     0.016593
      dx2y2   :     0.021099
      dxy     :     0.027722
      f0      :     0.001084  f :     0.011199
      f+1     :     0.001034
      f-1     :     0.001188
      f+2     :     0.001032
      f-2     :     0.002695
      f+3     :     0.002163
      f-3     :     0.002002

 15 C s       :     2.779317  s :     2.779317
      pz      :     1.000595  p :     2.989521
      px      :     0.946072
      py      :     1.042854
      dz2     :     0.089781  d :     0.458508
      dxz     :     0.059130
      dyz     :     0.133733
      dx2y2   :     0.083711
      dxy     :     0.092153
      f0      :     0.006039  f :     0.044972
      f+1     :     0.005017
      f-1     :     0.008009
      f+2     :     0.005373
      f-2     :     0.008031
      f+3     :     0.005501
      f-3     :     0.007003

 16 C s       :     2.777285  s :     2.777285
      pz      :     0.985422  p :     2.944715
      px      :     0.953977
      py      :     1.005315
      dz2     :     0.080521  d :     0.377107
      dxz     :     0.057060
      dyz     :     0.095599
      dx2y2   :     0.072444
      dxy     :     0.071484
      f0      :     0.005037  f :     0.040761
      f+1     :     0.005054
      f-1     :     0.007134
      f+2     :     0.005384
      f-2     :     0.007998
      f+3     :     0.004503
      f-3     :     0.005652

 17 C s       :     2.791936  s :     2.791936
      pz      :     0.934543  p :     2.966043
      px      :     0.925904
      py      :     1.105596
      dz2     :     0.121087  d :     0.596717
      dxz     :     0.100729
      dyz     :     0.135661
      dx2y2   :     0.123134
      dxy     :     0.116106
      f0      :     0.006829  f :     0.060103
      f+1     :     0.006228
      f-1     :     0.011694
      f+2     :     0.007235
      f-2     :     0.011008
      f+3     :     0.006355
      f-3     :     0.010754

 18 C s       :     2.779816  s :     2.779816
      pz      :     0.986469  p :     2.950206
      px      :     0.954028
      py      :     1.009709
      dz2     :     0.064225  d :     0.368789
      dxz     :     0.047719
      dyz     :     0.107581
      dx2y2   :     0.069290
      dxy     :     0.079974
      f0      :     0.006106  f :     0.040684
      f+1     :     0.004865
      f-1     :     0.005676
      f+2     :     0.005082
      f-2     :     0.007199
      f+3     :     0.005621
      f-3     :     0.006137

 19 C s       :     2.777394  s :     2.777394
      pz      :     0.986697  p :     2.937946
      px      :     0.944302
      py      :     1.006947
      dz2     :     0.087647  d :     0.377478
      dxz     :     0.057474
      dyz     :     0.088530
      dx2y2   :     0.077112
      dxy     :     0.066714
      f0      :     0.004956  f :     0.040783
      f+1     :     0.005108
      f-1     :     0.007404
      f+2     :     0.005199
      f-2     :     0.008040
      f+3     :     0.004226
      f-3     :     0.005850

 20 C s       :     2.776583  s :     2.776583
      pz      :     0.959684  p :     2.944256
      px      :     0.925453
      py      :     1.059119
      dz2     :     0.057134  d :     0.380361
      dxz     :     0.049140
      dyz     :     0.092967
      dx2y2   :     0.096669
      dxy     :     0.084452
      f0      :     0.002801  f :     0.040777
      f+1     :     0.002590
      f-1     :     0.009411
      f+2     :     0.004975
      f-2     :     0.007144
      f+3     :     0.005075
      f-3     :     0.008783

 21 Cls       :     5.553099  s :     5.553099
      pz      :     3.490882  p :    10.959636
      px      :     3.617005
      py      :     3.851749
      dz2     :     0.027415  d :     0.095280
      dxz     :     0.034456
      dyz     :     0.012524
      dx2y2   :     0.012691
      dxy     :     0.008195
      f0      :     0.001781  f :     0.011170
      f+1     :     0.003506
      f-1     :     0.000810
      f+2     :     0.002376
      f-2     :     0.001759
      f+3     :     0.000483
      f-3     :     0.000456

 22 H s       :     0.791695  s :     0.791695
      pz      :     0.014974  p :     0.055939
      px      :     0.029653
      py      :     0.011312

 23 H s       :     0.790464  s :     0.790464
      pz      :     0.025875  p :     0.056578
      px      :     0.012120
      py      :     0.018583

 24 H s       :     0.778177  s :     0.778177
      pz      :     0.015606  p :     0.059568
      px      :     0.032214
      py      :     0.011748

 25 H s       :     0.789324  s :     0.789324
      pz      :     0.013926  p :     0.057105
      px      :     0.018622
      py      :     0.024558

 26 H s       :     0.786258  s :     0.786258
      pz      :     0.029298  p :     0.057420
      px      :     0.011316
      py      :     0.016807

 27 H s       :     0.789357  s :     0.789357
      pz      :     0.014993  p :     0.057097
      px      :     0.030126
      py      :     0.011979

 28 H s       :     0.791539  s :     0.791539
      pz      :     0.028082  p :     0.055936
      px      :     0.011660
      py      :     0.016194

 29 H s       :     0.782076  s :     0.782076
      pz      :     0.014488  p :     0.058751
      px      :     0.021686
      py      :     0.022577

 30 H s       :     0.778001  s :     0.778001
      pz      :     0.012840  p :     0.059629
      px      :     0.013397
      py      :     0.033392

 31 H s       :     0.789521  s :     0.789521
      pz      :     0.016811  p :     0.057108
      px      :     0.014250
      py      :     0.026047

 32 H s       :     0.791877  s :     0.791877
      pz      :     0.012626  p :     0.055937
      px      :     0.012949
      py      :     0.030362

 33 H s       :     0.790314  s :     0.790314
      pz      :     0.025909  p :     0.056601
      px      :     0.020882
      py      :     0.009810



                      *****************************
                      * MAYER POPULATION ANALYSIS *
                      *****************************

  NA   - Mulliken gross atomic population
  ZA   - Total nuclear charge
  QA   - Mulliken gross atomic charge
  VA   - Mayer's total valence
  BVA  - Mayer's bonded valence
  FA   - Mayer's free valence

  ATOM       NA         ZA         QA         VA         BVA        FA
  0 C      6.1329     6.0000    -0.1329     3.9326     3.9326    -0.0000
  1 C      6.1517     6.0000    -0.1517     3.9533     3.9533    -0.0000
  2 C      6.0893     6.0000    -0.0893     3.8257     3.8257     0.0000
  3 C      6.1602     6.0000    -0.1602     3.7522     3.7522    -0.0000
  4 C      5.9374     6.0000     0.0626     4.0061     4.0061     0.0000
  5 C      6.1660     6.0000    -0.1660     3.9252     3.9252     0.0000
  6 Cl    17.0765    17.0000    -0.0765     1.2255     1.2255    -0.0000
  7 P     14.8632    15.0000     0.1368     3.0727     3.0727    -0.0000
  8 C      6.0877     6.0000    -0.0877     3.8291     3.8291    -0.0000
  9 C      6.1813     6.0000    -0.1813     3.9176     3.9176    -0.0000
 10 C      5.9143     6.0000     0.0857     3.9615     3.9615    -0.0000
 11 C      6.1629     6.0000    -0.1629     3.9260     3.9260     0.0000
 12 C      6.1500     6.0000    -0.1500     3.9661     3.9661     0.0000
 13 C      6.1405     6.0000    -0.1405     3.8501     3.8501     0.0000
 14 Cl    17.0791    17.0000    -0.0791     1.2193     1.2193    -0.0000
 15 C      6.0890     6.0000    -0.0890     3.8203     3.8203    -0.0000
 16 C      6.1558     6.0000    -0.1558     3.7527     3.7527     0.0000
 17 C      5.9436     6.0000     0.0564     4.0054     4.0054     0.0000
 18 C      6.1673     6.0000    -0.1673     3.9210     3.9210     0.0000
 19 C      6.1344     6.0000    -0.1344     3.9288     3.9288     0.0000
 20 C      6.1536     6.0000    -0.1536     3.9523     3.9523    -0.0000
 21 Cl    17.0760    17.0000    -0.0760     1.2260     1.2260    -0.0000
 22 H      0.8470     1.0000     0.1530     0.9642     0.9642    -0.0000
 23 H      0.8401     1.0000     0.1599     0.9671     0.9671    -0.0000
 24 H      0.8054     1.0000     0.1946     0.9599     0.9599    -0.0000
 25 H      0.8379     1.0000     0.1621     0.9693     0.9693     0.0000
 26 H      0.8286     1.0000     0.1714     0.9714     0.9714    -0.0000
 27 H      0.8372     1.0000     0.1628     0.9686     0.9686     0.0000
 28 H      0.8464     1.0000     0.1536     0.9652     0.9652     0.0000
 29 H      0.8158     1.0000     0.1842     0.9526     0.9526     0.0000
 30 H      0.8053     1.0000     0.1947     0.9596     0.9596     0.0000
 31 H      0.8377     1.0000     0.1623     0.9692     0.9692     0.0000
 32 H      0.8469     1.0000     0.1531     0.9643     0.9643    -0.0000
 33 H      0.8390     1.0000     0.1610     0.9672     0.9672     0.0000

  Mayer bond orders larger than 0.100000
B(  0-C ,  1-C ) :   1.4562 B(  0-C ,  5-C ) :   1.4172 B(  0-C , 22-H ) :   0.9443 
B(  1-C ,  2-C ) :   1.4048 B(  1-C , 23-H ) :   0.9334 B(  2-C ,  3-C ) :   1.3304 
B(  2-C ,  7-P ) :   0.9305 B(  3-C ,  4-C ) :   1.3840 B(  3-C , 24-H ) :   0.9120 
B(  4-C ,  5-C ) :   1.4068 B(  4-C ,  6-Cl) :   1.0726 B(  5-C , 25-H ) :   0.9291 
B(  7-P ,  8-C ) :   0.9255 B(  7-P , 15-C ) :   0.9252 B(  8-C ,  9-C ) :   1.3936 
B(  8-C , 13-C ) :   1.3437 B(  9-C , 10-C ) :   1.4065 B(  9-C , 26-H ) :   0.9190 
B( 10-C , 11-C ) :   1.3898 B( 10-C , 14-Cl) :   1.0416 B( 11-C , 12-C ) :   1.4278 
B( 11-C , 27-H ) :   0.9322 B( 12-C , 13-C ) :   1.4583 B( 12-C , 28-H ) :   0.9409 
B( 13-C , 29-H ) :   0.9250 B( 15-C , 16-C ) :   1.3341 B( 15-C , 20-C ) :   1.4011 
B( 16-C , 17-C ) :   1.3838 B( 16-C , 30-H ) :   0.9102 B( 17-C , 18-C ) :   1.4055 
B( 17-C , 21-Cl) :   1.0748 B( 18-C , 19-C ) :   1.4157 B( 18-C , 31-H ) :   0.9297 
B( 19-C , 20-C ) :   1.4566 B( 19-C , 32-H ) :   0.9445 B( 20-C , 33-H ) :   0.9333 


-------
TIMINGS
-------

Total SCF time: 0 days 0 hours 2 min 18 sec 

Total time                  ....     138.056 sec
Sum of individual times     ....     138.135 sec  (100.1%)

SCF preparation             ....       0.302 sec  (  0.2%)
Fock matrix formation       ....     133.481 sec  ( 96.7%)
  Startup                   ....       0.147 sec  (  0.1% of F)
  Split-RI-J                ....       9.404 sec  (  7.0% of F)
  Chain of spheres X        ....      97.833 sec  ( 73.3% of F)
  XC integration            ....      25.716 sec  ( 19.3% of F)
    Basis function eval.    ....       3.699 sec  ( 14.4% of XC)
    Density eval.           ....      10.677 sec  ( 41.5% of XC)
    XC-Functional eval.     ....       0.451 sec  (  1.8% of XC)
    XC-Potential eval.      ....       9.499 sec  ( 36.9% of XC)
Diagonalization             ....       0.000 sec  (  0.0%)
Density matrix formation    ....       0.393 sec  (  0.3%)
Total Energy calculation    ....       0.137 sec  (  0.1%)
Population analysis         ....       0.254 sec  (  0.2%)
Orbital Transformation      ....       0.525 sec  (  0.4%)
Orbital Orthonormalization  ....       0.000 sec  (  0.0%)
DIIS solution               ....       1.880 sec  (  1.4%)
SOSCF solution              ....       1.163 sec  (  0.8%)
Finished LeanSCF after 138.1 sec

Maximum memory used throughout the entire LEANSCF-calculation: 109.4 MB


-------------------------------------------------------------------------------
                          DFT DISPERSION CORRECTION                            
                                                                               
                              DFTD3 V3.1  Rev 1                                
                              USING zero damping                               
-------------------------------------------------------------------------------
The M062X functional is recognized
Active option DFTDOPT                   ...         3   

molecular C6(AA) [au] = 23052.950994 


            DFT-D V3
 parameters
 s6 scaling factor         :     1.0000 
 rs6 scaling factor        :     1.6190 
 s8 scaling factor         :     0.0000 
 rs8 scaling factor        :     1.0000 
 Damping factor alpha6     :    14.0000 
 Damping factor alpha8     :    16.0000 
 ad hoc parameters k1-k3   :    16.0000     1.3333    -4.0000 

 Edisp/kcal,au: -1.627500216760  -0.002593586409 
 E6   /kcal   :  -1.627500217 
 E8   /kcal   :  -0.000000000 
 % E8         :   0.000000000 

-------------------------   ----------------
Dispersion correction           -0.002593586
-------------------------   ----------------


-------------------------   --------------------
FINAL SINGLE POINT ENERGY     -2415.053616686580
-------------------------   --------------------



           ************************************************************
           *        Program running with 6 parallel MPI-processes     *
           *              working on a common directory               *
           ************************************************************

------------------------------------------------------------------------------
                              ORCA PROPERTY CALCULATIONS
------------------------------------------------------------------------------

GBWName                                 ... data/single_point_P_M06-2x/121600/121600.gbw
Number of atoms                         ...     34
Number of basis functions               ...    778
Max core memory                         ...   1024 MB

Electric properties:
Dipole moment                           ... YES
Quadrupole moment                       ...  NO
Static polarizability (Dipole/Dipole)   ...  NO
Static polarizability (Dipole/Quad.)    ...  NO
Static polarizability (Quad./Quad.)     ...  NO
Static polarizability (Velocity)        ...  NO

Atomic electric properties:
Dipole moment                           ...  NO
Quadrupole moment                       ...  NO
Static polarizability                   ...  NO

Choice of electric origin               ... Center of mass
Position of electric origin             ...     0.170603    -0.671587     0.290054

General magnetic properties:
Magnetizability                         ...  NO

EPR properties:
g-Tensor (aka g-matrix)                 ...  NO
Zero-Field splitting spin-orbit         ...  NO
Zero-field splitting spin-spin          ...  NO
Hyperfine couplings                     ...  NO (   0 nuclei)
Quadrupole couplings                    ...  NO (   0 nuclei)
Contact density                         ...  NO (   0 nuclei)

NMR properties:
Chemical shifts                         ...  NO (   0 nuclei)
Spin-rotation constants                 ...  NO (   0 nuclei)
Spin-spin couplings                     ...  NO (   0 nuclei,    0 pairs)

Choice of magnetic origin               ... GIAO
Position of magnetic origin             ...     0.000000     0.000000     0.000000

Properties with geometric perturbations:
SCF Hessian                             ...  NO
IR spectrum                             ...  NO
VCD spectrum                            ...  NO
X-ray spectroscopy properties:
SCF XES/XAS/RIXS spectra                ...  NO


-------------
DIPOLE MOMENT
-------------

Method             : SCF
Type of density    : Electron Density
Multiplicity       :   1
Irrep              :   0
Energy             : -2415.0510231001712782 Eh
Relativity type    : 
Basis              : AO
                                X                 Y                 Z
Electronic contribution:      2.513510041      -9.956794166       4.468400540
Nuclear contribution   :     -2.735925521      10.759928355      -4.639222930
                        -----------------------------------------
Total Dipole Moment    :     -0.222415480       0.803134189      -0.170822390
                        -----------------------------------------
Magnitude (a.u.)       :      0.850689990
Magnitude (Debye)      :      2.162282116



--------------------
Rotational spectrum 
--------------------
 
Rotational constants in cm-1:             0.007543             0.004912             0.003659 
Rotational constants in MHz :           226.127664           147.261998           109.696564 

Dipole components along the rotational axes: 
x,y,z [a.u.] :     0.602345     0.563792    -0.207345 
x,y,z [Debye]:     1.531039     1.433047    -0.527029 

 

Dipole moment calculation done in   0.0 sec 

Maximum memory used throughout the entire PROP-calculation: 59.9 MB

--------------------------------
SUGGESTED CITATIONS FOR THIS RUN
--------------------------------

Below you find a list of papers that are relevant to this ORCA run
We neither can nor want to force you to cite these papers, but we appreciate if you do
You receive ORCA, which is the product of decades of hard work by many enthusiastic individuals, for free
The only thing we kindly ask in return is that you cite our papers,
We deeply appreciate it, if you show your appreciation for ORCA by not just citing the generic ORCA reference.

Please note that relegating all ORCA citations to the supporting information does *not* help us.
SI sections are not indexed - citations you put there will not count into any citation statistics
But we need these citations in order to attract the funding resources that allow us to do what we are doing

Therefore, if you are a happy ORCA user, please consider citing a few of the papers listed below in the main body of your paper

In addition to the list printed below, the program has created the file data/single_point_P_M06-2x/121600/121600.bibtex that contains the list in bibtex format
You can import this file easily into all common literature databanks and citation aid programs


List of essential papers. We consider these as the minimum necessary citations

  1. Neese,F.
     Software update: the ORCA program system, version 5.0
     WIRES Comput. Molec. Sci., 2022 12(1)e1606
     doi.org/10.1002/wcms.1606

List of papers to cite with high priority. The work reported in these papers was absolutely
necessary for this run to complete.
Our perspective: the developers of density functionals and basis sets usually get cited in chemistry papers
Good! But without the algorithms to do something with them, the functionals or basis sets would not do anything.
Hence, in our opinion, the algorithm design and method developments papers are equally worthy of getting cited

  1. Neese,F.
     An improvement of the resolution of the identity approximation for the formation of the Coulomb matrix
     J. Comp. Chem., 2003 24(14)1740-1747
     doi.org/10.1002/jcc.10318
  2. Neese,F.; Wennmohs,F.; Hansen,A.; Becker,U.
     Efficient, approximate and parallel Hartree-Fock and hybrid DFT calculations. A 'chain-of-spheres' algorithm for the Hartree-Fock exchange
     Chem. Phys., 2009 356(1-3)98-109
     doi.org/10.1016/j.chemphys.2008.10.036
  3. Helmich-Paris,B.; de Souza,B.; Neese,F.; Izsák,R.
     An improved chain of spheres for exchange algorithm
     J. Chem. Phys., 2021 155 104109
     doi.org/doi: 10.1063/5.0058766.
  4. Neese,F.
     The SHARK Integral Generation and Digestion System
     J. Comp. Chem., 2022  1-16
     doi.org/10.1002/jcc.26942
  5. Grimme,S.; Antony,J.; Ehrlich,S.; Krieg,H.
     A consistent and accurate ab initio parametrization of density functional dispersion correction (DFT-D) for the 94 elements H-Pu
     J. Chem. Phys., 2010 132 154104-XXXX
     doi.org/10.1063/1.3382344

List of suggested additional citations. These are papers that are important in the 'surrounding' of 
of this run, or papers that preceded the highly important papers. If you like your results we are grateful for a citation.

  1. Izsak,R.; Neese,F.
     An overlap fitted chain of spheres exchange method
     J. Chem. Phys., 2011 135 144105
     doi.org/10.1063/1.3646921
  2. Izsak,R.; Hansen,A.; Neese,F.
     The resolution of identity and chain of spheres approximations for the LPNO-CCSD singles Fock term
     Molec. Phys., 2012 110 2413-2417
     doi.org/10.1080/00268976.2012.687466
  3. Neese,F.
     The ORCA program system
     WIRES Comput. Molec. Sci., 2012 2(1)73-78
     doi.org/10.1002/wcms.81
  4. Izsak,R.; Neese,F.; Klopper,W.
     Robust fitting techniques in the chain of spheres approximation to the Fock exchange: The role of the complementary space
     J. Chem. Phys., 2013 139 
     doi.org/10.1063/1.4819264
  5. Neese,F.
     Software update: the ORCA program system, version 4.0
     WIRES Comput. Molec. Sci., 2018 8(1)1-6
     doi.org/10.1002/wcms.1327
  6. Neese,F.; Wennmohs,F.; Becker,U.; Riplinger,C.
     The ORCA quantum chemistry program package
     J. Chem. Phys., 2020 152 Art. No. L224108
     doi.org/10.1063/5.0004608

List of optional additional citations

  1. Neese,F.
     Approximate second-order SCF convergence for spin unrestricted wavefunctions
     Chem. Phys. Lett., 2000 325(1-3)93-98
     doi.org/10.1016/s0009-2614(00)00662-x

Timings for individual modules:

Sum of individual times          ...      144.825 sec (=   2.414 min)
Startup calculation              ...        4.292 sec (=   0.072 min)   3.0 %
SCF iterations                   ...      140.239 sec (=   2.337 min)  96.8 %
Property calculations            ...        0.294 sec (=   0.005 min)   0.2 %
                             ****ORCA TERMINATED NORMALLY****
TOTAL RUN TIME: 0 days 0 hours 2 minutes 25 seconds 66 msec
