
                                 *****************
                                 * O   R   C   A *
                                 *****************

                                            #,                                       
                                            ###                                      
                                            ####                                     
                                            #####                                    
                                            ######                                   
                                           ########,                                 
                                     ,,################,,,,,                         
                               ,,#################################,,                 
                          ,,##########################################,,             
                       ,#########################################, ''#####,          
                    ,#############################################,,   '####,        
                  ,##################################################,,,,####,       
                ,###########''''           ''''###############################       
              ,#####''   ,,,,##########,,,,          '''####'''          '####       
            ,##' ,,,,###########################,,,                        '##       
           ' ,,###''''                  '''############,,,                           
         ,,##''                                '''############,,,,        ,,,,,,###''
      ,#''                                            '''#######################'''  
     '                                                          ''''####''''         
             ,#######,   #######,   ,#######,      ##                                
            ,#'     '#,  ##    ##  ,#'     '#,    #''#        ,####,   ,####,        
            ##       ##  ##   ,#'  ##            #'  '#       #'       #'  '#        
            ##       ##  #######   ##           ,######,      #####,   #    #        
            '#,     ,#'  ##    ##  '#,     ,#' ,#      #,     #,   #   #,  ,#        
             '#######'   ##     ##  '#######'  #'      '#     '####' # '####'        



                #########################################################
                #                        -***-                          #
                #          Department of theory and spectroscopy        #
                #                                                       #
                #                      Frank Neese                      #
                #                                                       #
                #     Directorship, Architecture, Infrastructure        #
                #                    SHARK, DRIVERS                     #
                #        Core code/Algorithms in most modules           #
                #                                                       #
                #        Max Planck Institute fuer Kohlenforschung      #
                #                Kaiser Wilhelm Platz 1                 #
                #                 D-45470 Muelheim/Ruhr                 #
                #                      Germany                          #
                #                                                       #
                #                  All rights reserved                  #
                #                        -***-                          #
                #########################################################


                         Program Version 6.0.0  -   RELEASE   -


 With contributions from (in alphabetic order):
   Daniel Aravena         : Magnetic Suceptibility
   Michael Atanasov       : Ab Initio Ligand Field Theory (pilot matlab implementation)
   Alexander A. Auer      : GIAO ZORA, VPT2 properties, NMR spectrum
   Ute Becker             : All parallelization in ORCA, NUMFREQ, NUMCALC
   Giovanni Bistoni       : ED, misc. LED, open-shell LED, HFLD
   Martin Brehm           : Molecular dynamics
   Dmytro Bykov           : pre 5.0 version of the SCF Hessian
   Marcos Casanova-Páez   : Triplet and SCS-CIS(D). UHF-(DLPNO)-IP/EA/STEOM-CCSD. UHF-CVS-IP/STEOM-CCSD
   Vijay G. Chilkuri      : MRCI spin determinant printing, contributions to CSF-ICE
   Pauline Colinet        : FMM embedding
   Dipayan Datta          : RHF DLPNO-CCSD density
   Achintya Kumar Dutta   : EOM-CC, STEOM-CC
   Nicolas Foglia         : Exact transition moments, OPA infrastructure, MCD improvements
   Dmitry Ganyushin       : Spin-Orbit,Spin-Spin,Magnetic field MRCI
   Miquel Garcia          : C-PCM and meta-GGA Hessian, CCSD/C-PCM, Gaussian charge scheme
   Tiago L. C. Gouveia    : GS-ROHF, GS-ROCIS
   Yang Guo               : DLPNO-NEVPT2, F12-NEVPT2, CIM, IAO-localization
   Andreas Hansen         : Spin unrestricted coupled pair/coupled cluster methods
   Ingolf Harden          : AUTO-CI MPn and infrastructure 
   Benjamin Helmich-Paris : MC-RPA, TRAH-(SCF,CASSCF), AVAS, COSX integrals, SCF dyn. polar.
   Lee Huntington         : MR-EOM, pCC
   Robert Izsak           : Overlap fitted RIJCOSX, COSX-SCS-MP3, EOM
   Riya Kayal             : Wick's Theorem for AUTO-CI, AUTO-CI UHF-CCSDT
   Emily Kempfer          : AUTO-CI, RHF CISDT and CCSDT
   Christian Kollmar      : KDIIS, OOCD, Brueckner-CCSD(T), CCSD density, CASPT2, CASPT2-K, improved NEVPT2
   Axel Koslowski         : Symmetry handling
   Simone Kossmann        : Meta GGA functionals, TD-DFT gradient, OOMP2, (MP2 Hessian; deprecated post 5.0)
   Lucas Lang             : DCDCAS
   Marvin Lechner         : AUTO-CI (C++ implementation), FIC-MRCC
   Spencer Leger          : CASSCF response
   Dagmar Lenk            : GEPOL surface, SMD, ORCA-2-JSON
   Dimitrios Liakos       : Extrapolation schemes; Compound Job, initial MDCI parallelization
   Dimitrios Manganas     : Further ROCIS development; embedding schemes. LFT, Crystal Embedding
   Dimitrios Pantazis     : SARC Basis sets
   Anastasios Papadopoulos: AUTO-CI, single reference methods and gradients
   Taras Petrenko         : pre 6.0 DFT Hessian and TD-DFT gradient, (ASA, deprecated), ECA, 1-Electron XAS/XES, NRVS
   Peter Pinski           : DLPNO-MP2, DLPNO-MP2 Gradient
   Christoph Reimann      : Effective Core Potentials
   Marius Retegan         : Local ZFS, SOC
   Christoph Riplinger    : Optimizer, TS searches, QM/MM, DLPNO-CCSD(T), (RO)-DLPNO pert. Triples
   Michael Roemelt        : Original ROCIS implementation
   Masaaki Saitow         : Open-shell DLPNO-CCSD energy and density
   Barbara Sandhoefer     : DKH picture change effects
   Kantharuban Sivalingam : CASSCF convergence/infrastructure, NEVPT2 and variants, FIC-MRCI
   Bernardo de Souza      : ESD, SOC TD-DFT
   Georgi Stoychev        : AutoAux, RI-MP2 NMR, DLPNO-MP2 response, X2C
   Van Anh Tran           : RI-MP2 g-tensors
   Willem Van den Heuvel  : Paramagnetic NMR
   Zikuan Wang            : NOTCH, Electric field optimization 
   Frank Wennmohs         : Technical directorship and infrastructure
   Hang Xu                : AUTO-CI-Response properties 


 We gratefully acknowledge several colleagues who have allowed us to
 interface, adapt or use parts of their codes:
   Stefan Grimme, W. Hujo, H. Kruse, P. Pracht,  : VdW corrections, initial TS optimization,
                  C. Bannwarth, S. Ehlert,         DFT functionals, gCP, sTDA/sTD-DF
                  L. Wittmann, M. Mueller
   Ed Valeev, F. Pavosevic, A. Kumar             : LibInt (2-el integral package), F12 methods
   Garnet Chan, S. Sharma, J. Yang, R. Olivares  : DMRG
   Ulf Ekstrom                                   : XCFun DFT Library
   Mihaly Kallay                                 : mrcc  (arbitrary order and MRCC methods)
   Frank Weinhold                                : gennbo (NPA and NBO analysis)
   Simon Mueller                                 : openCOSMO-RS
   Christopher J. Cramer and Donald G. Truhlar   : smd solvation model
   Lars Goerigk                                  : TD-DFT with DH, B97 family of functionals
   V. Asgeirsson, H. Jonsson                     : NEB implementation
   FAccTs GmbH                                   : IRC, NEB, NEB-TS, DLPNO-Multilevel, CI-OPT
                                                   MM, QMMM, 2- and 3-layer-ONIOM, Crystal-QMMM,
                                                   LR-CPCM, SF, NACMEs, symmetry and pop. for TD-DFT,
                                                   nearIR, NL-DFT gradient (VV10), updates on ESD,
                                                   ML-optimized integration grids, MBIS, APM,
                                                   GOAT, DOCKER, SOLVATOR, interface openCOSMO-RS
   S Lehtola, MJT Oliveira, MAL Marques          : LibXC Library
   Liviu Ungur et al                             : ANISO software


 Your calculation uses the libint2 library for the computation of 2-el integrals
 For citations please refer to: http://libint.valeyev.net

 Your ORCA version has been built with support for libXC version: 6.2.2
 For citations please refer to: https://libxc.gitlab.io

 This ORCA versions uses:
   CBLAS   interface :  Fast vector & matrix operations
   LAPACKE interface :  Fast linear algebra routines
   Shared memory     :  Shared parallel matrices


Your calculation utilizes the atom-pairwise dispersion correction
with the Becke-Johnson damping scheme (D3BJ)


Warning: RI is on but no J-basis has been assigned. Assigning Def2/J (nothing to worry about!)
================================================================================

----- Orbital basis set information -----
Your calculation utilizes the basis: def2-SVP
   F. Weigend and R. Ahlrichs, Phys. Chem. Chem. Phys. 7, 3297 (2005).

----- AuxJ basis set information -----
Your calculation utilizes the auxiliary basis: def2/J
   F. Weigend, Phys. Chem. Chem. Phys. 8, 1057 (2006).

================================================================================
                                        WARNINGS
                       Please study these warnings very carefully!
================================================================================


WARNING: Geometry Optimization
  ===> : Switching off AutoStart
         For restart on a previous wavefunction, please use MOREAD

================================================================================
                                       INPUT FILE
================================================================================
NAME = data/geom_opt_P_BP86/603962/603962.inp
|  1> ! RI BP86 def2-SVP D3BJ TIGHTSCF Opt
|  2> %pal
|  3> nprocs 6
|  4> end
|  5> 
|  6> * xyz 0 1
|  7> C     -1.542124   -3.912666    0.707674
|  8> C     -0.223742   -3.812667    0.275043
|  9> C      0.221111   -2.644223   -0.351148
| 10> C     -0.636200   -1.544687   -0.540296
| 11> C     -1.969476   -1.681842   -0.122714
| 12> C     -2.416475   -2.849385    0.504720
| 13> P     -0.038806   -0.054266   -1.415456
| 14> C     -0.958517    1.332816   -0.691762
| 15> C     -1.291523    2.425899   -1.490339
| 16> C     -1.991089    3.490684   -0.926389
| 17> C     -2.338858    3.440498    0.416564
| 18> C     -1.969415    2.322605    1.142697
| 19> N     -1.291519    1.276410    0.621680
| 20> C      1.584577    0.227380   -0.650991
| 21> C      1.811785    0.265684    0.722928
| 22> C      3.106310    0.479750    1.190392
| 23> C      4.139427    0.648527    0.278542
| 24> C      3.832943    0.595083   -1.069746
| 25> N      2.587954    0.388280   -1.552183
| 26> H     -1.890066   -4.820102    1.193321
| 27> H      0.460978   -4.644625    0.416281
| 28> H      1.252830   -2.607754   -0.697597
| 29> H     -2.684107   -0.876036   -0.275148
| 30> H     -3.450573   -2.924514    0.830154
| 31> H     -1.009696    2.459144   -2.538626
| 32> H     -2.257983    4.351568   -1.532637
| 33> H     -2.881912    4.252603    0.886321
| 34> H     -2.215539    2.233697    2.196925
| 35> H      0.996624    0.130363    1.427868
| 36> H      3.301062    0.513773    2.258255
| 37> H      5.157599    0.817447    0.609595
| 38> H      4.604423    0.720557   -1.823931
| 39> **                         ****END OF INPUT****
================================================================================

                       *****************************
                       * Geometry Optimization Run *
                       *****************************

Geometry optimization settings:
Update method            Update   .... BFGS
Choice of coordinates    CoordSys .... (2022) Redundant Internals
Initial Hessian          InHess   .... Almloef's Model
Max. no of cycles        MaxIter  .... 96

Convergence Tolerances:
Energy Change            TolE     ....  5.0000e-06 Eh
Max. Gradient            TolMAXG  ....  3.0000e-04 Eh/bohr
RMS Gradient             TolRMSG  ....  1.0000e-04 Eh/bohr
Max. Displacement        TolMAXD  ....  4.0000e-03 bohr
RMS Displacement         TolRMSD  ....  2.0000e-03 bohr
Strict Convergence                .... False

------------------------------------------------------------------------------
                        ORCA OPTIMIZATION COORDINATE SETUP
------------------------------------------------------------------------------

The optimization will be done in redundant internal coordinates (2022)
Making redundant internal coordinates   ...  (2022 redundants) done
Evaluating the initial hessian          ...  (Almloef) done
Evaluating the coordinates              ...  done
Calculating the B-matrix                .... done
Calculating the G-matrix                .... done
Diagonalizing the G-matrix              .... done
Small eigenvalue found = 4.978e-03
Small eigenvalue found = 7.668e-03
Small eigenvalue found = 1.068e-02
Small eigenvalue found = 2.780e-02
The first mode is                       ....   73
The number of degrees of freedom        ....   90

    -----------------------------------------------------------------
                    Redundant Internal Coordinates


    -----------------------------------------------------------------
         Definition                    Initial Value    Approx d2E/dq
    -----------------------------------------------------------------
      1. B(C   1,C   0)                  1.3912         0.622161   
      2. B(C   2,C   1)                  1.3983         0.606011   
      3. B(C   3,C   2)                  1.4070         0.586902   
      4. B(C   4,C   3)                  1.4039         0.593789   
      5. B(C   5,C   4)                  1.3988         0.604924   
      6. B(C   5,C   0)                  1.3915         0.621384   
      7. B(P   6,C   3)                  1.8287         0.419099   
      8. B(C   7,P   6)                  1.8148         0.441009   
      9. B(C   8,C   7)                  1.3941         0.615510   
     10. B(C   9,C   8)                  1.3933         0.617337   
     11. B(C  10,C   9)                  1.3882         0.629037   
     12. B(C  11,C  10)                  1.3833         0.640431   
     13. B(N  12,C  11)                  1.3511         0.645514   
     14. B(N  12,C   7)                  1.3562         0.633645   
     15. B(C  13,P   6)                  1.8163         0.438560   
     16. B(C  14,C  13)                  1.3931         0.617708   
     17. B(C  15,C  14)                  1.3929         0.618199   
     18. B(C  16,C  15)                  1.3883         0.628786   
     19. B(C  17,C  16)                  1.3837         0.639388   
     20. B(N  18,C  17)                  1.3511         0.645527   
     21. B(N  18,C  13)                  1.3582         0.628862   
     22. B(H  19,C   0)                  1.0864         0.364837   
     23. B(H  20,C   1)                  1.0867         0.364475   
     24. B(H  21,C   2)                  1.0889         0.361498   
     25. B(H  22,C   4)                  1.0878         0.363054   
     26. B(H  23,C   5)                  1.0867         0.364496   
     27. B(H  24,C   8)                  1.0860         0.365405   
     28. B(H  25,C   9)                  1.0862         0.365125   
     29. B(H  26,C  10)                  1.0840         0.368102   
     30. B(H  27,C  11)                  1.0862         0.365133   
     31. B(H  28,C  14)                  1.0862         0.365218   
     32. B(H  29,C  15)                  1.0860         0.365417   
     33. B(H  30,C  16)                  1.0839         0.368282   
     34. B(H  31,C  17)                  1.0861         0.365230   
     35. A(C   1,C   0,H  19)          120.1694         0.353899   
     36. A(C   1,C   0,C   5)          119.6830         0.434512   
     37. A(C   5,C   0,H  19)          120.1451         0.353824   
     38. A(C   2,C   1,H  20)          119.8329         0.352268   
     39. A(C   0,C   1,H  20)          120.1109         0.353840   
     40. A(C   0,C   1,C   2)          120.0547         0.432559   
     41. A(C   3,C   2,H  21)          120.5536         0.349881   
     42. A(C   1,C   2,C   3)          121.2889         0.428052   
     43. A(C   1,C   2,H  21)          118.1562         0.351780   
     44. A(C   2,C   3,P   6)          120.1450         0.427400   
     45. A(C   4,C   3,P   6)          122.1564         0.428294   
     46. A(C   2,C   3,C   4)          117.5380         0.426492   
     47. A(C   5,C   4,H  22)          118.1143         0.351928   
     48. A(C   3,C   4,C   5)          121.2292         0.428810   
     49. A(C   3,C   4,H  22)          120.6558         0.350825   
     50. A(C   0,C   5,C   4)          120.1607         0.432322   
     51. A(C   4,C   5,H  23)          119.7440         0.352164   
     52. A(C   0,C   5,H  23)          120.0949         0.353768   
     53. A(C   3,P   6,C   7)          105.4580         0.433153   
     54. A(C   3,P   6,C  13)          102.5288         0.432720   
     55. A(C   7,P   6,C  13)           99.5896         0.436707   
     56. A(C   8,C   7,N  12)          121.9207         0.432352   
     57. A(P   6,C   7,N  12)          118.6104         0.434448   
     58. A(P   6,C   7,C   8)          119.4663         0.435033   
     59. A(C   7,C   8,C   9)          119.1635         0.433163   
     60. A(C   9,C   8,H  24)          119.8419         0.353526   
     61. A(C   7,C   8,H  24)          120.9940         0.353349   
     62. A(C   8,C   9,C  10)          119.3239         0.434861   
     63. A(C   8,C   9,H  25)          120.2087         0.353480   
     64. A(C  10,C   9,H  25)          120.4671         0.354607   
     65. A(C   9,C  10,C  11)          118.0441         0.437748   
     66. A(C   9,C  10,H  26)          121.1751         0.355095   
     67. A(C  11,C  10,H  26)          120.7806         0.356178   
     68. A(N  12,C  11,H  27)          115.1233         0.353968   
     69. A(C  10,C  11,H  27)          121.0047         0.355689   
     70. A(C  10,C  11,N  12)          123.8721         0.436908   
     71. A(C   7,N  12,C  11)          117.6753         0.433215   
     72. A(C  14,C  13,N  18)          122.0476         0.432040   
     73. A(P   6,C  13,N  18)          113.5388         0.433422   
     74. A(P   6,C  13,C  14)          124.4104         0.434876   
     75. A(C  15,C  14,H  28)          119.9227         0.353579   
     76. A(C  13,C  14,H  28)          120.9477         0.353531   
     77. A(C  13,C  14,C  15)          119.1297         0.433550   
     78. A(C  16,C  15,H  29)          120.5700         0.354631   
     79. A(C  14,C  15,H  29)          120.0978         0.353612   
     80. A(C  14,C  15,C  16)          119.3322         0.434939   
     81. A(C  17,C  16,H  30)          120.7769         0.356110   
     82. A(C  15,C  16,H  30)          121.1574         0.355101   
     83. A(C  15,C  16,C  17)          118.0656         0.437588   
     84. A(N  18,C  17,H  31)          115.1029         0.353986   
     85. A(C  16,C  17,H  31)          120.9842         0.355607   
     86. A(C  16,C  17,N  18)          123.9129         0.436782   
     87. A(C  13,N  18,C  17)          117.5116         0.432626   
     88. D(C   2,C   1,C   0,H  19)    179.9245         0.026796   
     89. D(H  20,C   1,C   0,C   5)   -179.0615         0.026796   
     90. D(H  20,C   1,C   0,H  19)      0.3651         0.026796   
     91. D(C   2,C   1,C   0,C   5)      0.4979         0.026796   
     92. D(C   3,C   2,C   1,H  20)   -179.4922         0.025345   
     93. D(H  21,C   2,C   1,C   0)   -178.6440         0.025345   
     94. D(C   3,C   2,C   1,C   0)      0.9472         0.025345   
     95. D(H  21,C   2,C   1,H  20)      0.9166         0.025345   
     96. D(P   6,C   3,C   2,H  21)      1.7351         0.023692   
     97. D(P   6,C   3,C   2,C   1)   -177.8463         0.023692   
     98. D(C   4,C   3,C   2,H  21)    177.2281         0.023692   
     99. D(C   4,C   3,C   2,C   1)     -2.3533         0.023692   
    100. D(H  22,C   4,C   3,C   2)   -177.9272         0.024280   
    101. D(C   5,C   4,C   3,C   2)      2.3945         0.024280   
    102. D(C   5,C   4,C   3,P   6)    177.7906         0.024280   
    103. D(H  22,C   4,C   3,P   6)     -2.5311         0.024280   
    104. D(H  23,C   5,C   4,H  22)     -0.5048         0.025249   
    105. D(C   0,C   5,C   4,H  22)    179.2791         0.025249   
    106. D(C   0,C   5,C   4,C   3)     -1.0347         0.025249   
    107. D(H  23,C   5,C   0,H  19)     -0.0999         0.026726   
    108. D(H  23,C   5,C   0,C   1)    179.3268         0.026726   
    109. D(H  23,C   5,C   4,C   3)    179.1815         0.025249   
    110. D(C   4,C   5,C   0,H  19)   -179.8830         0.026726   
    111. D(C   4,C   5,C   0,C   1)     -0.4563         0.026726   
    112. D(C  13,P   6,C   3,C   4)    138.9586         0.003683   
    113. D(C  13,P   6,C   3,C   2)    -45.7624         0.003683   
    114. D(C   7,P   6,C   3,C   4)     35.1600         0.003683   
    115. D(C   7,P   6,C   3,C   2)   -149.5610         0.003683   
    116. D(N  12,C   7,P   6,C   3)     33.5431         0.003926   
    117. D(C   8,C   7,P   6,C  13)    107.0046         0.003926   
    118. D(C   8,C   7,P   6,C   3)   -147.0345         0.003926   
    119. D(N  12,C   7,P   6,C  13)    -72.4179         0.003926   
    120. D(H  24,C   8,C   7,N  12)    179.4615         0.026193   
    121. D(H  24,C   8,C   7,P   6)      0.0588         0.026193   
    122. D(C   9,C   8,C   7,N  12)     -0.2380         0.026193   
    123. D(C   9,C   8,C   7,P   6)   -179.6407         0.026193   
    124. D(H  25,C   9,C   8,H  24)      0.2063         0.026358   
    125. D(H  25,C   9,C   8,C   7)    179.9094         0.026358   
    126. D(C  10,C   9,C   8,H  24)   -179.6138         0.026358   
    127. D(C  10,C   9,C   8,C   7)      0.0892         0.026358   
    128. D(H  26,C  10,C   9,H  25)      0.0991         0.027430   
    129. D(H  26,C  10,C   9,C   8)    179.9188         0.027430   
    130. D(C  11,C  10,C   9,H  25)   -179.7605         0.027430   
    131. D(C  11,C  10,C   9,C   8)      0.0592         0.027430   
    132. D(H  27,C  11,C  10,H  26)      0.0562         0.028499   
    133. D(H  27,C  11,C  10,C   9)    179.9164         0.028499   
    134. D(N  12,C  11,C  10,H  26)   -179.9345         0.028499   
    135. D(N  12,C  11,C  10,C   9)     -0.0743         0.028499   
    136. D(C   7,N  12,C  11,H  27)    179.9431         0.030761   
    137. D(C   7,N  12,C  11,C  10)     -0.0657         0.030761   
    138. D(C  11,N  12,C   7,C   8)      0.2233         0.029553   
    139. D(C  11,N  12,C   7,P   6)    179.6309         0.029553   
    140. D(N  18,C  13,P   6,C   7)   -122.2131         0.003898   
    141. D(N  18,C  13,P   6,C   3)    129.4594         0.003898   
    142. D(C  14,C  13,P   6,C   7)     58.4391         0.003898   
    143. D(C  14,C  13,P   6,C   3)    -49.8883         0.003898   
    144. D(H  28,C  14,C  13,N  18)   -179.7225         0.026391   
    145. D(H  28,C  14,C  13,P   6)     -0.4280         0.026391   
    146. D(C  15,C  14,C  13,N  18)      0.2114         0.026391   
    147. D(C  15,C  14,C  13,P   6)    179.5059         0.026391   
    148. D(H  29,C  15,C  14,C  13)    179.9246         0.026436   
    149. D(C  16,C  15,C  14,H  28)    179.8722         0.026436   
    150. D(C  16,C  15,C  14,C  13)     -0.0623         0.026436   
    151. D(H  29,C  15,C  14,H  28)     -0.1409         0.026436   
    152. D(H  30,C  16,C  15,H  29)     -0.0241         0.027406   
    153. D(H  30,C  16,C  15,C  14)    179.9627         0.027406   
    154. D(C  17,C  16,C  15,H  29)    179.9772         0.027406   
    155. D(C  17,C  16,C  15,C  14)     -0.0360         0.027406   
    156. D(H  31,C  17,C  16,H  30)      0.0260         0.028400   
    157. D(H  31,C  17,C  16,C  15)   -179.9753         0.028400   
    158. D(N  18,C  17,C  16,H  30)    179.9954         0.028400   
    159. D(N  18,C  17,C  16,C  15)     -0.0059         0.028400   
    160. D(C  13,N  18,C  17,H  31)   -179.8830         0.030762   
    161. D(C  13,N  18,C  17,C  16)      0.1459         0.030762   
    162. D(C  17,N  18,C  13,C  14)     -0.2484         0.029075   
    163. D(C  17,N  18,C  13,P   6)   -179.6135         0.029075   
    -----------------------------------------------------------------

Number of atoms                         .... 32
Number of degrees of freedom            .... 163


         *************************************************************
         *                GEOMETRY OPTIMIZATION CYCLE   1            *
         *************************************************************
---------------------------------
CARTESIAN COORDINATES (ANGSTROEM)
---------------------------------
  C     -1.542124   -3.912666    0.707674
  C     -0.223742   -3.812667    0.275043
  C      0.221111   -2.644223   -0.351148
  C     -0.636200   -1.544687   -0.540296
  C     -1.969476   -1.681842   -0.122714
  C     -2.416475   -2.849385    0.504720
  P     -0.038806   -0.054266   -1.415456
  C     -0.958517    1.332816   -0.691762
  C     -1.291523    2.425899   -1.490339
  C     -1.991089    3.490684   -0.926389
  C     -2.338858    3.440498    0.416564
  C     -1.969415    2.322605    1.142697
  N     -1.291519    1.276410    0.621680
  C      1.584577    0.227380   -0.650991
  C      1.811785    0.265684    0.722928
  C      3.106310    0.479750    1.190392
  C      4.139427    0.648527    0.278542
  C      3.832943    0.595083   -1.069746
  N      2.587954    0.388280   -1.552183
  H     -1.890066   -4.820102    1.193321
  H      0.460978   -4.644625    0.416281
  H      1.252830   -2.607754   -0.697597
  H     -2.684107   -0.876036   -0.275148
  H     -3.450573   -2.924514    0.830154
  H     -1.009696    2.459144   -2.538626
  H     -2.257983    4.351568   -1.532637
  H     -2.881912    4.252603    0.886321
  H     -2.215539    2.233697    2.196925
  H      0.996624    0.130363    1.427868
  H      3.301062    0.513773    2.258255
  H      5.157599    0.817447    0.609595
  H      4.604423    0.720557   -1.823931

----------------------------
CARTESIAN COORDINATES (A.U.)
----------------------------
  NO LB      ZA    FRAG     MASS         X           Y           Z
   0 C     6.0000    0    12.011   -2.914192   -7.393867    1.337310
   1 C     6.0000    0    12.011   -0.422811   -7.204896    0.519756
   2 C     6.0000    0    12.011    0.417839   -4.996857   -0.663574
   3 C     6.0000    0    12.011   -1.202244   -2.919035   -1.021011
   4 C     6.0000    0    12.011   -3.721770   -3.178221   -0.231896
   5 C     6.0000    0    12.011   -4.566476   -5.384557    0.953783
   6 P    15.0000    0    30.974   -0.073333   -0.102548   -2.674824
   7 C     6.0000    0    12.011   -1.811335    2.518657   -1.307241
   8 C     6.0000    0    12.011   -2.440625    4.584285   -2.816333
   9 C     6.0000    0    12.011   -3.762613    6.596437   -1.750622
  10 C     6.0000    0    12.011   -4.419801    6.501599    0.787192
  11 C     6.0000    0    12.011   -3.721655    4.389087    2.159384
  12 N     7.0000    0    14.007   -2.440617    2.412065    1.174805
  13 C     6.0000    0    12.011    2.994417    0.429686   -1.230195
  14 C     6.0000    0    12.011    3.423777    0.502070    1.366136
  15 C     6.0000    0    12.011    5.870075    0.906596    2.249515
  16 C     6.0000    0    12.011    7.822383    1.225538    0.526368
  17 C     6.0000    0    12.011    7.243213    1.124544   -2.021527
  18 N     7.0000    0    14.007    4.890524    0.733743   -2.933201
  19 H     1.0000    0     1.008   -3.571707   -9.108673    2.255050
  20 H     1.0000    0     1.008    0.871122   -8.777069    0.786657
  21 H     1.0000    0     1.008    2.367506   -4.927941   -1.318267
  22 H     1.0000    0     1.008   -5.072227   -1.655468   -0.519954
  23 H     1.0000    0     1.008   -6.520638   -5.526531    1.568764
  24 H     1.0000    0     1.008   -1.908049    4.647109   -4.797308
  25 H     1.0000    0     1.008   -4.266969    8.223272   -2.896264
  26 H     1.0000    0     1.008   -5.446024    8.036255    1.674904
  27 H     1.0000    0     1.008   -4.186762    4.221076    4.151587
  28 H     1.0000    0     1.008    1.883346    0.246350    2.698279
  29 H     1.0000    0     1.008    6.238103    0.970890    4.267483
  30 H     1.0000    0     1.008    9.746450    1.544751    1.151968
  31 H     1.0000    0     1.008    8.701098    1.361655   -3.446730

--------------------------------
INTERNAL COORDINATES (ANGSTROEM)
--------------------------------
 C      0   0   0     0.000000000000     0.00000000     0.00000000
 C      1   0   0     1.391150775468     0.00000000     0.00000000
 C      2   1   0     1.398309958924   120.05474042     0.00000000
 C      3   2   1     1.407031816243   121.28892899     0.94719868
 C      4   3   2     1.403855802041   117.53802005   357.64666456
 C      1   2   3     1.391490740996   119.68302092     0.49786684
 P      4   3   2     1.828698819947   120.14500041   182.15370763
 C      7   4   3     1.814827210475   105.45799055   210.43895652
 C      8   7   4     1.394076276914   119.46629230   212.96553379
 C      9   8   7     1.393269280176   119.16348327   180.35932567
 C     10   9   8     1.388158734499   119.32392215     0.08920582
 C     11  10   9     1.383272215938   118.04408633     0.05918152
 N     12  11  10     1.351120157177   123.87205129   359.92572412
 C      7   4   3     1.816343461526   102.52875255   314.23759813
 C     14   7   4     1.393105914940   124.41036085   310.11167179
 C     15  14   7     1.392889736942   119.12966216   179.50587564
 C     16  15  14     1.388267565680   119.33219882   359.93771285
 C     17  16  15     1.383715734657   118.06564792   359.96402327
 N     18  17  16     1.351114558392   123.91286912     0.00000000
 H      1   2   3     1.086442238717   120.16940063   179.92447993
 H      2   1   3     1.086712365260   120.11092338   180.44064733
 H      3   2   1     1.088944898754   118.15619188   181.35602293
 H      5   4   3     1.087776125934   120.65576598   182.07282748
 H      6   1   2     1.086696981040   120.09493842   179.32683199
 H      9   8   7     1.086019024844   120.99395713     0.05883711
 H     10   9   8     1.086227557281   120.20870098   179.90935912
 H     11  10   9     1.084017443121   121.17514863   179.91880836
 H     12  11  10     1.086222045359   121.00466560   179.91637922
 H     15  14   7     1.086158198681   120.94765354   359.57204207
 H     16  15  14     1.086009803272   120.09784494   179.92462220
 H     17  16  15     1.083883885291   121.15744772   179.96274683
 H     18  17  16     1.086149220550   120.98419219   180.02473727

---------------------------
INTERNAL COORDINATES (A.U.)
---------------------------
 C      0   0   0     0.000000000000     0.00000000     0.00000000
 C      1   0   0     2.628893976627     0.00000000     0.00000000
 C      2   1   0     2.642422872701   120.05474042     0.00000000
 C      3   2   1     2.658904794414   121.28892899     0.94719868
 C      4   3   2     2.652902997374   117.53802005   357.64666456
 C      1   2   3     2.629536418370   119.68302092     0.49786684
 P      4   3   2     3.455739951126   120.14500041   182.15370763
 C      7   4   3     3.429526408186   105.45799055   210.43895652
 C      8   7   4     2.634422373164   119.46629230   212.96553379
 C      9   8   7     2.632897370337   119.16348327   180.35932567
 C     10   9   8     2.623239838614   119.32392215     0.08920582
 C     11  10   9     2.614005656786   118.04408633     0.05918152
 N     12  11  10     2.553247071085   123.87205129   359.92572412
 C      7   4   3     3.432391707424   102.52875255   314.23759813
 C     14   7   4     2.632588654783   124.41036085   310.11167179
 C     15  14   7     2.632180137569   119.12966216   179.50587564
 C     16  15  14     2.623445499740   119.33219882   359.93771285
 C     17  16  15     2.614843785698   118.06564792   359.96402327
 N     18  17  16     2.553236490915   123.91286912     0.00000000
 H      1   2   3     2.053078291500   120.16940063   179.92447993
 H      2   1   3     2.053588756686   120.11092338   180.44064733
 H      3   2   1     2.057807633576   118.15619188   181.35602293
 H      5   4   3     2.055598973034   120.65576598   182.07282748
 H      6   1   2     2.053559684724   120.09493842   179.32683199
 H      9   8   7     2.052278533183   120.99395713     0.05883711
 H     10   9   8     2.052672602379   120.20870098   179.90935912
 H     11  10   9     2.048496091892   121.17514863   179.91880836
 H     12  11  10     2.052662186356   121.00466560   179.91637922
 H     15  14   7     2.052541533620   120.94765354   359.57204207
 H     16  15  14     2.052261106937   120.09784494   179.92462220
 H     17  16  15     2.048243704170   121.15744772   179.96274683
 H     18  17  16     2.052524567411   120.98419219   180.02473727

---------------------
BASIS SET INFORMATION
---------------------
There are 4 groups of distinct atoms

 Group   1 Type C   : 7s4p1d contracted to 3s2p1d pattern {511/31/1}
 Group   2 Type P   : 10s7p1d contracted to 4s3p1d pattern {5311/511/1}
 Group   3 Type N   : 7s4p1d contracted to 3s2p1d pattern {511/31/1}
 Group   4 Type H   : 4s1p contracted to 2s1p pattern {31/1}

Atom   0C    basis set group =>   1
Atom   1C    basis set group =>   1
Atom   2C    basis set group =>   1
Atom   3C    basis set group =>   1
Atom   4C    basis set group =>   1
Atom   5C    basis set group =>   1
Atom   6P    basis set group =>   2
Atom   7C    basis set group =>   1
Atom   8C    basis set group =>   1
Atom   9C    basis set group =>   1
Atom  10C    basis set group =>   1
Atom  11C    basis set group =>   1
Atom  12N    basis set group =>   3
Atom  13C    basis set group =>   1
Atom  14C    basis set group =>   1
Atom  15C    basis set group =>   1
Atom  16C    basis set group =>   1
Atom  17C    basis set group =>   1
Atom  18N    basis set group =>   3
Atom  19H    basis set group =>   4
Atom  20H    basis set group =>   4
Atom  21H    basis set group =>   4
Atom  22H    basis set group =>   4
Atom  23H    basis set group =>   4
Atom  24H    basis set group =>   4
Atom  25H    basis set group =>   4
Atom  26H    basis set group =>   4
Atom  27H    basis set group =>   4
Atom  28H    basis set group =>   4
Atom  29H    basis set group =>   4
Atom  30H    basis set group =>   4
Atom  31H    basis set group =>   4
---------------------------------
AUXILIARY/J BASIS SET INFORMATION
---------------------------------
There are 4 groups of distinct atoms

 Group   1 Type C   : 12s5p4d2f1g contracted to 6s4p3d1f1g pattern {711111/2111/211/2/1}
 Group   2 Type P   : 14s5p5d2f1g contracted to 8s4p3d1f1g pattern {71111111/2111/311/2/1}
 Group   3 Type N   : 12s5p4d2f1g contracted to 6s4p3d1f1g pattern {711111/2111/211/2/1}
 Group   4 Type H   : 5s2p1d contracted to 3s1p1d pattern {311/2/1}

Atom   0C    basis set group =>   1
Atom   1C    basis set group =>   1
Atom   2C    basis set group =>   1
Atom   3C    basis set group =>   1
Atom   4C    basis set group =>   1
Atom   5C    basis set group =>   1
Atom   6P    basis set group =>   2
Atom   7C    basis set group =>   1
Atom   8C    basis set group =>   1
Atom   9C    basis set group =>   1
Atom  10C    basis set group =>   1
Atom  11C    basis set group =>   1
Atom  12N    basis set group =>   3
Atom  13C    basis set group =>   1
Atom  14C    basis set group =>   1
Atom  15C    basis set group =>   1
Atom  16C    basis set group =>   1
Atom  17C    basis set group =>   1
Atom  18N    basis set group =>   3
Atom  19H    basis set group =>   4
Atom  20H    basis set group =>   4
Atom  21H    basis set group =>   4
Atom  22H    basis set group =>   4
Atom  23H    basis set group =>   4
Atom  24H    basis set group =>   4
Atom  25H    basis set group =>   4
Atom  26H    basis set group =>   4
Atom  27H    basis set group =>   4
Atom  28H    basis set group =>   4
Atom  29H    basis set group =>   4
Atom  30H    basis set group =>   4
Atom  31H    basis set group =>   4


           ************************************************************
           *        Program running with 6 parallel MPI-processes     *
           *              working on a common directory               *
           ************************************************************
------------------------------------------------------------------------------
                             ORCA STARTUP CALCULATIONS
                           -- RI-GTO INTEGRALS CHOSEN --
------------------------------------------------------------------------------
------------------------------------------------------------------------------
                   ___                                                        
                  /   \      - P O W E R E D   B Y -                         
                 /     \                                                     
                 |  |  |   _    _      __       _____    __    __             
                 |  |  |  | |  | |    /  \     |  _  \  |  |  /  |          
                  \  \/   | |  | |   /    \    | | | |  |  | /  /          
                 / \  \   | |__| |  /  /\  \   | |_| |  |  |/  /          
                |  |  |   |  __  | /  /__\  \  |    /   |      \           
                |  |  |   | |  | | |   __   |  |    \   |  |\   \          
                \     /   | |  | | |  |  |  |  | |\  \  |  | \   \       
                 \___/    |_|  |_| |__|  |__|  |_| \__\ |__|  \__/        
                                                                              
                      - O R C A' S   B I G   F R I E N D -                    
                                      &                                       
                       - I N T E G R A L  F E E D E R -                       
                                                                              
 v1 FN, 2020, v2 2021, v3 2022-2024                                           
------------------------------------------------------------------------------


----------------------
SHARK INTEGRAL PACKAGE
----------------------

Number of atoms                             ...     32
Number of basis functions                   ...    335
Number of shells                            ...    155
Maximum angular momentum                    ...      2
Integral batch strategy                     ... SHARK/LIBINT Hybrid
RI-J (if used) integral strategy            ... SPLIT-RIJ (Revised 2003 algorithm where possible)
Printlevel                                  ...      1
Contraction scheme used                     ... SEGMENTED contraction
Prescreening option                         ... SCHWARTZ
   Thresh                                   ... 2.500e-11
   Tcut                                     ... 2.500e-12
   Tpresel                                  ... 2.500e-12 
Coulomb Range Separation                    ... NOT USED
Exchange Range Separation                   ... NOT USED
Multipole approximations                    ... NOT USED
Finite Nucleus Model                        ... NOT USED
CABS basis                                  ... NOT available
Auxiliary Coulomb fitting basis             ... AVAILABLE
   # of basis functions in Aux-J            ...   1076
   # of shells in Aux-J                     ...    352
   Maximum angular momentum in Aux-J        ...      4
Auxiliary J/K fitting basis                 ... NOT available
Auxiliary Correlation fitting basis         ... NOT available
Auxiliary 'external' fitting basis          ... NOT available

Checking pre-screening integrals            ... done (  0.0 sec) Dimension = 155
Check shell pair data                       ... done (  0.0 sec)
Shell pair information
Shell pair cut-off parameter TPreSel        ...   2.5e-12
Total number of shell pairs                 ...     12090
Shell pairs after pre-screening             ...      9495
Total number of primitive shell pairs       ...     45146
Primitive shell pairs kept                  ...     22863
          la=0 lb=0:   2847 shell pairs
          la=1 lb=0:   3505 shell pairs
          la=1 lb=1:   1123 shell pairs
          la=2 lb=0:   1182 shell pairs
          la=2 lb=1:    719 shell pairs
          la=2 lb=2:    119 shell pairs

Calculating one electron integrals          ... done (  0.0 sec)
Calculating RI/J V-Matrix + Cholesky decomp.... done (  0.1 sec)
Calculating Nuclear repulsion               ... done (  0.0 sec) ENN=   1423.779373583872 Eh

Diagonalization of the overlap matrix:
Smallest eigenvalue                        ... 2.943e-04
Time for diagonalization                   ...    0.014 sec
Threshold for overlap eigenvalues          ... 1.000e-07
Number of eigenvalues below threshold      ... 0
Time for construction of square roots      ...    0.009 sec
Total time needed                          ...    0.026 sec

-------------------
DFT GRID GENERATION
-------------------

General Integration Accuracy     IntAcc      ... 4.388
Radial Grid Type                 RadialGrid  ... OptM3 with GC (2021)
Angular Grid (max. ang.)         AngularGrid ... 4 (Lebedev-302)
Angular grid pruning method      GridPruning ... 4 (adaptive)
Weight generation scheme         WeightScheme... mBecke (2022)
Basis function cutoff            BFCut       ... 1.0000e-11
Integration weight cutoff        WCut        ... 1.0000e-14
Partially contracted basis set               ... off
Rotationally invariant grid construction     ... off
Angular grids for H and He will be reduced by one unit

Total number of grid points                  ...   156520
Total number of batches                      ...     2464
Average number of points per batch           ...       63
Average number of grid points per atom       ...     4891
Initializing property integral containers    ... done (  0.0 sec)

SHARK setup successfully completed in   1.2 seconds

Maximum memory used throughout the entire STARTUP-calculation: 41.6 MB


           ************************************************************
           *        Program running with 6 parallel MPI-processes     *
           *              working on a common directory               *
           ************************************************************
-------------------------------------------------------------------------------
                                 ORCA GUESS
                   Start orbitals & Density for SCF / CASSCF
-------------------------------------------------------------------------------

------------
SCF SETTINGS
------------
Hamiltonian:
 Density Functional     Method          .... DFT(GTOs)
 Exchange Functional    Exchange        .... B88
   X-Alpha parameter    XAlpha          ....  0.666667
   Becke's b parameter  XBeta           ....  0.004200
 Correlation Functional Correlation     .... P86
 LDA part of GGA corr.  LDAOpt          .... PW91-LDA
 Gradients option       PostSCFGGA      .... off
   NL short-range parameter             ....  4.400000
 RI-approximation to the Coulomb term is turned on
   Number of AuxJ basis functions       .... 1076


General Settings:
 Integral files         IntName         .... data/geom_opt_P_BP86/603962/603962
 Hartree-Fock type      HFTyp           .... RHF
 Total Charge           Charge          ....    0
 Multiplicity           Mult            ....    1
 Number of Electrons    NEL             ....  138
 Basis Dimension        Dim             ....  335
 Nuclear Repulsion      ENuc            ....   1423.7793735839 Eh

Convergence Acceleration:
 AO-DIIS                CNVDIIS         .... on
   Start iteration      DIISMaxIt       ....    12
   Startup error        DIISStart       ....  0.200000
   # of expansion vecs  DIISMaxEq       ....     5
   Bias factor          DIISBfac        ....   1.050
   Max. coefficient     DIISMaxC        ....  10.000
 MO-DIIS                CNVKDIIS        .... off
 Trust-Rad. Augm. Hess. CNVTRAH         .... auto
   Auto Start mean grad. ratio tolernc. ....  1.125000
   Auto Start start iteration           ....    50
   Auto Start num. interpolation iter.  ....    10
   Max. Number of Micro iterations      ....    24
   Max. Number of Macro iterations      .... Maxiter - #DIIS iter
   Number of Davidson start vectors     ....     2
   Converg. threshold    (grad. norm)   ....   1.000e-05
   Grad. Scal. Fac. for Micro threshold ....   0.100
   Minimum threshold for Micro iter.    ....   1.000e-02
   NR start threshold (gradient norm)   ....   1.000e-04
   Initial trust radius                 ....   0.400
   Minimum AH scaling param. (alpha)    ....   1.000
   Maximum AH scaling param. (alpha)    .... 1000.000
   Quad. conv. algorithm                .... NR
   White noise on init. David. guess    .... on
   Maximum white noise                  ....   0.010
   Pseudo random numbers                .... off
   Inactive MOs                         .... canonical
   Orbital update algorithm             .... Taylor
   Preconditioner                       .... Diag
   Full preconditioner red. dimension   ....   250
 SOSCF                  CNVSOSCF        .... on
   Start iteration      SOSCFMaxIt      ....   150
   Startup grad/error   SOSCFStart      ....  0.003300
   Hessian update       SOSCFHessUp     .... L-BFGS
 Level Shifting         CNVShift        .... on
   Level shift para.    LevelShift      ....    0.2500
   Turn off err/grad.   ShiftErr        ....    0.0010
 Zerner damping         CNVZerner       .... off
 Static damping         CNVDamp         .... on
   Fraction old density DampFac         ....    0.7000
   Max. Damping (<1)    DampMax         ....    0.9800
   Min. Damping (>=0)   DampMin         ....    0.0000
   Turn off err/grad.   DampErr         ....    0.1000

SCF Procedure:
 Maximum # iterations   MaxIter         ....   125
 SCF integral mode      SCFMode         .... Direct
   Integral package                     .... SHARK and LIBINT hybrid scheme
 Reset frequency        DirectResetFreq ....    20
 Integral Threshold     Thresh          ....  2.500e-11 Eh
 Primitive CutOff       TCut            ....  2.500e-12 Eh

Convergence Tolerance:
 Convergence Check Mode ConvCheckMode   .... Total+1el-Energy
 Convergence forced     ConvForced      .... 0
 Energy Change          TolE            ....  1.000e-08 Eh
 1-El. energy change                    ....  1.000e-05 Eh
 Orbital Gradient       TolG            ....  1.000e-05
 Orbital Rotation angle TolX            ....  1.000e-05
 DIIS Error             TolErr          ....  5.000e-07

------------------------------
INITIAL GUESS: MODEL POTENTIAL
------------------------------
Loading Hartree-Fock densities                     ... done
Calculating cut-offs                               ... done
Initializing the effective Hamiltonian             ... done
Setting up the integral package (SHARK)            ... done
Starting the Coulomb interaction                   ... done (   0.1 sec)
Making the grid                                    ... done (   0.3 sec)
Mapping shells                                     ... done
Starting the XC term evaluation                    ... done (   0.1 sec)
  promolecular density results
     # of electrons  =    137.997866011
     EX              =   -121.879415886
     EC              =     -5.127540883
     EX+EC           =   -127.006956770
Transforming the Hamiltonian                       ... done (   0.0 sec)
Diagonalizing the Hamiltonian                      ... done (   0.0 sec)
Back transforming the eigenvectors                 ... done (   0.0 sec)
Now organizing SCF variables                       ... done
                      ------------------
                      INITIAL GUESS DONE (   0.6 sec)
                      ------------------
             **** ENERGY FILE WAS UPDATED (data/geom_opt_P_BP86/603962/603962.en.tmp) ****
Finished Guess after   0.7 sec
Maximum memory used throughout the entire GUESS-calculation: 23.6 MB


           ************************************************************
           *        Program running with 6 parallel MPI-processes     *
           *              working on a common directory               *
           ************************************************************

-------------------------------------------------------------------------------------------
                                      ORCA LEAN-SCF
                              memory conserving SCF solver
-------------------------------------------------------------------------------------------

----------------------------------------D-I-I-S--------------------------------------------
Iteration    Energy (Eh)           Delta-E    RMSDP     MaxDP     DIISErr   Damp  Time(sec)
-------------------------------------------------------------------------------------------
               ***  Starting incremental Fock matrix formation  ***
    1    -1067.4720445599120922     0.00e+00  2.14e-03  6.98e-02  1.43e-01  0.700   0.9
    2    -1067.6164142629165781    -1.44e-01  1.52e-03  4.54e-02  6.04e-02  0.700   0.8
                               ***Turning on AO-DIIS***
    3    -1067.6693357515825937    -5.29e-02  7.09e-04  4.71e-02  2.11e-02  0.700   1.1
    4    -1067.7009203159716435    -3.16e-02  1.34e-03  1.05e-01  1.08e-02  0.000   0.8
    5    -1067.7709217010558405    -7.00e-02  2.68e-04  1.93e-02  5.20e-03  0.000   0.7
                              *** Initializing SOSCF ***
---------------------------------------S-O-S-C-F--------------------------------------
Iteration    Energy (Eh)           Delta-E    RMSDP     MaxDP     MaxGrad    Time(sec)
--------------------------------------------------------------------------------------
    6    -1067.7714762241637345    -5.55e-04  8.92e-05  5.35e-03  1.86e-03     0.7
               *** Restarting incremental Fock matrix formation ***
    7    -1067.7715226672823974    -4.64e-05  7.86e-05  4.94e-03  3.47e-04     0.9
    8    -1067.7715043411260467     1.83e-05  3.73e-05  1.79e-03  9.21e-04     0.6
    9    -1067.7715300208126337    -2.57e-05  2.29e-05  1.24e-03  1.04e-04     0.6
   10    -1067.7715284591197360     1.56e-06  1.11e-05  3.62e-04  1.74e-04     0.7
   11    -1067.7715306576872081    -2.20e-06  1.02e-05  7.96e-04  3.96e-05     0.6
   12    -1067.7715304597343220     1.98e-07  4.73e-06  2.51e-04  7.10e-05     0.6
   13    -1067.7715307613768800    -3.02e-07  3.97e-06  3.07e-04  1.10e-05     0.6
   14    -1067.7715307430437406     1.83e-08  1.96e-06  1.32e-04  1.35e-05     0.6
   15    -1067.7715307667697289    -2.37e-08  1.73e-06  1.29e-04  8.76e-06     0.7
   16    -1067.7715307661871975     5.83e-10  1.11e-06  8.60e-05  1.38e-05     0.6
                 **** Energy Check signals convergence ****

               *****************************************************
               *                     SUCCESS                       *
               *           SCF CONVERGED AFTER  16 CYCLES          *
               *****************************************************

             **** ENERGY FILE WAS UPDATED (data/geom_opt_P_BP86/603962/603962.en.tmp) ****

----------------
TOTAL SCF ENERGY
----------------

Total Energy       :      -1067.77153076618720 Eh          -29055.54051 eV

Components:
Nuclear Repulsion  :       1423.77937358387157 Eh           38743.00641 eV
Electronic Energy  :      -2491.55090435005877 Eh          -67798.54692 eV
One Electron Energy:      -4283.22434740795779 Eh         -116552.45991 eV
Two Electron Energy:       1791.67344305789902 Eh           48753.91299 eV

Virial components:
Potential Energy   :      -2126.61712064140011 Eh          -57868.19381 eV
Kinetic Energy     :       1058.84558987521268 Eh           28812.65331 eV
Virial Ratio       :          2.00842987965037

DFT components:
N(Alpha)           :       68.999991350793 electrons
N(Beta)            :       68.999991350793 electrons
N(Total)           :      137.999982701587 electrons
E(X)               :     -123.522412070244 Eh       
E(C)               :       -5.134588254022 Eh       
E(XC)              :     -128.657000324266 Eh       

---------------
SCF CONVERGENCE
---------------

  Last Energy change         ...   -5.8253e-10  Tolerance :   1.0000e-08
  Last MAX-Density change    ...    8.5985e-05  Tolerance :   1.0000e-07
  Last RMS-Density change    ...    1.1091e-06  Tolerance :   5.0000e-09
  Last DIIS Error            ...    1.8625e-03  Tolerance :   5.0000e-07
  Last Orbital Gradient      ...    1.3761e-05  Tolerance :   1.0000e-05
  Last Orbital Rotation      ...    2.2835e-05  Tolerance :   1.0000e-05


----------------
ORBITAL ENERGIES
----------------

  NO   OCC          E(Eh)            E(eV) 
   0   2.0000     -76.333465     -2077.1392 
   1   2.0000     -14.018983      -381.4759 
   2   2.0000     -14.009670      -381.2225 
   3   2.0000      -9.955925      -270.9145 
   4   2.0000      -9.955606      -270.9058 
   5   2.0000      -9.949753      -270.7465 
   6   2.0000      -9.946894      -270.6688 
   7   2.0000      -9.941891      -270.5326 
   8   2.0000      -9.934117      -270.3211 
   9   2.0000      -9.933813      -270.3128 
  10   2.0000      -9.933741      -270.3108 
  11   2.0000      -9.927269      -270.1347 
  12   2.0000      -9.924297      -270.0538 
  13   2.0000      -9.918329      -269.8914 
  14   2.0000      -9.912800      -269.7410 
  15   2.0000      -9.911407      -269.7031 
  16   2.0000      -9.910488      -269.6781 
  17   2.0000      -9.909971      -269.6640 
  18   2.0000      -9.908488      -269.6237 
  19   2.0000      -6.305298      -171.5759 
  20   2.0000      -4.526582      -123.1746 
  21   2.0000      -4.526406      -123.1698 
  22   2.0000      -4.522806      -123.0718 
  23   2.0000      -0.862561       -23.4715 
  24   2.0000      -0.853322       -23.2201 
  25   2.0000      -0.768978       -20.9250 
  26   2.0000      -0.736037       -20.0286 
  27   2.0000      -0.727860       -19.8061 
  28   2.0000      -0.711725       -19.3670 
  29   2.0000      -0.690765       -18.7967 
  30   2.0000      -0.670355       -18.2413 
  31   2.0000      -0.663803       -18.0630 
  32   2.0000      -0.606895       -16.5145 
  33   2.0000      -0.576920       -15.6988 
  34   2.0000      -0.568534       -15.4706 
  35   2.0000      -0.565320       -15.3831 
  36   2.0000      -0.542856       -14.7719 
  37   2.0000      -0.536175       -14.5901 
  38   2.0000      -0.510569       -13.8933 
  39   2.0000      -0.476526       -12.9669 
  40   2.0000      -0.468031       -12.7358 
  41   2.0000      -0.452272       -12.3070 
  42   2.0000      -0.444121       -12.0852 
  43   2.0000      -0.437173       -11.8961 
  44   2.0000      -0.416402       -11.3309 
  45   2.0000      -0.406205       -11.0534 
  46   2.0000      -0.400977       -10.9111 
  47   2.0000      -0.393948       -10.7199 
  48   2.0000      -0.384257       -10.4562 
  49   2.0000      -0.381663       -10.3856 
  50   2.0000      -0.370926       -10.0934 
  51   2.0000      -0.366101        -9.9621 
  52   2.0000      -0.361394        -9.8340 
  53   2.0000      -0.357478        -9.7275 
  54   2.0000      -0.355692        -9.6789 
  55   2.0000      -0.335690        -9.1346 
  56   2.0000      -0.328448        -8.9375 
  57   2.0000      -0.310983        -8.4623 
  58   2.0000      -0.297239        -8.0883 
  59   2.0000      -0.296878        -8.0785 
  60   2.0000      -0.273563        -7.4440 
  61   2.0000      -0.266058        -7.2398 
  62   2.0000      -0.256881        -6.9901 
  63   2.0000      -0.249935        -6.8011 
  64   2.0000      -0.239053        -6.5050 
  65   2.0000      -0.226776        -6.1709 
  66   2.0000      -0.216914        -5.9025 
  67   2.0000      -0.209344        -5.6965 
  68   2.0000      -0.186791        -5.0829 
  69   0.0000      -0.084430        -2.2975 
  70   0.0000      -0.069017        -1.8781 
  71   0.0000      -0.059487        -1.6187 
  72   0.0000      -0.055367        -1.5066 
  73   0.0000      -0.040115        -1.0916 
  74   0.0000      -0.033258        -0.9050 
  75   0.0000       0.034326         0.9341 
  76   0.0000       0.039193         1.0665 
  77   0.0000       0.043794         1.1917 
  78   0.0000       0.055444         1.5087 
  79   0.0000       0.063944         1.7400 
*Only the first 10 virtual orbitals were printed.

                    ********************************
                    * MULLIKEN POPULATION ANALYSIS *
                    ********************************

-----------------------
MULLIKEN ATOMIC CHARGES
-----------------------
   0 C :    0.005847
   1 C :    0.009164
   2 C :   -0.016606
   3 C :   -0.082087
   4 C :    0.000509
   5 C :    0.004696
   6 P :    0.344324
   7 C :   -0.191401
   8 C :    0.055914
   9 C :    0.041040
  10 C :    0.000398
  11 C :    0.023721
  12 N :   -0.081594
  13 C :   -0.190080
  14 C :    0.061839
  15 C :    0.048569
  16 C :   -0.004846
  17 C :    0.020470
  18 N :   -0.094304
  19 H :   -0.009428
  20 H :   -0.008285
  21 H :   -0.001641
  22 H :   -0.013302
  23 H :   -0.009742
  24 H :    0.008376
  25 H :    0.012456
  26 H :    0.008138
  27 H :    0.016440
  28 H :    0.017044
  29 H :    0.006297
  30 H :    0.004325
  31 H :    0.013746
Sum of atomic charges:   -0.0000000

--------------------------------
MULLIKEN REDUCED ORBITAL CHARGES
--------------------------------
  0 C s       :     3.165689  s :     3.165689
      pz      :     0.962530  p :     2.795318
      px      :     0.953209
      py      :     0.879579
      dz2     :     0.002773  d :     0.033146
      dxz     :     0.006213
      dyz     :     0.004456
      dx2y2   :     0.009979
      dxy     :     0.009726

  1 C s       :     3.166093  s :     3.166093
      pz      :     0.984919  p :     2.791699
      px      :     0.913237
      py      :     0.893543
      dz2     :     0.004358  d :     0.033044
      dxz     :     0.005553
      dyz     :     0.003990
      dx2y2   :     0.008194
      dxy     :     0.010950

  2 C s       :     3.222671  s :     3.222671
      pz      :     0.963674  p :     2.761471
      px      :     0.868313
      py      :     0.929484
      dz2     :     0.003546  d :     0.032464
      dxz     :     0.003955
      dyz     :     0.005892
      dx2y2   :     0.010840
      dxy     :     0.008231

  3 C s       :     3.035978  s :     3.035978
      pz      :     0.983884  p :     3.011560
      px      :     1.019554
      py      :     1.008122
      dz2     :     0.004028  d :     0.034548
      dxz     :     0.006036
      dyz     :     0.005404
      dx2y2   :     0.009544
      dxy     :     0.009536

  4 C s       :     3.220523  s :     3.220523
      pz      :     0.963604  p :     2.746390
      px      :     0.921841
      py      :     0.860945
      dz2     :     0.004087  d :     0.032578
      dxz     :     0.005367
      dyz     :     0.003962
      dx2y2   :     0.008110
      dxy     :     0.011052

  5 C s       :     3.168082  s :     3.168082
      pz      :     0.972560  p :     2.794198
      px      :     0.849861
      py      :     0.971777
      dz2     :     0.003621  d :     0.033024
      dxz     :     0.004075
      dyz     :     0.005977
      dx2y2   :     0.010909
      dxy     :     0.008443

  6 P s       :     5.700177  s :     5.700177
      pz      :     3.295043  p :     8.787653
      px      :     2.743033
      py      :     2.749577
      dz2     :     0.014073  d :     0.167846
      dxz     :     0.032814
      dyz     :     0.037987
      dx2y2   :     0.040215
      dxy     :     0.042757

  7 C s       :     3.151577  s :     3.151577
      pz      :     0.975598  p :     2.986960
      px      :     0.988721
      py      :     1.022641
      dz2     :     0.015010  d :     0.052864
      dxz     :     0.010573
      dyz     :     0.017457
      dx2y2   :     0.004419
      dxy     :     0.005404

  8 C s       :     3.181080  s :     3.181080
      pz      :     0.859243  p :     2.731352
      px      :     0.941610
      py      :     0.930499
      dz2     :     0.008006  d :     0.031654
      dxz     :     0.004342
      dyz     :     0.008263
      dx2y2   :     0.005592
      dxy     :     0.005451

  9 C s       :     3.145578  s :     3.145578
      pz      :     0.932196  p :     2.779744
      px      :     0.945544
      py      :     0.902004
      dz2     :     0.008206  d :     0.033638
      dxz     :     0.006369
      dyz     :     0.010523
      dx2y2   :     0.004645
      dxy     :     0.003894

 10 C s       :     3.161213  s :     3.161213
      pz      :     0.944795  p :     2.806238
      px      :     0.952989
      py      :     0.908453
      dz2     :     0.008263  d :     0.032151
      dxz     :     0.006073
      dyz     :     0.010057
      dx2y2   :     0.003495
      dxy     :     0.004263

 11 C s       :     3.141790  s :     3.141790
      pz      :     0.909786  p :     2.783808
      px      :     0.941337
      py      :     0.932684
      dz2     :     0.013418  d :     0.050682
      dxz     :     0.006526
      dyz     :     0.011720
      dx2y2   :     0.009534
      dxy     :     0.009484

 12 N s       :     3.517444  s :     3.517444
      pz      :     1.126767  p :     3.537399
      px      :     1.096779
      py      :     1.313853
      dz2     :     0.007845  d :     0.026751
      dxz     :     0.004149
      dyz     :     0.005574
      dx2y2   :     0.004274
      dxy     :     0.004909

 13 C s       :     3.142832  s :     3.142832
      pz      :     0.988952  p :     2.994157
      px      :     1.013371
      py      :     0.991834
      dz2     :     0.015901  d :     0.053090
      dxz     :     0.017420
      dyz     :     0.007460
      dx2y2   :     0.007039
      dxy     :     0.005271

 14 C s       :     3.182582  s :     3.182582
      pz      :     0.927580  p :     2.723808
      px      :     0.853297
      py      :     0.942931
      dz2     :     0.008227  d :     0.031771
      dxz     :     0.011392
      dyz     :     0.004162
      dx2y2   :     0.004130
      dxy     :     0.003860

 15 C s       :     3.141996  s :     3.141996
      pz      :     0.857949  p :     2.775741
      px      :     0.965950
      py      :     0.951843
      dz2     :     0.009569  d :     0.033694
      dxz     :     0.010265
      dyz     :     0.002707
      dx2y2   :     0.005252
      dxy     :     0.005901

 16 C s       :     3.163527  s :     3.163527
      pz      :     0.957328  p :     2.809063
      px      :     0.871835
      py      :     0.979899
      dz2     :     0.009808  d :     0.032256
      dxz     :     0.010066
      dyz     :     0.005298
      dx2y2   :     0.004132
      dxy     :     0.002951

 17 C s       :     3.140797  s :     3.140797
      pz      :     0.917149  p :     2.788230
      px      :     0.919379
      py      :     0.951702
      dz2     :     0.010863  d :     0.050504
      dxz     :     0.020659
      dyz     :     0.005414
      dx2y2   :     0.007298
      dxy     :     0.006269

 18 N s       :     3.513962  s :     3.513962
      pz      :     1.497410  p :     3.553493
      px      :     0.972072
      py      :     1.084011
      dz2     :     0.004959  d :     0.026850
      dxz     :     0.009887
      dyz     :     0.004059
      dx2y2   :     0.003748
      dxy     :     0.004195

 19 H s       :     0.986999  s :     0.986999
      pz      :     0.006819  p :     0.022428
      px      :     0.004833
      py      :     0.010777

 20 H s       :     0.985865  s :     0.985865
      pz      :     0.004991  p :     0.022420
      px      :     0.007736
      py      :     0.009692

 21 H s       :     0.979023  s :     0.979023
      pz      :     0.005825  p :     0.022617
      px      :     0.012750
      py      :     0.004043

 22 H s       :     0.990537  s :     0.990537
      pz      :     0.004996  p :     0.022765
      px      :     0.007821
      py      :     0.009948

 23 H s       :     0.987340  s :     0.987340
      pz      :     0.005715  p :     0.022402
      px      :     0.012708
      py      :     0.003980

 24 H s       :     0.968786  s :     0.968786
      pz      :     0.013598  p :     0.022838
      px      :     0.005314
      py      :     0.003926

 25 H s       :     0.965189  s :     0.965189
      pz      :     0.006984  p :     0.022355
      px      :     0.005034
      py      :     0.010338

 26 H s       :     0.969258  s :     0.969258
      pz      :     0.005657  p :     0.022604
      px      :     0.007199
      py      :     0.009748

 27 H s       :     0.963029  s :     0.963029
      pz      :     0.013243  p :     0.020530
      px      :     0.004303
      py      :     0.002983

 28 H s       :     0.959542  s :     0.959542
      pz      :     0.007944  p :     0.023414
      px      :     0.010697
      py      :     0.004773

 29 H s       :     0.971353  s :     0.971353
      pz      :     0.013592  p :     0.022350
      px      :     0.004097
      py      :     0.004661

 30 H s       :     0.973103  s :     0.973103
      pz      :     0.004699  p :     0.022572
      px      :     0.012751
      py      :     0.005122

 31 H s       :     0.965737  s :     0.965737
      pz      :     0.008682  p :     0.020517
      px      :     0.007335
      py      :     0.004501



                     *******************************
                     * LOEWDIN POPULATION ANALYSIS *
                     *******************************

----------------------
LOEWDIN ATOMIC CHARGES
----------------------
   0 C :   -0.034227
   1 C :   -0.030571
   2 C :   -0.035870
   3 C :   -0.168747
   4 C :   -0.029735
   5 C :   -0.029813
   6 P :    0.500238
   7 C :   -0.140464
   8 C :   -0.037963
   9 C :    0.001386
  10 C :   -0.041642
  11 C :    0.016331
  12 N :   -0.078600
  13 C :   -0.140455
  14 C :   -0.028389
  15 C :   -0.003227
  16 C :   -0.041425
  17 C :    0.011383
  18 N :   -0.085832
  19 H :    0.027684
  20 H :    0.029366
  21 H :    0.027952
  22 H :    0.024650
  23 H :    0.028812
  24 H :    0.036169
  25 H :    0.036232
  26 H :    0.035634
  27 H :    0.024031
  28 H :    0.036014
  29 H :    0.034040
  30 H :    0.033793
  31 H :    0.023242

-------------------------------
LOEWDIN REDUCED ORBITAL CHARGES
-------------------------------
  0 C s       :     2.861842  s :     2.861842
      pz      :     0.987323  p :     3.082421
      px      :     1.060892
      py      :     1.034206
      dz2     :     0.006717  d :     0.089964
      dxz     :     0.015503
      dyz     :     0.010562
      dx2y2   :     0.028746
      dxy     :     0.028436

  1 C s       :     2.862825  s :     2.862825
      pz      :     0.992322  p :     3.078245
      px      :     1.051142
      py      :     1.034781
      dz2     :     0.009965  d :     0.089502
      dxz     :     0.014100
      dyz     :     0.010540
      dx2y2   :     0.024639
      dxy     :     0.030258

  2 C s       :     2.866304  s :     2.866304
      pz      :     0.993111  p :     3.081005
      px      :     1.036365
      py      :     1.051530
      dz2     :     0.008131  d :     0.088560
      dxz     :     0.009510
      dyz     :     0.015342
      dx2y2   :     0.030907
      dxy     :     0.024670

  3 C s       :     2.915132  s :     2.915132
      pz      :     1.006600  p :     3.163615
      px      :     1.085177
      py      :     1.071837
      dz2     :     0.009026  d :     0.089999
      dxz     :     0.014753
      dyz     :     0.012204
      dx2y2   :     0.026851
      dxy     :     0.027165

  4 C s       :     2.865931  s :     2.865931
      pz      :     0.987307  p :     3.074792
      px      :     1.048070
      py      :     1.039415
      dz2     :     0.009221  d :     0.089013
      dxz     :     0.013823
      dyz     :     0.010395
      dx2y2   :     0.024290
      dxy     :     0.031284

  5 C s       :     2.863205  s :     2.863205
      pz      :     0.989604  p :     3.077259
      px      :     1.035042
      py      :     1.052614
      dz2     :     0.008418  d :     0.089349
      dxz     :     0.009706
      dyz     :     0.015497
      dx2y2   :     0.030332
      dxy     :     0.025397

  6 P s       :     5.254127  s :     5.254127
      pz      :     3.404241  p :     9.009122
      px      :     2.806489
      py      :     2.798393
      dz2     :     0.020186  d :     0.236514
      dxz     :     0.045328
      dyz     :     0.051659
      dx2y2   :     0.058372
      dxy     :     0.060969

  7 C s       :     2.916486  s :     2.916486
      pz      :     1.038549  p :     3.095457
      px      :     0.985507
      py      :     1.071400
      dz2     :     0.039416  d :     0.128522
      dxz     :     0.023311
      dyz     :     0.044587
      dx2y2   :     0.009571
      dxy     :     0.011637

  8 C s       :     2.872634  s :     2.872634
      pz      :     1.045595  p :     3.075790
      px      :     0.979700
      py      :     1.050495
      dz2     :     0.023506  d :     0.089540
      dxz     :     0.010892
      dyz     :     0.025143
      dx2y2   :     0.014471
      dxy     :     0.015528

  9 C s       :     2.864730  s :     2.864730
      pz      :     1.056063  p :     3.043394
      px      :     0.961631
      py      :     1.025701
      dz2     :     0.024223  d :     0.090490
      dxz     :     0.016167
      dyz     :     0.028981
      dx2y2   :     0.010783
      dxy     :     0.010335

 10 C s       :     2.867097  s :     2.867097
      pz      :     1.061492  p :     3.084753
      px      :     0.984502
      py      :     1.038759
      dz2     :     0.025262  d :     0.089791
      dxz     :     0.015384
      dyz     :     0.029058
      dx2y2   :     0.008763
      dxy     :     0.011324

 11 C s       :     2.865395  s :     2.865395
      pz      :     1.030264  p :     2.991750
      px      :     0.948693
      py      :     1.012793
      dz2     :     0.034173  d :     0.126523
      dxz     :     0.014743
      dyz     :     0.031107
      dx2y2   :     0.022242
      dxy     :     0.024258

 12 N s       :     3.244746  s :     3.244746
      pz      :     1.261527  p :     3.775839
      px      :     1.133036
      py      :     1.381276
      dz2     :     0.019279  d :     0.058015
      dxz     :     0.009632
      dyz     :     0.012389
      dx2y2   :     0.007010
      dxy     :     0.009705

 13 C s       :     2.915745  s :     2.915745
      pz      :     1.084634  p :     3.096035
      px      :     1.044139
      py      :     0.967262
      dz2     :     0.042481  d :     0.128674
      dxz     :     0.046990
      dyz     :     0.015514
      dx2y2   :     0.014642
      dxy     :     0.009048

 14 C s       :     2.872424  s :     2.872424
      pz      :     1.069720  p :     3.066181
      px      :     1.054133
      py      :     0.942328
      dz2     :     0.025959  d :     0.089784
      dxz     :     0.035007
      dyz     :     0.009388
      dx2y2   :     0.011478
      dxy     :     0.007952

 15 C s       :     2.864569  s :     2.864569
      pz      :     1.043981  p :     3.047802
      px      :     1.068919
      py      :     0.934902
      dz2     :     0.026311  d :     0.090856
      dxz     :     0.030996
      dyz     :     0.005089
      dx2y2   :     0.015205
      dxy     :     0.013255

 16 C s       :     2.867754  s :     2.867754
      pz      :     1.076549  p :     3.083618
      px      :     1.043084
      py      :     0.963984
      dz2     :     0.029582  d :     0.090054
      dxz     :     0.031811
      dyz     :     0.012082
      dx2y2   :     0.010869
      dxy     :     0.005710

 17 C s       :     2.864941  s :     2.864941
      pz      :     1.060222  p :     2.997439
      px      :     1.000193
      py      :     0.937024
      dz2     :     0.030368  d :     0.126236
      dxz     :     0.054991
      dyz     :     0.011494
      dx2y2   :     0.017477
      dxy     :     0.011907

 18 N s       :     3.251404  s :     3.251404
      pz      :     1.547192  p :     3.776681
      px      :     1.140333
      py      :     1.089156
      dz2     :     0.008875  d :     0.057747
      dxz     :     0.023541
      dyz     :     0.004950
      dx2y2   :     0.011132
      dxy     :     0.009249

 19 H s       :     0.904082  s :     0.904082
      pz      :     0.020220  p :     0.068235
      px      :     0.015108
      py      :     0.032907

 20 H s       :     0.902607  s :     0.902607
      pz      :     0.014637  p :     0.068027
      px      :     0.023783
      py      :     0.029606

 21 H s       :     0.902951  s :     0.902951
      pz      :     0.017218  p :     0.069097
      px      :     0.039717
      py      :     0.012162

 22 H s       :     0.906240  s :     0.906240
      pz      :     0.014625  p :     0.069110
      px      :     0.024766
      py      :     0.029719

 23 H s       :     0.903174  s :     0.903174
      pz      :     0.016815  p :     0.068014
      px      :     0.038915
      py      :     0.012284

 24 H s       :     0.893454  s :     0.893454
      pz      :     0.042294  p :     0.070377
      px      :     0.015963
      py      :     0.012120

 25 H s       :     0.895708  s :     0.895708
      pz      :     0.021607  p :     0.068060
      px      :     0.014859
      py      :     0.031594

 26 H s       :     0.894751  s :     0.894751
      pz      :     0.017757  p :     0.069615
      px      :     0.021719
      py      :     0.030139

 27 H s       :     0.908937  s :     0.908937
      pz      :     0.042228  p :     0.067032
      px      :     0.014059
      py      :     0.010744

 28 H s       :     0.891903  s :     0.891903
      pz      :     0.025457  p :     0.072082
      px      :     0.032554
      py      :     0.014072

 29 H s       :     0.897827  s :     0.897827
      pz      :     0.041681  p :     0.068133
      px      :     0.012948
      py      :     0.013503

 30 H s       :     0.896612  s :     0.896612
      pz      :     0.015329  p :     0.069594
      px      :     0.039042
      py      :     0.015224

 31 H s       :     0.909804  s :     0.909804
      pz      :     0.027281  p :     0.066954
      px      :     0.025668
      py      :     0.014005



                      *****************************
                      * MAYER POPULATION ANALYSIS *
                      *****************************

  NA   - Mulliken gross atomic population
  ZA   - Total nuclear charge
  QA   - Mulliken gross atomic charge
  VA   - Mayer's total valence
  BVA  - Mayer's bonded valence
  FA   - Mayer's free valence

  ATOM       NA         ZA         QA         VA         BVA        FA
  0 C      5.9942     6.0000     0.0058     3.8312     3.8312    -0.0000
  1 C      5.9908     6.0000     0.0092     3.8642     3.8642    -0.0000
  2 C      6.0166     6.0000    -0.0166     3.8948     3.8948    -0.0000
  3 C      6.0821     6.0000    -0.0821     3.8072     3.8072    -0.0000
  4 C      5.9995     6.0000     0.0005     3.9184     3.9184    -0.0000
  5 C      5.9953     6.0000     0.0047     3.8681     3.8681    -0.0000
  6 P     14.6557    15.0000     0.3443     2.9681     2.9681    -0.0000
  7 C      6.1914     6.0000    -0.1914     3.9400     3.9400    -0.0000
  8 C      5.9441     6.0000     0.0559     3.8315     3.8315    -0.0000
  9 C      5.9590     6.0000     0.0410     3.9009     3.9009    -0.0000
 10 C      5.9996     6.0000     0.0004     3.8303     3.8303    -0.0000
 11 C      5.9763     6.0000     0.0237     4.0091     4.0091    -0.0000
 12 N      7.0816     7.0000    -0.0816     3.1529     3.1529    -0.0000
 13 C      6.1901     6.0000    -0.1901     3.9605     3.9605    -0.0000
 14 C      5.9382     6.0000     0.0618     3.8430     3.8430    -0.0000
 15 C      5.9514     6.0000     0.0486     3.8870     3.8870    -0.0000
 16 C      6.0048     6.0000    -0.0048     3.8362     3.8362    -0.0000
 17 C      5.9795     6.0000     0.0205     4.0152     4.0152    -0.0000
 18 N      7.0943     7.0000    -0.0943     3.1305     3.1305    -0.0000
 19 H      1.0094     1.0000    -0.0094     0.9779     0.9779    -0.0000
 20 H      1.0083     1.0000    -0.0083     0.9781     0.9781    -0.0000
 21 H      1.0016     1.0000    -0.0016     0.9897     0.9897    -0.0000
 22 H      1.0133     1.0000    -0.0133     0.9941     0.9941    -0.0000
 23 H      1.0097     1.0000    -0.0097     0.9777     0.9777    -0.0000
 24 H      0.9916     1.0000     0.0084     0.9990     0.9990    -0.0000
 25 H      0.9875     1.0000     0.0125     0.9803     0.9803    -0.0000
 26 H      0.9919     1.0000     0.0081     0.9832     0.9832     0.0000
 27 H      0.9836     1.0000     0.0164     0.9828     0.9828    -0.0000
 28 H      0.9830     1.0000     0.0170     1.0221     1.0221    -0.0000
 29 H      0.9937     1.0000     0.0063     0.9804     0.9804    -0.0000
[...]
      pz      :     1.050850  p :     3.042019
      px      :     0.979654
      py      :     1.011515
      dz2     :     0.022542  d :     0.086784
      dxz     :     0.018617
      dyz     :     0.023811
      dx2y2   :     0.009346
      dxy     :     0.012468

 10 C s       :     2.880981  s :     2.880981
      pz      :     1.062661  p :     3.079730
      px      :     1.002462
      py      :     1.014606
      dz2     :     0.025556  d :     0.084465
      dxz     :     0.019411
      dyz     :     0.022533
      dx2y2   :     0.005986
      dxy     :     0.010978

 11 C s       :     2.872880  s :     2.872880
      pz      :     1.036774  p :     2.987268
      px      :     0.971380
      py      :     0.979113
      dz2     :     0.029963  d :     0.125049
      dxz     :     0.018941
      dyz     :     0.031507
      dx2y2   :     0.018859
      dxy     :     0.025779

 12 N s       :     3.231703  s :     3.231703
      pz      :     1.331692  p :     3.781395
      px      :     1.243539
      py      :     1.206165
      dz2     :     0.019764  d :     0.058944
      dxz     :     0.008522
      dyz     :     0.011680
      dx2y2   :     0.007531
      dxy     :     0.011447

 13 C s       :     2.924023  s :     2.924023
      pz      :     1.013328  p :     3.074222
      px      :     1.037379
      py      :     1.023515
      dz2     :     0.016480  d :     0.126328
      dxz     :     0.014930
      dyz     :     0.031013
      dx2y2   :     0.032847
      dxy     :     0.031059

 14 C s       :     2.880007  s :     2.880007
      pz      :     1.013342  p :     3.086041
      px      :     1.029990
      py      :     1.042710
      dz2     :     0.013009  d :     0.085516
      dxz     :     0.016509
      dyz     :     0.015108
      dx2y2   :     0.019784
      dxy     :     0.021105

 15 C s       :     2.874527  s :     2.874527
      pz      :     0.983760  p :     3.043976
      px      :     1.018424
      py      :     1.041792
      dz2     :     0.009781  d :     0.087416
      dxz     :     0.013716
      dyz     :     0.018108
      dx2y2   :     0.022194
      dxy     :     0.023618

 16 C s       :     2.880383  s :     2.880383
      pz      :     1.015287  p :     3.089797
      px      :     1.019711
      py      :     1.054799
      dz2     :     0.010718  d :     0.084344
      dxz     :     0.012333
      dyz     :     0.019263
      dx2y2   :     0.020771
      dxy     :     0.021258

 17 C s       :     2.872497  s :     2.872497
      pz      :     0.983175  p :     2.988524
      px      :     0.980341
      py      :     1.025008
      dz2     :     0.021045  d :     0.125787
      dxz     :     0.027990
      dyz     :     0.017204
      dx2y2   :     0.027542
      dxy     :     0.032006

 18 N s       :     3.231824  s :     3.231824
      pz      :     1.302028  p :     3.796621
      px      :     1.196649
      py      :     1.297944
      dz2     :     0.007848  d :     0.058670
      dxz     :     0.011815
      dyz     :     0.008888
      dx2y2   :     0.017854
      dxy     :     0.012265

 19 H s       :     0.901507  s :     0.901507
      pz      :     0.018197  p :     0.065803
      px      :     0.018631
      py      :     0.028975

 20 H s       :     0.900970  s :     0.900970
      pz      :     0.017832  p :     0.065911
      px      :     0.013847
      py      :     0.034231

 21 H s       :     0.903605  s :     0.903605
      pz      :     0.039735  p :     0.066873
      px      :     0.015959
      py      :     0.011179

 22 H s       :     0.895887  s :     0.895887
      pz      :     0.017181  p :     0.072697
      px      :     0.013118
      py      :     0.042398

 23 H s       :     0.901490  s :     0.901490
      pz      :     0.038403  p :     0.065818
      px      :     0.015931
      py      :     0.011485

 24 H s       :     0.896432  s :     0.896432
      pz      :     0.039472  p :     0.067747
      px      :     0.012357
      py      :     0.015918

 25 H s       :     0.896017  s :     0.896017
      pz      :     0.025959  p :     0.065707
      px      :     0.021539
      py      :     0.018208

 26 H s       :     0.895800  s :     0.895800
      pz      :     0.013592  p :     0.067026
      px      :     0.022193
      py      :     0.031241

 27 H s       :     0.909368  s :     0.909368
      pz      :     0.040577  p :     0.064084
      px      :     0.011000
      py      :     0.012507

 28 H s       :     0.893213  s :     0.893213
      pz      :     0.013328  p :     0.069580
      px      :     0.018295
      py      :     0.037957

 29 H s       :     0.898365  s :     0.898365
      pz      :     0.024661  p :     0.065531
      px      :     0.017184
      py      :     0.023686

 30 H s       :     0.898170  s :     0.898170
      pz      :     0.020417  p :     0.067127
      px      :     0.032463
      py      :     0.014246

 31 H s       :     0.911111  s :     0.911111
      pz      :     0.012053  p :     0.063825
      px      :     0.013584
      py      :     0.038189



                      *****************************
                      * MAYER POPULATION ANALYSIS *
                      *****************************

  NA   - Mulliken gross atomic population
  ZA   - Total nuclear charge
  QA   - Mulliken gross atomic charge
  VA   - Mayer's total valence
  BVA  - Mayer's bonded valence
  FA   - Mayer's free valence

  ATOM       NA         ZA         QA         VA         BVA        FA
  0 C      5.9953     6.0000     0.0047     3.8247     3.8247    -0.0000
  1 C      6.0041     6.0000    -0.0041     3.8490     3.8490    -0.0000
  2 C      5.9898     6.0000     0.0102     3.8590     3.8590    -0.0000
  3 C      6.1727     6.0000    -0.1727     3.8430     3.8430    -0.0000
  4 C      5.9879     6.0000     0.0121     3.8481     3.8481    -0.0000
  5 C      5.9962     6.0000     0.0038     3.8312     3.8312    -0.0000
  6 P     14.6750    15.0000     0.3250     2.9411     2.9411    -0.0000
  7 C      6.1486     6.0000    -0.1486     3.9671     3.9671    -0.0000
  8 C      5.9587     6.0000     0.0413     3.8441     3.8441    -0.0000
  9 C      5.9640     6.0000     0.0360     3.8962     3.8962    -0.0000
 10 C      6.0202     6.0000    -0.0202     3.8396     3.8396    -0.0000
 11 C      5.9791     6.0000     0.0209     4.0076     4.0076    -0.0000
 12 N      7.0753     7.0000    -0.0753     3.1852     3.1852    -0.0000
 13 C      6.1403     6.0000    -0.1403     3.9520     3.9520    -0.0000
 14 C      5.9786     6.0000     0.0214     3.8770     3.8770    -0.0000
 15 C      5.9636     6.0000     0.0364     3.9008     3.9008    -0.0000
 16 C      6.0246     6.0000    -0.0246     3.8421     3.8421    -0.0000
 17 C      5.9849     6.0000     0.0151     4.0237     4.0237    -0.0000
 18 N      7.0974     7.0000    -0.0974     3.1617     3.1617    -0.0000
 19 H      0.9950     1.0000     0.0050     0.9785     0.9785    -0.0000
 20 H      0.9955     1.0000     0.0045     0.9789     0.9789     0.0000
 21 H      1.0002     1.0000    -0.0002     0.9940     0.9940    -0.0000
 22 H      0.9866     1.0000     0.0134     1.0378     1.0378    -0.0000
 23 H      0.9975     1.0000     0.0025     0.9790     0.9790     0.0000
 24 H      0.9884     1.0000     0.0116     0.9969     0.9969    -0.0000
 25 H      0.9807     1.0000     0.0193     0.9803     0.9803    -0.0000
 26 H      0.9844     1.0000     0.0156     0.9833     0.9833    -0.0000
 27 H      0.9776     1.0000     0.0224     0.9806     0.9806    -0.0000
 28 H      0.9786     1.0000     0.0214     0.9940     0.9940    -0.0000
 29 H      0.9872     1.0000     0.0128     0.9801     0.9801    -0.0000
 30 H      0.9904     1.0000     0.0096     0.9833     0.9833    -0.0000
 31 H      0.9816     1.0000     0.0184     0.9808     0.9808    -0.0000

  Mayer bond orders larger than 0.100000
B(  0-C ,  1-C ) :   1.3904 B(  0-C ,  5-C ) :   1.3649 B(  0-C , 19-H ) :   0.9757 
B(  1-C ,  2-C ) :   1.3793 B(  1-C , 20-H ) :   0.9762 B(  2-C ,  3-C ) :   1.3825 
B(  2-C , 21-H ) :   0.9755 B(  3-C ,  4-C ) :   1.3607 B(  3-C ,  6-P ) :   0.9350 
B(  4-C ,  5-C ) :   1.3949 B(  4-C , 22-H ) :   0.9541 B(  5-C , 23-H ) :   0.9762 
B(  6-P ,  7-C ) :   0.9193 B(  6-P , 13-C ) :   0.9163 B(  7-C ,  8-C ) :   1.3716 
B(  7-C , 12-N ) :   1.4504 B(  8-C ,  9-C ) :   1.4022 B(  8-C , 24-H ) :   0.9602 
B(  9-C , 10-C ) :   1.4140 B(  9-C , 25-H ) :   0.9698 B( 10-C , 11-C ) :   1.3632 
B( 10-C , 26-H ) :   0.9627 B( 11-C , 12-N ) :   1.5250 B( 11-C , 27-H ) :   0.9630 
B( 13-C , 14-C ) :   1.3688 B( 13-C , 18-N ) :   1.4454 B( 14-C , 15-C ) :   1.4170 
B( 14-C , 28-H ) :   0.9517 B( 15-C , 16-C ) :   1.4075 B( 15-C , 29-H ) :   0.9684 
B( 16-C , 17-C ) :   1.3686 B( 16-C , 30-H ) :   0.9618 B( 17-C , 18-N ) :   1.5419 
B( 17-C , 31-H ) :   0.9618 

-------
TIMINGS
-------

Total SCF time: 0 days 0 hours 0 min 5 sec 

Total time                  ....       5.854 sec
Sum of individual times     ....       5.771 sec  ( 98.6%)

SCF preparation             ....       0.130 sec  (  2.2%)
Fock matrix formation       ....       5.109 sec  ( 87.3%)
  Startup                   ....       0.025 sec  (  0.5% of F)
  Split-RI-J                ....       1.735 sec  ( 34.0% of F)
  XC integration            ....       3.244 sec  ( 63.5% of F)
    Basis function eval.    ....       1.025 sec  ( 31.6% of XC)
    Density eval.           ....       0.938 sec  ( 28.9% of XC)
    XC-Functional eval.     ....       0.090 sec  (  2.8% of XC)
    XC-Potential eval.      ....       0.666 sec  ( 20.5% of XC)
Diagonalization             ....       0.000 sec  (  0.0%)
Density matrix formation    ....       0.062 sec  (  1.1%)
Total Energy calculation    ....       0.026 sec  (  0.4%)
Population analysis         ....       0.135 sec  (  2.3%)
Orbital Transformation      ....       0.034 sec  (  0.6%)
Orbital Orthonormalization  ....       0.000 sec  (  0.0%)
DIIS solution               ....       0.041 sec  (  0.7%)
SOSCF solution              ....       0.234 sec  (  4.0%)
Finished LeanSCF after   6.0 sec

Maximum memory used throughout the entire LEANSCF-calculation: 36.4 MB


-------------------------------------------------------------------------------
                          DFT DISPERSION CORRECTION                            
                                                                               
                              DFTD3 V3.1  Rev 1                                
                          USING Becke-Johnson damping                          
-------------------------------------------------------------------------------
The BP86 functional is recognized
Active option DFTDOPT                   ...         4   

molecular C6(AA) [au] = 15389.093550 


            DFT-D V3
 parameters
 s6 scaling factor         :     1.0000 
 a1 scaling factor         :     0.3946 
 s8 scaling factor         :     3.2822 
 a2 scaling factor         :     4.8516 
 ad hoc parameters k1-k3   :    16.0000     1.3333    -4.0000 

 Edisp/kcal,au: -47.506693703842  -0.075706727308 
 E6   /kcal   : -17.114911562 
 E8   /kcal   : -30.391782142 
 % E8         :  63.973684070 

-------------------------   ----------------
Dispersion correction           -0.075706727
-------------------------   ----------------


-------------------------   --------------------
FINAL SINGLE POINT ENERGY     -1067.859503882892
-------------------------   --------------------

                                *** OPTIMIZATION RUN DONE ***



           ************************************************************
           *        Program running with 6 parallel MPI-processes     *
           *              working on a common directory               *
           ************************************************************

------------------------------------------------------------------------------
                              ORCA PROPERTY CALCULATIONS
------------------------------------------------------------------------------

GBWName                                 ... data/geom_opt_P_BP86/603962/603962.gbw
Number of atoms                         ...     32
Number of basis functions               ...    335
Max core memory                         ...   1024 MB

Electric properties:
Dipole moment                           ... YES
Quadrupole moment                       ...  NO
Static polarizability (Dipole/Dipole)   ...  NO
Static polarizability (Dipole/Quad.)    ...  NO
Static polarizability (Quad./Quad.)     ...  NO
Static polarizability (Velocity)        ...  NO

Atomic electric properties:
Dipole moment                           ...  NO
Quadrupole moment                       ...  NO
Static polarizability                   ...  NO

Choice of electric origin               ... Center of mass
Position of electric origin             ...     0.158276     0.127965    -0.393544

General magnetic properties:
Magnetizability                         ...  NO

EPR properties:
g-Tensor (aka g-matrix)                 ...  NO
Zero-Field splitting spin-orbit         ...  NO
Zero-field splitting spin-spin          ...  NO
Hyperfine couplings                     ...  NO (   0 nuclei)
Quadrupole couplings                    ...  NO (   0 nuclei)
Contact density                         ...  NO (   0 nuclei)

NMR properties:
Chemical shifts                         ...  NO (   0 nuclei)
Spin-rotation constants                 ...  NO (   0 nuclei)
Spin-spin couplings                     ...  NO (   0 nuclei,    0 pairs)

Choice of magnetic origin               ... GIAO
Position of magnetic origin             ...     0.000000     0.000000     0.000000

Properties with geometric perturbations:
SCF Hessian                             ...  NO
IR spectrum                             ...  NO
VCD spectrum                            ...  NO
X-ray spectroscopy properties:
SCF XES/XAS/RIXS spectra                ...  NO


-------------
DIPOLE MOMENT
-------------

Method             : SCF
Type of density    : Electron Density
Multiplicity       :   1
Irrep              :   0
Energy             : -1067.7837971555834429 Eh
Relativity type    : 
Basis              : AO
                                X                 Y                 Z
Electronic contribution:      1.981643121       1.931735641      -5.471221574
Nuclear contribution   :     -2.369343449      -1.872645807       5.945173821
                        -----------------------------------------
Total Dipole Moment    :     -0.387700328       0.059089834       0.473952247
                        -----------------------------------------
Magnitude (a.u.)       :      0.615169802
Magnitude (Debye)      :      1.563637373



--------------------
Rotational spectrum 
--------------------
 
Rotational constants in cm-1:             0.012787             0.011350             0.007294 
Rotational constants in MHz :           383.353442           340.255766           218.656665 

Dipole components along the rotational axes: 
x,y,z [a.u.] :    -0.086775     0.272640     0.544583 
x,y,z [Debye]:    -0.220565     0.692997     1.384221 

 

Dipole moment calculation done in   0.0 sec 

Maximum memory used throughout the entire PROP-calculation: 19.4 MB

--------------------------------
SUGGESTED CITATIONS FOR THIS RUN
--------------------------------

Below you find a list of papers that are relevant to this ORCA run
We neither can nor want to force you to cite these papers, but we appreciate if you do
You receive ORCA, which is the product of decades of hard work by many enthusiastic individuals, for free
The only thing we kindly ask in return is that you cite our papers,
We deeply appreciate it, if you show your appreciation for ORCA by not just citing the generic ORCA reference.

Please note that relegating all ORCA citations to the supporting information does *not* help us.
SI sections are not indexed - citations you put there will not count into any citation statistics
But we need these citations in order to attract the funding resources that allow us to do what we are doing

Therefore, if you are a happy ORCA user, please consider citing a few of the papers listed below in the main body of your paper

In addition to the list printed below, the program has created the file data/geom_opt_P_BP86/603962/603962.bibtex that contains the list in bibtex format
You can import this file easily into all common literature databanks and citation aid programs


List of essential papers. We consider these as the minimum necessary citations

  1. Neese,F.
     Software update: the ORCA program system, version 5.0
     WIRES Comput. Molec. Sci., 2022 12(1)e1606
     doi.org/10.1002/wcms.1606

List of papers to cite with high priority. The work reported in these papers was absolutely
necessary for this run to complete.
Our perspective: the developers of density functionals and basis sets usually get cited in chemistry papers
Good! But without the algorithms to do something with them, the functionals or basis sets would not do anything.
Hence, in our opinion, the algorithm design and method developments papers are equally worthy of getting cited

  1. Neese,F.
     An improvement of the resolution of the identity approximation for the formation of the Coulomb matrix
     J. Comp. Chem., 2003 24(14)1740-1747
     doi.org/10.1002/jcc.10318
  2. Neese,F.
     The SHARK Integral Generation and Digestion System
     J. Comp. Chem., 2022  1-16
     doi.org/10.1002/jcc.26942
  3. Grimme,S.; Antony,J.; Ehrlich,S.; Krieg,H.
     A consistent and accurate ab initio parametrization of density functional dispersion correction (DFT-D) for the 94 elements H-Pu
     J. Chem. Phys., 2010 132 154104-XXXX
     doi.org/10.1063/1.3382344
  4. Grimme,S.; Ehrlich,S.; Goerigk,L.
     Effect of the damping function in dispersion corrected density functional theory
     J. Comput. Chem., 2011 32(7)1456-1465
     doi.org/10.1002/jcc.21759

List of suggested additional citations. These are papers that are important in the 'surrounding' of 
of this run, or papers that preceded the highly important papers. If you like your results we are grateful for a citation.

  1. Neese,F.
     The ORCA program system
     WIRES Comput. Molec. Sci., 2012 2(1)73-78
     doi.org/10.1002/wcms.81
  2. Neese,F.
     Software update: the ORCA program system, version 4.0
     WIRES Comput. Molec. Sci., 2018 8(1)1-6
     doi.org/10.1002/wcms.1327
  3. Neese,F.; Wennmohs,F.; Becker,U.; Riplinger,C.
     The ORCA quantum chemistry program package
     J. Chem. Phys., 2020 152 Art. No. L224108
     doi.org/10.1063/5.0004608

List of optional additional citations

  1. Neese,F.
     Approximate second-order SCF convergence for spin unrestricted wavefunctions
     Chem. Phys. Lett., 2000 325(1-3)93-98
     doi.org/10.1016/s0009-2614(00)00662-x

Timings for individual modules:

Sum of individual times          ...      534.453 sec (=   8.908 min)
Startup calculation              ...       44.088 sec (=   0.735 min)   8.2 %
SCF iterations                   ...      330.419 sec (=   5.507 min)  61.8 %
Property calculations            ...        0.189 sec (=   0.003 min)   0.0 %
SCF Gradient evaluation          ...      159.258 sec (=   2.654 min)  29.8 %
Geometry relaxation              ...        0.499 sec (=   0.008 min)   0.1 %
                             ****ORCA TERMINATED NORMALLY****
TOTAL RUN TIME: 0 days 0 hours 9 minutes 1 seconds 152 msec
