
                                 *****************
                                 * O   R   C   A *
                                 *****************

                                            #,                                       
                                            ###                                      
                                            ####                                     
                                            #####                                    
                                            ######                                   
                                           ########,                                 
                                     ,,################,,,,,                         
                               ,,#################################,,                 
                          ,,##########################################,,             
                       ,#########################################, ''#####,          
                    ,#############################################,,   '####,        
                  ,##################################################,,,,####,       
                ,###########''''           ''''###############################       
              ,#####''   ,,,,##########,,,,          '''####'''          '####       
            ,##' ,,,,###########################,,,                        '##       
           ' ,,###''''                  '''############,,,                           
         ,,##''                                '''############,,,,        ,,,,,,###''
      ,#''                                            '''#######################'''  
     '                                                          ''''####''''         
             ,#######,   #######,   ,#######,      ##                                
            ,#'     '#,  ##    ##  ,#'     '#,    #''#        ,####,   ,####,        
            ##       ##  ##   ,#'  ##            #'  '#       #'       #'  '#        
            ##       ##  #######   ##           ,######,      #####,   #    #        
            '#,     ,#'  ##    ##  '#,     ,#' ,#      #,     #,   #   #,  ,#        
             '#######'   ##     ##  '#######'  #'      '#     '####' # '####'        



                #########################################################
                #                        -***-                          #
                #          Department of theory and spectroscopy        #
                #                                                       #
                #                      Frank Neese                      #
                #                                                       #
                #     Directorship, Architecture, Infrastructure        #
                #                    SHARK, DRIVERS                     #
                #        Core code/Algorithms in most modules           #
                #                                                       #
                #        Max Planck Institute fuer Kohlenforschung      #
                #                Kaiser Wilhelm Platz 1                 #
                #                 D-45470 Muelheim/Ruhr                 #
                #                      Germany                          #
                #                                                       #
                #                  All rights reserved                  #
                #                        -***-                          #
                #########################################################


                         Program Version 6.0.0  -   RELEASE   -


 With contributions from (in alphabetic order):
   Daniel Aravena         : Magnetic Suceptibility
   Michael Atanasov       : Ab Initio Ligand Field Theory (pilot matlab implementation)
   Alexander A. Auer      : GIAO ZORA, VPT2 properties, NMR spectrum
   Ute Becker             : All parallelization in ORCA, NUMFREQ, NUMCALC
   Giovanni Bistoni       : ED, misc. LED, open-shell LED, HFLD
   Martin Brehm           : Molecular dynamics
   Dmytro Bykov           : pre 5.0 version of the SCF Hessian
   Marcos Casanova-Páez   : Triplet and SCS-CIS(D). UHF-(DLPNO)-IP/EA/STEOM-CCSD. UHF-CVS-IP/STEOM-CCSD
   Vijay G. Chilkuri      : MRCI spin determinant printing, contributions to CSF-ICE
   Pauline Colinet        : FMM embedding
   Dipayan Datta          : RHF DLPNO-CCSD density
   Achintya Kumar Dutta   : EOM-CC, STEOM-CC
   Nicolas Foglia         : Exact transition moments, OPA infrastructure, MCD improvements
   Dmitry Ganyushin       : Spin-Orbit,Spin-Spin,Magnetic field MRCI
   Miquel Garcia          : C-PCM and meta-GGA Hessian, CCSD/C-PCM, Gaussian charge scheme
   Tiago L. C. Gouveia    : GS-ROHF, GS-ROCIS
   Yang Guo               : DLPNO-NEVPT2, F12-NEVPT2, CIM, IAO-localization
   Andreas Hansen         : Spin unrestricted coupled pair/coupled cluster methods
   Ingolf Harden          : AUTO-CI MPn and infrastructure 
   Benjamin Helmich-Paris : MC-RPA, TRAH-(SCF,CASSCF), AVAS, COSX integrals, SCF dyn. polar.
   Lee Huntington         : MR-EOM, pCC
   Robert Izsak           : Overlap fitted RIJCOSX, COSX-SCS-MP3, EOM
   Riya Kayal             : Wick's Theorem for AUTO-CI, AUTO-CI UHF-CCSDT
   Emily Kempfer          : AUTO-CI, RHF CISDT and CCSDT
   Christian Kollmar      : KDIIS, OOCD, Brueckner-CCSD(T), CCSD density, CASPT2, CASPT2-K, improved NEVPT2
   Axel Koslowski         : Symmetry handling
   Simone Kossmann        : Meta GGA functionals, TD-DFT gradient, OOMP2, (MP2 Hessian; deprecated post 5.0)
   Lucas Lang             : DCDCAS
   Marvin Lechner         : AUTO-CI (C++ implementation), FIC-MRCC
   Spencer Leger          : CASSCF response
   Dagmar Lenk            : GEPOL surface, SMD, ORCA-2-JSON
   Dimitrios Liakos       : Extrapolation schemes; Compound Job, initial MDCI parallelization
   Dimitrios Manganas     : Further ROCIS development; embedding schemes. LFT, Crystal Embedding
   Dimitrios Pantazis     : SARC Basis sets
   Anastasios Papadopoulos: AUTO-CI, single reference methods and gradients
   Taras Petrenko         : pre 6.0 DFT Hessian and TD-DFT gradient, (ASA, deprecated), ECA, 1-Electron XAS/XES, NRVS
   Peter Pinski           : DLPNO-MP2, DLPNO-MP2 Gradient
   Christoph Reimann      : Effective Core Potentials
   Marius Retegan         : Local ZFS, SOC
   Christoph Riplinger    : Optimizer, TS searches, QM/MM, DLPNO-CCSD(T), (RO)-DLPNO pert. Triples
   Michael Roemelt        : Original ROCIS implementation
   Masaaki Saitow         : Open-shell DLPNO-CCSD energy and density
   Barbara Sandhoefer     : DKH picture change effects
   Kantharuban Sivalingam : CASSCF convergence/infrastructure, NEVPT2 and variants, FIC-MRCI
   Bernardo de Souza      : ESD, SOC TD-DFT
   Georgi Stoychev        : AutoAux, RI-MP2 NMR, DLPNO-MP2 response, X2C
   Van Anh Tran           : RI-MP2 g-tensors
   Willem Van den Heuvel  : Paramagnetic NMR
   Zikuan Wang            : NOTCH, Electric field optimization 
   Frank Wennmohs         : Technical directorship and infrastructure
   Hang Xu                : AUTO-CI-Response properties 


 We gratefully acknowledge several colleagues who have allowed us to
 interface, adapt or use parts of their codes:
   Stefan Grimme, W. Hujo, H. Kruse, P. Pracht,  : VdW corrections, initial TS optimization,
                  C. Bannwarth, S. Ehlert,         DFT functionals, gCP, sTDA/sTD-DF
                  L. Wittmann, M. Mueller
   Ed Valeev, F. Pavosevic, A. Kumar             : LibInt (2-el integral package), F12 methods
   Garnet Chan, S. Sharma, J. Yang, R. Olivares  : DMRG
   Ulf Ekstrom                                   : XCFun DFT Library
   Mihaly Kallay                                 : mrcc  (arbitrary order and MRCC methods)
   Frank Weinhold                                : gennbo (NPA and NBO analysis)
   Simon Mueller                                 : openCOSMO-RS
   Christopher J. Cramer and Donald G. Truhlar   : smd solvation model
   Lars Goerigk                                  : TD-DFT with DH, B97 family of functionals
   V. Asgeirsson, H. Jonsson                     : NEB implementation
   FAccTs GmbH                                   : IRC, NEB, NEB-TS, DLPNO-Multilevel, CI-OPT
                                                   MM, QMMM, 2- and 3-layer-ONIOM, Crystal-QMMM,
                                                   LR-CPCM, SF, NACMEs, symmetry and pop. for TD-DFT,
                                                   nearIR, NL-DFT gradient (VV10), updates on ESD,
                                                   ML-optimized integration grids, MBIS, APM,
                                                   GOAT, DOCKER, SOLVATOR, interface openCOSMO-RS
   S Lehtola, MJT Oliveira, MAL Marques          : LibXC Library
   Liviu Ungur et al                             : ANISO software


 Your calculation uses the libint2 library for the computation of 2-el integrals
 For citations please refer to: http://libint.valeyev.net

 Your ORCA version has been built with support for libXC version: 6.2.2
 For citations please refer to: https://libxc.gitlab.io

 This ORCA versions uses:
   CBLAS   interface :  Fast vector & matrix operations
   LAPACKE interface :  Fast linear algebra routines
   Shared memory     :  Shared parallel matrices


Your calculation utilizes the atom-pairwise dispersion correction
with the zero-damping scheme (D30)


XCFun DFT library Copyright 2009-2010 Ulf Ekstrom and contributors.
See http://admol.org/xcfun for more information.
This is free software; see the source code for copying conditions.
There is ABSOLUTELY NO WARRANTY; not even for MERCHANTABILITY or FITNESS FOR A PARTICULAR PURPOSE.
For details see the documentation.
Scientific users of this library should cite U. Ekstrom, L. Visscher, R. Bast, A. J. Thorvaldsen and K. Ruud;
J.Chem.Theor.Comp. 2010, DOI: 10.1021/ct100117s
XCFun Version 0.99 

Warning: RI is on but no J-basis has been assigned. Assigning Def2/J (nothing to worry about!)
================================================================================

----- Orbital basis set information -----
Your calculation utilizes the basis: def2-TZVP
   F. Weigend and R. Ahlrichs, Phys. Chem. Chem. Phys. 7, 3297 (2005).

----- AuxJ basis set information -----
Your calculation utilizes the auxiliary basis: def2/J
   F. Weigend, Phys. Chem. Chem. Phys. 8, 1057 (2006).

================================================================================
                                        WARNINGS
                       Please study these warnings very carefully!
================================================================================

WARNING: Functional chosen is sensitive to the integration grid.
         DEFGRID3 seems to be a minimum grid for robust results!

================================================================================
                                       INPUT FILE
================================================================================
NAME = data/single_point_PO_M06-2x/603962/603962.inp
|  1> ! RIJCOSX M062X def2-TZVP D3ZERO NormalSCF
|  2> %pal
|  3> nprocs 6
|  4> end
|  5> 
|  6> * xyz 0 1
|  7>   C           4.33278669401180     -0.37688729008598     -0.11297659578495
|  8>   C           3.87073109083059     -0.32808331949379     -1.43958274527979
|  9>   C           2.49665667300657     -0.20614517675163     -1.69867511488185
| 10>   C           1.59006399290829     -0.13362306564676     -0.62236496412865
| 11>   C           2.04664814465407     -0.18148064444982      0.71217373010513
| 12>   C           3.42321217410895     -0.30348552442857      0.95743992821271
| 13>   P          -0.16956983356930      0.02270480491883     -1.05629098584043
| 14>   O          -0.46116882819708      0.06064508709373     -2.54967461948568
| 15>   C          -1.04110743137519     -1.37389594982247     -0.21670663995798
| 16>   C          -1.92279913390666     -2.13974543843919     -1.00195271680584
| 17>   C          -2.59944378416421     -3.20110752403515     -0.38170001260759
| 18>   C          -2.36635435004258     -3.44383466657769      0.98117986942873
| 19>   C          -1.46035401893675     -2.61531078691224      1.66938071548828
| 20>   N          -0.80590786563237     -1.59828830739986      1.08743364375822
| 21>   C          -0.78782759627300      1.53514262460194     -0.19265399967070
| 22>   C          -1.51703742723344      2.45761276957265     -0.96576995585438
| 23>   C          -2.00038752784457      3.61031987271399     -0.32796432881869
| 24>   C          -1.73573109740928      3.78466144817298      1.03957055159673
| 25>   C          -0.99303961606220      2.79796851575302      1.71467520055407
| 26>   N          -0.52420324179165      1.69205645928606      1.11604817162127
| 27>   H           5.41105878950631     -0.47260568039148      0.08904349505156
| 28>   H           4.58416464017396     -0.38514551501670     -2.27618274648782
| 29>   H           2.10342836689112     -0.16496598202848     -2.72649139703890
| 30>   H           1.31856056574081     -0.12172725086330      1.53218788239405
| 31>   H           3.79074126117710     -0.34140449456995      1.99464059497478
| 32>   H          -2.04660087840457     -1.88746670809905     -2.06598955049399
| 33>   H          -3.29774856113093     -3.83176344651167     -0.95371546520413
| 34>   H          -2.87475934768494     -4.26523967948479      1.50830823480723
| 35>   H          -1.25233096414056     -2.78355391365471      2.74102016677687
| 36>   H          -1.67765318222141      2.24988347218141     -2.03449639274526
| 37>   H          -2.57435490643406      4.36344231497208     -0.89002160731169
| 38>   H          -2.09491724241568      4.67323446989482      1.58036961207766
| 39>   H          -0.76475455813913      2.90808952550175      2.78974004155101
| 40> **                         ****END OF INPUT****
================================================================================

                       ****************************
                       * Single Point Calculation *
                       ****************************

---------------------------------
CARTESIAN COORDINATES (ANGSTROEM)
---------------------------------
  C      4.332787   -0.376887   -0.112977
  C      3.870731   -0.328083   -1.439583
  C      2.496657   -0.206145   -1.698675
  C      1.590064   -0.133623   -0.622365
  C      2.046648   -0.181481    0.712174
  C      3.423212   -0.303486    0.957440
  P     -0.169570    0.022705   -1.056291
  O     -0.461169    0.060645   -2.549675
  C     -1.041107   -1.373896   -0.216707
  C     -1.922799   -2.139745   -1.001953
  C     -2.599444   -3.201108   -0.381700
  C     -2.366354   -3.443835    0.981180
  C     -1.460354   -2.615311    1.669381
  N     -0.805908   -1.598288    1.087434
  C     -0.787828    1.535143   -0.192654
  C     -1.517037    2.457613   -0.965770
  C     -2.000388    3.610320   -0.327964
  C     -1.735731    3.784661    1.039571
  C     -0.993040    2.797969    1.714675
  N     -0.524203    1.692056    1.116048
  H      5.411059   -0.472606    0.089043
  H      4.584165   -0.385146   -2.276183
  H      2.103428   -0.164966   -2.726491
  H      1.318561   -0.121727    1.532188
  H      3.790741   -0.341404    1.994641
  H     -2.046601   -1.887467   -2.065990
  H     -3.297749   -3.831763   -0.953715
  H     -2.874759   -4.265240    1.508308
  H     -1.252331   -2.783554    2.741020
  H     -1.677653    2.249883   -2.034496
  H     -2.574355    4.363442   -0.890022
  H     -2.094917    4.673234    1.580370
  H     -0.764755    2.908090    2.789740

----------------------------
CARTESIAN COORDINATES (A.U.)
----------------------------
  NO LB      ZA    FRAG     MASS         X           Y           Z
   0 C     6.0000    0    12.011    8.187780   -0.712214   -0.213495
   1 C     6.0000    0    12.011    7.314622   -0.619988   -2.720417
   2 C     6.0000    0    12.011    4.717997   -0.389558   -3.210031
   3 C     6.0000    0    12.011    3.004785   -0.252511   -1.176099
   4 C     6.0000    0    12.011    3.867604   -0.342949    1.345813
   5 C     6.0000    0    12.011    6.468934   -0.573505    1.809299
   6 P    15.0000    0    30.974   -0.320441    0.042906   -1.996101
   7 O     8.0000    0    15.999   -0.871483    0.114603   -4.818187
   8 C     6.0000    0    12.011   -1.967408   -2.596287   -0.409516
   9 C     6.0000    0    12.011   -3.633564   -4.043533   -1.893416
  10 C     6.0000    0    12.011   -4.912237   -6.049217   -0.721308
  11 C     6.0000    0    12.011   -4.471762   -6.507904    1.854161
  12 C     6.0000    0    12.011   -2.759669   -4.942221    3.154672
  13 N     7.0000    0    14.007   -1.522945   -3.020327    2.054952
  14 C     6.0000    0    12.011   -1.488778    2.900999   -0.364063
  15 C     6.0000    0    12.011   -2.866785    4.644215   -1.825041
  16 C     6.0000    0    12.011   -3.780185    6.822516   -0.619763
  17 C     6.0000    0    12.011   -3.280056    7.151974    1.964504
  18 C     6.0000    0    12.011   -1.876573    5.287394    3.240267
  19 N     7.0000    0    14.007   -0.990601    3.197523    2.109025
  20 H     1.0000    0     1.008   10.225419   -0.893095    0.168268
  21 H     1.0000    0     1.008    8.662816   -0.727820   -4.301362
  22 H     1.0000    0     1.008    3.974904   -0.311741   -5.152322
  23 H     1.0000    0     1.008    2.491718   -0.230031    2.895415
  24 H     1.0000    0     1.008    7.163463   -0.645161    3.769324
  25 H     1.0000    0     1.008   -3.867515   -3.566795   -3.904154
  26 H     1.0000    0     1.008   -6.231842   -7.240984   -1.802261
  27 H     1.0000    0     1.008   -5.432508   -8.060135    2.850289
  28 H     1.0000    0     1.008   -2.366563   -5.260155    5.179777
  29 H     1.0000    0     1.008   -3.170305    4.251664   -3.844641
  30 H     1.0000    0     1.008   -4.864826    8.245711   -1.681897
  31 H     1.0000    0     1.008   -3.958820    8.831133    2.986466
  32 H     1.0000    0     1.008   -1.445177    5.495493    5.271845

--------------------------------
INTERNAL COORDINATES (ANGSTROEM)
--------------------------------
 C      0   0   0     0.000000000000     0.00000000     0.00000000
 C      1   0   0     1.405617687657     0.00000000     0.00000000
 C      2   1   0     1.403594767859   119.93645913     0.00000000
 C      3   2   1     1.409117910191   119.55909401     0.00000000
 C      4   3   2     1.411294782064   120.82285030     0.02820726
 C      5   4   3     1.403555921886   119.04457078   359.97503950
 P      4   3   2     1.819077073331   116.39597404   180.01663911
 O      7   4   3     1.522059169651   114.93004268   359.86504813
 C      7   4   3     1.847964644246   106.43243961   124.43244703
 C      9   7   4     1.407308458986   116.95203842   228.71173978
 C     10   9   7     1.403228732790   117.84512816   180.29597359
 C     11  10   9     1.403812210691   118.67529604     0.06458955
 C     12  11  10     1.407447627323   118.67312972   359.81164855
 N     13  12  11     1.342124020239   123.22643934     0.11701656
 C      7   4   3     1.848128692335   106.40690006   235.33678197
 C     15   7   4     1.407269138309   116.94022585   130.96488671
 C     16  15   7     1.403266547478   117.85563415   179.74103843
 C     17  16  15     1.403776926815   118.67629684   359.94805978
 C     18  17  16     1.407451550284   118.66578758     0.17637308
 N     19  18  17     1.342089170751   123.23460263   359.88225700
 H      1   2   3     1.101201543436   119.87014875   179.99769865
 H      2   1   3     1.100973698827   120.15547211   179.99173006
 H      3   2   1     1.101240453614   121.67501918   179.98284120
 H      5   4   3     1.098228209694   119.32298773   179.92592432
 H      6   5   4     1.101045276666   119.66895961   179.97698819
 H     10   9   7     1.100520700927   119.02616751     0.64823854
 H     11  10   9     1.101162173387   120.62165019   180.17813438
 H     12  11  10     1.100475420190   121.15693087   180.01365098
 H     13  12  11     1.104531780702   120.39630193   180.26981467
 H     16  15   7     1.100511280567   119.03874358   359.40203412
 H     17  16  15     1.101154098673   120.62137874   179.84976092
 H     18  17  16     1.100472773636   121.16350957   179.98197023
 H     19  18  17     1.104538417986   120.39995165   179.75251088

---------------------------
INTERNAL COORDINATES (A.U.)
---------------------------
 C      0   0   0     0.000000000000     0.00000000     0.00000000
 C      1   0   0     2.656232478667     0.00000000     0.00000000
 C      2   1   0     2.652409714257   119.93645913     0.00000000
 C      3   2   1     2.662846940665   119.55909401     0.00000000
 C      4   3   2     2.666960632333   120.82285030     0.02820726
 C      5   4   3     2.652336306008   119.04457078   359.97503950
 P      4   3   2     3.437557485091   116.39597404   180.01663911
 O      7   4   3     2.876274990264   114.93004268   359.86504813
 C      7   4   3     3.492147082795   106.43243961   124.43244703
 C      9   7   4     2.659427573433   116.95203842   228.71173978
 C     10   9   7     2.651718008223   117.84512816   180.29597359
 C     11  10   9     2.652820621661   118.67529604     0.06458955
 C     12  11  10     2.659690563478   118.67312972   359.81164855
 N     13  12  11     2.536246836010   123.22643934     0.11701656
 C      7   4   3     3.492457088755   106.40690006   235.33678197
 C     15   7   4     2.659353268124   116.94022585   130.96488671
 C     16  15   7     2.651789467627   117.85563415   179.74103843
 C     17  16  15     2.652753944797   118.67629684   359.94805978
 C     18  17  16     2.659697976800   118.66578758     0.17637308
 N     19  18  17     2.536180980021   123.23460263   359.88225700
 H      1   2   3     2.080969335346   119.87014875   179.99769865
 H      2   1   3     2.080538771433   120.15547211   179.99173006
 H      3   2   1     2.081042864925   121.67501918   179.98284120
 H      5   4   3     2.075350548868   119.32298773   179.92592432
 H      6   5   4     2.080674033947   119.66895961   179.97698819
 H     10   9   7     2.079682729462   119.02616751     0.64823854
 H     11  10   9     2.080894936735   120.62165019   180.17813438
 H     12  11  10     2.079597161272   121.15693087   180.01365098
 H     13  12  11     2.087262571739   120.39630193   180.26981467
 H     16  15   7     2.079664927562   119.03874358   359.40203412
 H     17  16  15     2.080879677737   120.62137874   179.84976092
 H     18  17  16     2.079592160008   121.16350957   179.98197023
 H     19  18  17     2.087275114388   120.39995165   179.75251088

---------------------
BASIS SET INFORMATION
---------------------
There are 5 groups of distinct atoms

 Group   1 Type C   : 11s6p2d1f contracted to 5s3p2d1f pattern {62111/411/11/1}
 Group   2 Type P   : 14s9p3d1f contracted to 5s5p2d1f pattern {73211/51111/21/1}
 Group   3 Type O   : 11s6p2d1f contracted to 5s3p2d1f pattern {62111/411/11/1}
 Group   4 Type N   : 11s6p2d1f contracted to 5s3p2d1f pattern {62111/411/11/1}
 Group   5 Type H   : 5s1p contracted to 3s1p pattern {311/1}

Atom   0C    basis set group =>   1
Atom   1C    basis set group =>   1
Atom   2C    basis set group =>   1
Atom   3C    basis set group =>   1
Atom   4C    basis set group =>   1
Atom   5C    basis set group =>   1
Atom   6P    basis set group =>   2
Atom   7O    basis set group =>   3
Atom   8C    basis set group =>   1
Atom   9C    basis set group =>   1
Atom  10C    basis set group =>   1
Atom  11C    basis set group =>   1
Atom  12C    basis set group =>   1
Atom  13N    basis set group =>   4
Atom  14C    basis set group =>   1
Atom  15C    basis set group =>   1
Atom  16C    basis set group =>   1
Atom  17C    basis set group =>   1
Atom  18C    basis set group =>   1
Atom  19N    basis set group =>   4
Atom  20H    basis set group =>   5
Atom  21H    basis set group =>   5
Atom  22H    basis set group =>   5
Atom  23H    basis set group =>   5
Atom  24H    basis set group =>   5
Atom  25H    basis set group =>   5
Atom  26H    basis set group =>   5
Atom  27H    basis set group =>   5
Atom  28H    basis set group =>   5
Atom  29H    basis set group =>   5
Atom  30H    basis set group =>   5
Atom  31H    basis set group =>   5
Atom  32H    basis set group =>   5
---------------------------------
AUXILIARY/J BASIS SET INFORMATION
---------------------------------
There are 5 groups of distinct atoms

 Group   1 Type C   : 12s5p4d2f1g contracted to 6s4p3d1f1g pattern {711111/2111/211/2/1}
 Group   2 Type P   : 14s5p5d2f1g contracted to 8s4p3d1f1g pattern {71111111/2111/311/2/1}
 Group   3 Type O   : 12s5p4d2f1g contracted to 6s4p3d1f1g pattern {711111/2111/211/2/1}
 Group   4 Type N   : 12s5p4d2f1g contracted to 6s4p3d1f1g pattern {711111/2111/211/2/1}
 Group   5 Type H   : 5s2p1d contracted to 3s1p1d pattern {311/2/1}

Atom   0C    basis set group =>   1
Atom   1C    basis set group =>   1
Atom   2C    basis set group =>   1
Atom   3C    basis set group =>   1
Atom   4C    basis set group =>   1
Atom   5C    basis set group =>   1
Atom   6P    basis set group =>   2
Atom   7O    basis set group =>   3
Atom   8C    basis set group =>   1
Atom   9C    basis set group =>   1
Atom  10C    basis set group =>   1
Atom  11C    basis set group =>   1
Atom  12C    basis set group =>   1
Atom  13N    basis set group =>   4
Atom  14C    basis set group =>   1
Atom  15C    basis set group =>   1
Atom  16C    basis set group =>   1
Atom  17C    basis set group =>   1
Atom  18C    basis set group =>   1
Atom  19N    basis set group =>   4
Atom  20H    basis set group =>   5
Atom  21H    basis set group =>   5
Atom  22H    basis set group =>   5
Atom  23H    basis set group =>   5
Atom  24H    basis set group =>   5
Atom  25H    basis set group =>   5
Atom  26H    basis set group =>   5
Atom  27H    basis set group =>   5
Atom  28H    basis set group =>   5
Atom  29H    basis set group =>   5
Atom  30H    basis set group =>   5
Atom  31H    basis set group =>   5
Atom  32H    basis set group =>   5


           ************************************************************
           *        Program running with 6 parallel MPI-processes     *
           *              working on a common directory               *
           ************************************************************
------------------------------------------------------------------------------
                             ORCA STARTUP CALCULATIONS
                           -- RI-GTO INTEGRALS CHOSEN --
------------------------------------------------------------------------------
------------------------------------------------------------------------------
                   ___                                                        
                  /   \      - P O W E R E D   B Y -                         
                 /     \                                                     
                 |  |  |   _    _      __       _____    __    __             
                 |  |  |  | |  | |    /  \     |  _  \  |  |  /  |          
                  \  \/   | |  | |   /    \    | | | |  |  | /  /          
                 / \  \   | |__| |  /  /\  \   | |_| |  |  |/  /          
                |  |  |   |  __  | /  /__\  \  |    /   |      \           
                |  |  |   | |  | | |   __   |  |    \   |  |\   \          
                \     /   | |  | | |  |  |  |  | |\  \  |  | \   \       
                 \___/    |_|  |_| |__|  |__|  |_| \__\ |__|  \__/        
                                                                              
                      - O R C A' S   B I G   F R I E N D -                    
                                      &                                       
                       - I N T E G R A L  F E E D E R -                       
                                                                              
 v1 FN, 2020, v2 2021, v3 2022-2024                                           
------------------------------------------------------------------------------


----------------------
SHARK INTEGRAL PACKAGE
----------------------

Number of atoms                             ...     33
Number of basis functions                   ...    704
Number of shells                            ...    274
Maximum angular momentum                    ...      3
Integral batch strategy                     ... SHARK/LIBINT Hybrid
RI-J (if used) integral strategy            ... SPLIT-RIJ (Revised 2003 algorithm where possible)
Printlevel                                  ...      1
Contraction scheme used                     ... SEGMENTED contraction
Prescreening option                         ... SCHWARTZ
   Thresh                                   ... 1.000e-10
   Tcut                                     ... 1.000e-11
   Tpresel                                  ... 1.000e-11 
Coulomb Range Separation                    ... NOT USED
Exchange Range Separation                   ... NOT USED
Multipole approximations                    ... NOT USED
Finite Nucleus Model                        ... NOT USED
CABS basis                                  ... NOT available
Auxiliary Coulomb fitting basis             ... AVAILABLE
   # of basis functions in Aux-J            ...   1125
   # of shells in Aux-J                     ...    367
   Maximum angular momentum in Aux-J        ...      4
Auxiliary J/K fitting basis                 ... NOT available
Auxiliary Correlation fitting basis         ... NOT available
Auxiliary 'external' fitting basis          ... NOT available

Checking pre-screening integrals            ... done (  0.0 sec) Dimension = 274
Check shell pair data                       ... done (  0.0 sec)
Shell pair information
Shell pair cut-off parameter TPreSel        ...   1.0e-11
Total number of shell pairs                 ...     37675
Shell pairs after pre-screening             ...     27199
Total number of primitive shell pairs       ...    118348
Primitive shell pairs kept                  ...     56443
          la=0 lb=0:   6680 shell pairs
          la=1 lb=0:   7799 shell pairs
          la=1 lb=1:   2315 shell pairs
          la=2 lb=0:   3863 shell pairs
          la=2 lb=1:   2333 shell pairs
          la=2 lb=2:    627 shell pairs
          la=3 lb=0:   1828 shell pairs
          la=3 lb=1:   1084 shell pairs
          la=3 lb=2:    540 shell pairs
          la=3 lb=3:    130 shell pairs

Calculating one electron integrals          ... done (  0.1 sec)
Calculating RI/J V-Matrix + Cholesky decomp.... done (  0.1 sec)
Calculating Nuclear repulsion               ... done (  0.0 sec) ENN=   1580.086309300681 Eh

Diagonalization of the overlap matrix:
Smallest eigenvalue                        ... 9.156e-06
Time for diagonalization                   ...    0.095 sec
Threshold for overlap eigenvalues          ... 1.000e-07
Number of eigenvalues below threshold      ... 0
Time for construction of square roots      ...    0.046 sec
Total time needed                          ...    0.145 sec

-------------------
DFT GRID GENERATION
-------------------

General Integration Accuracy     IntAcc      ... 4.388
Radial Grid Type                 RadialGrid  ... OptM3 with GC (2021)
Angular Grid (max. ang.)         AngularGrid ... 4 (Lebedev-302)
Angular grid pruning method      GridPruning ... 4 (adaptive)
Weight generation scheme         WeightScheme... mBecke (2022)
Basis function cutoff            BFCut       ... 1.0000e-10
Integration weight cutoff        WCut        ... 1.0000e-14
Partially contracted basis set               ... off
Rotationally invariant grid construction     ... off
Angular grids for H and He will be reduced by one unit

Total number of grid points                  ...   162739
Total number of batches                      ...     2559
Average number of points per batch           ...       63
Average number of grid points per atom       ...     4931

--------------------
COSX GRID GENERATION
--------------------

GRIDX 1
-------
General Integration Accuracy     IntAcc      ... 3.816
Radial Grid Type                 RadialGrid  ... OptM3 with GC (2021)
Angular Grid (max. ang.)         AngularGrid ... 1 (Lebedev-50)
Angular grid pruning method      GridPruning ... 4 (adaptive)
Weight generation scheme         WeightScheme... mBecke (2022)
Basis function cutoff            BFCut       ... 1.0000e-10
Integration weight cutoff        WCut        ... 1.0000e-14
Partially contracted basis set               ... on
Rotationally invariant grid construction     ... off
Angular grids for H and He will be reduced by one unit

Total number of grid points                  ...    21669
Total number of batches                      ...      186
Average number of points per batch           ...      116
Average number of grid points per atom       ...      657
UseSFitting                                  ... on

GRIDX 2
-------
General Integration Accuracy     IntAcc      ... 4.020
Radial Grid Type                 RadialGrid  ... OptM3 with GC (2021)
Angular Grid (max. ang.)         AngularGrid ... 2 (Lebedev-110)
Angular grid pruning method      GridPruning ... 4 (adaptive)
Weight generation scheme         WeightScheme... mBecke (2022)
Basis function cutoff            BFCut       ... 1.0000e-10
Integration weight cutoff        WCut        ... 1.0000e-14
Partially contracted basis set               ... on
Rotationally invariant grid construction     ... off
Angular grids for H and He will be reduced by one unit

Total number of grid points                  ...    45193
Total number of batches                      ...      365
Average number of points per batch           ...      123
Average number of grid points per atom       ...     1369
UseSFitting                                  ... on

GRIDX 3
-------
General Integration Accuracy     IntAcc      ... 4.338
Radial Grid Type                 RadialGrid  ... OptM3 with GC (2021)
Angular Grid (max. ang.)         AngularGrid ... 3 (Lebedev-194)
Angular grid pruning method      GridPruning ... 4 (adaptive)
Weight generation scheme         WeightScheme... mBecke (2022)
Basis function cutoff            BFCut       ... 1.0000e-10
Integration weight cutoff        WCut        ... 1.0000e-14
Partially contracted basis set               ... on
Rotationally invariant grid construction     ... off
Angular grids for H and He will be reduced by one unit

Total number of grid points                  ...    99562
Total number of batches                      ...      795
Average number of points per batch           ...      125
Average number of grid points per atom       ...     3017
UseSFitting                                  ... on
Initializing property integral containers    ... done (  0.0 sec)

SHARK setup successfully completed in   4.0 seconds

Maximum memory used throughout the entire STARTUP-calculation: 65.9 MB


           ************************************************************
           *        Program running with 6 parallel MPI-processes     *
           *              working on a common directory               *
           ************************************************************
-------------------------------------------------------------------------------
                                 ORCA GUESS
                   Start orbitals & Density for SCF / CASSCF
-------------------------------------------------------------------------------

------------
SCF SETTINGS
------------
Hamiltonian:
 Density Functional     Method          .... DFT(GTOs)
 Exchange Functional    Exchange        .... M062X
 Correlation Functional Correlation     .... M062X
 Gradients option       PostSCFGGA      .... off
 Hybrid DFT is turned on
   Fraction HF Exchange ScalHFX         ....  0.540000
   Scaling of DF-GGA-X  ScalDFX         ....  0.460000
   Scaling of DF-GGA-C  ScalDFC         ....  1.000000
   Scaling of DF-LDA-C  ScalLDAC        ....  1.000000
   Perturbative correction              ....  0.000000
 RI-approximation to the Coulomb term is turned on
   Number of AuxJ basis functions       .... 1125
   RIJ-COSX (HFX calculated with COS-X)).... on


General Settings:
 Integral files         IntName         .... data/single_point_PO_M06-2x/603962/603962
 Hartree-Fock type      HFTyp           .... RHF
 Total Charge           Charge          ....    0
 Multiplicity           Mult            ....    1
 Number of Electrons    NEL             ....  146
 Basis Dimension        Dim             ....  704
 Nuclear Repulsion      ENuc            ....   1580.0863093007 Eh

Convergence Acceleration:
 AO-DIIS                CNVDIIS         .... on
   Start iteration      DIISMaxIt       ....    12
   Startup error        DIISStart       ....  0.200000
   # of expansion vecs  DIISMaxEq       ....     5
   Bias factor          DIISBfac        ....   1.050
   Max. coefficient     DIISMaxC        ....  10.000
 MO-DIIS                CNVKDIIS        .... off
 Trust-Rad. Augm. Hess. CNVTRAH         .... auto
   Auto Start mean grad. ratio tolernc. ....  1.125000
   Auto Start start iteration           ....    50
   Auto Start num. interpolation iter.  ....    10
   Max. Number of Micro iterations      ....    24
   Max. Number of Macro iterations      .... Maxiter - #DIIS iter
   Number of Davidson start vectors     ....     2
   Converg. threshold    (grad. norm)   ....   5.000e-05
   Grad. Scal. Fac. for Micro threshold ....   0.100
   Minimum threshold for Micro iter.    ....   1.000e-02
   NR start threshold (gradient norm)   ....   1.000e-04
   Initial trust radius                 ....   0.400
   Minimum AH scaling param. (alpha)    ....   1.000
   Maximum AH scaling param. (alpha)    .... 1000.000
   Quad. conv. algorithm                .... NR
   White noise on init. David. guess    .... on
   Maximum white noise                  ....   0.010
   Pseudo random numbers                .... off
   Inactive MOs                         .... canonical
   Orbital update algorithm             .... Taylor
   Preconditioner                       .... Diag
   Full preconditioner red. dimension   ....   250
 SOSCF                  CNVSOSCF        .... on
   Start iteration      SOSCFMaxIt      ....   150
   Startup grad/error   SOSCFStart      ....  0.003300
   Hessian update       SOSCFHessUp     .... L-BFGS
 Level Shifting         CNVShift        .... on
   Level shift para.    LevelShift      ....    0.2500
   Turn off err/grad.   ShiftErr        ....    0.0010
 Zerner damping         CNVZerner       .... off
 Static damping         CNVDamp         .... on
   Fraction old density DampFac         ....    0.7000
   Max. Damping (<1)    DampMax         ....    0.9800
   Min. Damping (>=0)   DampMin         ....    0.0000
   Turn off err/grad.   DampErr         ....    0.1000

SCF Procedure:
 Maximum # iterations   MaxIter         ....   125
 SCF integral mode      SCFMode         .... Direct
   Integral package                     .... SHARK and LIBINT hybrid scheme
 Reset frequency        DirectResetFreq ....    20
 Integral Threshold     Thresh          ....  1.000e-10 Eh
 Primitive CutOff       TCut            ....  1.000e-11 Eh

Convergence Tolerance:
 Convergence Check Mode ConvCheckMode   .... Total+1el-Energy
 Convergence forced     ConvForced      .... 0
 Energy Change          TolE            ....  1.000e-06 Eh
 1-El. energy change                    ....  1.000e-03 Eh
 Orbital Gradient       TolG            ....  5.000e-05
 Orbital Rotation angle TolX            ....  5.000e-05
 DIIS Error             TolErr          ....  1.000e-05

------------------------------
INITIAL GUESS: MODEL POTENTIAL
------------------------------
Loading Hartree-Fock densities                     ... done
Calculating cut-offs                               ... done
Initializing the effective Hamiltonian             ... done
Setting up the integral package (SHARK)            ... done
Starting the Coulomb interaction                   ... done (   0.4 sec)
Making the grid                                    ... done (   0.3 sec)
Mapping shells                                     ... done
Starting the XC term evaluation                    ... done (   0.5 sec)
  promolecular density results
     # of electrons  =    145.996174742
     EX              =   -129.315367024
     EC              =     -4.946447045
     EX+EC           =   -134.261814069
Transforming the Hamiltonian                       ... done (   0.0 sec)
Diagonalizing the Hamiltonian                      ... done (   0.1 sec)
Back transforming the eigenvectors                 ... done (   0.0 sec)
Now organizing SCF variables                       ... done
                      ------------------
                      INITIAL GUESS DONE (   1.4 sec)
                      ------------------
             **** ENERGY FILE WAS UPDATED (data/single_point_PO_M06-2x/603962/603962.en.tmp) ****
Finished Guess after   1.7 sec
Maximum memory used throughout the entire GUESS-calculation: 49.7 MB


           ************************************************************
           *        Program running with 6 parallel MPI-processes     *
           *              working on a common directory               *
           ************************************************************

-------------------------------------------------------------------------------------------
                                      ORCA LEAN-SCF
                              memory conserving SCF solver
-------------------------------------------------------------------------------------------

----------------------------------------D-I-I-S--------------------------------------------
Iteration    Energy (Eh)           Delta-E    RMSDP     MaxDP     DIISErr   Damp  Time(sec)
-------------------------------------------------------------------------------------------
               ***  Starting incremental Fock matrix formation  ***
    1    -1143.0817493807705887     0.00e+00  1.28e-03  9.78e-02  3.61e-01  0.700  15.1
    2    -1143.3024257454860617    -2.21e-01  1.08e-03  9.31e-02  1.56e-01  0.700   8.4
                               ***Turning on AO-DIIS***
    3    -1143.4014618513222104    -9.90e-02  5.59e-04  2.45e-02  4.61e-02  0.700   8.0
    4    -1143.4614030906097923    -5.99e-02  1.20e-03  4.22e-02  3.31e-02  0.000   8.0
    5    -1143.5917441808549029    -1.30e-01  1.54e-04  1.32e-02  7.36e-03  0.000   8.9
                              *** Initializing SOSCF ***
---------------------------------------S-O-S-C-F--------------------------------------
Iteration    Energy (Eh)           Delta-E    RMSDP     MaxDP     MaxGrad    Time(sec)
--------------------------------------------------------------------------------------
    6    -1143.5921398463526657    -3.96e-04  4.70e-05  3.74e-03  1.49e-03     7.5
               *** Restarting incremental Fock matrix formation ***
    7    -1143.5922071614006654    -6.73e-05  6.43e-05  2.42e-03  3.65e-04    14.6
    8    -1143.5922104814928844    -3.32e-06  2.26e-05  7.42e-04  2.88e-04    10.8
    9    -1143.5922160206575882    -5.54e-06  1.62e-05  6.49e-04  4.95e-05     9.6
   10    -1143.5922159525237021     6.81e-08  2.22e-06  7.85e-05  5.26e-05     9.3
                 **** Energy Check signals convergence ****

               *****************************************************
               *                     SUCCESS                       *
               *           SCF CONVERGED AFTER  10 CYCLES          *
               *****************************************************

Recomputing exchange energy using gridx3       ... done (   21.626 sec)
Old exchange energy                            :    -71.034365995 Eh
New exchange energy                            :    -71.034358604 Eh
Exchange energy change after final integration :      0.000007391 Eh
Total energy after final integration           :  -1143.592208561 Eh
             **** ENERGY FILE WAS UPDATED (data/single_point_PO_M06-2x/603962/603962.en.tmp) ****

----------------
TOTAL SCF ENERGY
----------------

Total Energy       :      -1143.59220856120760 Eh          -31118.72604 eV

Components:
Nuclear Repulsion  :       1580.08630930068080 Eh           42996.33437 eV
Electronic Energy  :      -2723.67852525320450 Eh          -74115.06061 eV
One Electron Energy:      -4699.59889234630191 Eh         -127882.58729 eV
Two Electron Energy:       1975.92036709309741 Eh           53767.52668 eV

Virial components:
Potential Energy   :      -2281.50352746056569 Eh          -62082.86721 eV
Kinetic Energy     :       1137.91131889935809 Eh           30964.14117 eV
Virial Ratio       :          2.00499238347268

DFT components:
N(Alpha)           :       72.999974420513 electrons
N(Beta)            :       72.999974420513 electrons
N(Total)           :      145.999948841026 electrons
E(XC)              :      -65.918657441503 Eh       

---------------
SCF CONVERGENCE
---------------

  Last Energy change         ...   -6.8134e-08  Tolerance :   1.0000e-06
  Last MAX-Density change    ...    7.8486e-05  Tolerance :   1.0000e-05
  Last RMS-Density change    ...    2.2228e-06  Tolerance :   1.0000e-06
  Last DIIS Error            ...    1.4942e-03  Tolerance :   1.0000e-05
  Last Orbital Gradient      ...    5.2646e-05  Tolerance :   5.0000e-05
  Last Orbital Rotation      ...    6.5570e-05  Tolerance :   5.0000e-05


----------------
ORBITAL ENERGIES
----------------

  NO   OCC          E(Eh)            E(eV) 
   0   2.0000     -78.096764     -2125.1210 
   1   2.0000     -19.570531      -532.5412 
   2   2.0000     -14.764113      -401.7519 
   3   2.0000     -14.764109      -401.7518 
   4   2.0000     -10.591081      -288.1980 
   5   2.0000     -10.591073      -288.1977 
   6   2.0000     -10.590932      -288.1939 
   7   2.0000     -10.590899      -288.1930 
   8   2.0000     -10.574163      -287.7376 
   9   2.0000     -10.574152      -287.7373 
  10   2.0000     -10.566749      -287.5359 
  11   2.0000     -10.566710      -287.5348 
  12   2.0000     -10.563388      -287.4444 
  13   2.0000     -10.563385      -287.4443 
  14   2.0000     -10.552753      -287.1550 
  15   2.0000     -10.551475      -287.1202 
  16   2.0000     -10.550644      -287.0976 
  17   2.0000     -10.548804      -287.0476 
  18   2.0000     -10.547467      -287.0112 
  19   2.0000     -10.547105      -287.0013 
  20   2.0000      -6.903672      -187.8585 
  21   2.0000      -5.020586      -136.6171 
  22   2.0000      -5.020557      -136.6163 
  23   2.0000      -5.019257      -136.5809 
  24   2.0000      -1.071597       -29.1596 
  25   2.0000      -1.057569       -28.7779 
  26   2.0000      -1.054733       -28.7007 
  27   2.0000      -0.954464       -25.9723 
  28   2.0000      -0.909737       -24.7552 
  29   2.0000      -0.908759       -24.7286 
  30   2.0000      -0.874895       -23.8071 
  31   2.0000      -0.862192       -23.4614 
  32   2.0000      -0.843313       -22.9477 
  33   2.0000      -0.838519       -22.8173 
  34   2.0000      -0.750803       -20.4304 
  35   2.0000      -0.721871       -19.6431 
  36   2.0000      -0.719898       -19.5894 
  37   2.0000      -0.713058       -19.4033 
  38   2.0000      -0.689538       -18.7633 
  39   2.0000      -0.684022       -18.6132 
  40   2.0000      -0.642867       -17.4933 
  41   2.0000      -0.603054       -16.4099 
  42   2.0000      -0.593313       -16.1449 
  43   2.0000      -0.575885       -15.6706 
  44   2.0000      -0.558775       -15.2050 
  45   2.0000      -0.557832       -15.1794 
  46   2.0000      -0.538147       -14.6437 
  47   2.0000      -0.530242       -14.4286 
  48   2.0000      -0.516737       -14.0611 
  49   2.0000      -0.512213       -13.9380 
  50   2.0000      -0.499961       -13.6046 
  51   2.0000      -0.497090       -13.5265 
  52   2.0000      -0.487262       -13.2591 
  53   2.0000      -0.483485       -13.1563 
  54   2.0000      -0.481423       -13.1002 
  55   2.0000      -0.469396       -12.7729 
  56   2.0000      -0.466454       -12.6929 
  57   2.0000      -0.458361       -12.4726 
  58   2.0000      -0.440605       -11.9895 
  59   2.0000      -0.424607       -11.5542 
  60   2.0000      -0.419917       -11.4265 
  61   2.0000      -0.405265       -11.0278 
  62   2.0000      -0.399718       -10.8769 
  63   2.0000      -0.360062        -9.7978 
  64   2.0000      -0.359710        -9.7882 
  65   2.0000      -0.352727        -9.5982 
  66   2.0000      -0.351132        -9.5548 
  67   2.0000      -0.334674        -9.1069 
  68   2.0000      -0.326008        -8.8711 
  69   2.0000      -0.322052        -8.7635 
  70   2.0000      -0.314598        -8.5606 
  71   2.0000      -0.305886        -8.3236 
  72   2.0000      -0.304761        -8.2930 
  73   0.0000      -0.026359        -0.7173 
  74   0.0000      -0.014288        -0.3888 
  75   0.0000      -0.004922        -0.1339 
  76   0.0000      -0.000767        -0.0209 
  77   0.0000       0.020417         0.5556 
  78   0.0000       0.023215         0.6317 
  79   0.0000       0.074614         2.0304 
  80   0.0000       0.081540         2.2188 
  81   0.0000       0.082348         2.2408 
  82   0.0000       0.089964         2.4481 
  83   0.0000       0.105205         2.8628 
*Only the first 10 virtual orbitals were printed.

                    ********************************
                    * MULLIKEN POPULATION ANALYSIS *
                    ********************************

-----------------------
MULLIKEN ATOMIC CHARGES
-----------------------
   0 C :   -0.136255
   1 C :   -0.137698
   2 C :   -0.168271
   3 C :   -0.064658
   4 C :   -0.157104
   5 C :   -0.141014
   6 P :    0.683270
   7 O :   -0.616812
   8 C :    0.042561
   9 C :   -0.172000
  10 C :   -0.100385
  11 C :   -0.137222
  12 C :   -0.067990
  13 N :   -0.245703
  14 C :    0.037887
  15 C :   -0.170704
  16 C :   -0.101133
  17 C :   -0.136233
  18 C :   -0.068621
  19 N :   -0.244573
  20 H :    0.145597
  21 H :    0.145536
  22 H :    0.189371
  23 H :    0.190185
  24 H :    0.144158
  25 H :    0.191229
  26 H :    0.156325
  27 H :    0.149884
  28 H :    0.146290
  29 H :    0.191627
  30 H :    0.156234
  31 H :    0.149858
  32 H :    0.146365
Sum of atomic charges:   -0.0000000

--------------------------------
MULLIKEN REDUCED ORBITAL CHARGES
--------------------------------
  0 C s       :     3.226340  s :     3.226340
      pz      :     0.885410  p :     2.841483
      px      :     1.007490
      py      :     0.948583
      dz2     :     0.012836  d :     0.062163
      dxz     :     0.014924
      dyz     :     0.021235
      dx2y2   :     0.007724
      dxy     :     0.005444
      f0      :     0.001325  f :     0.006269
      f+1     :     0.001150
      f-1     :     0.001051
      f+2     :     0.000785
      f-2     :     0.000796
      f+3     :     0.000714
      f-3     :     0.000448

  1 C s       :     3.224002  s :     3.224002
      pz      :     0.941607  p :     2.847929
      px      :     0.932314
      py      :     0.974009
      dz2     :     0.011899  d :     0.059465
      dxz     :     0.015262
      dyz     :     0.011502
      dx2y2   :     0.007280
      dxy     :     0.013522
      f0      :     0.001107  f :     0.006301
      f+1     :     0.001132
      f-1     :     0.000923
      f+2     :     0.001052
      f-2     :     0.000214
      f+3     :     0.000724
      f-3     :     0.001148

  2 C s       :     3.216812  s :     3.216812
      pz      :     1.032147  p :     2.881485
      px      :     0.916960
      py      :     0.932378
      dz2     :     0.012247  d :     0.063509
      dxz     :     0.017754
      dyz     :     0.006886
      dx2y2   :     0.006180
      dxy     :     0.020442
      f0      :     0.001066  f :     0.006465
      f+1     :     0.001174
      f-1     :     0.000344
      f+2     :     0.001101
      f-2     :     0.000645
      f+3     :     0.000856
      f-3     :     0.001279

  3 C s       :     3.202717  s :     3.202717
      pz      :     0.875531  p :     2.779472
      px      :     0.903390
      py      :     1.000551
      dz2     :     0.017700  d :     0.075332
      dxz     :     0.014506
      dyz     :     0.022653
      dx2y2   :     0.010711
      dxy     :     0.009761
      f0      :     0.001430  f :     0.007139
      f+1     :     0.001260
      f-1     :     0.001170
      f+2     :     0.000982
      f-2     :     0.000768
      f+3     :     0.000763
      f-3     :     0.000766

  4 C s       :     3.243921  s :     3.243921
      pz      :     0.966271  p :     2.841714
      px      :     0.961896
      py      :     0.913546
      dz2     :     0.011373  d :     0.065002
      dxz     :     0.019064
      dyz     :     0.012408
      dx2y2   :     0.006684
      dxy     :     0.015472
      f0      :     0.001102  f :     0.006468
      f+1     :     0.001172
      f-1     :     0.000882
      f+2     :     0.001137
      f-2     :     0.000256
      f+3     :     0.000761
      f-3     :     0.001159

  5 C s       :     3.223477  s :     3.223477
      pz      :     0.981025  p :     2.853395
      px      :     0.897699
      py      :     0.974671
      dz2     :     0.012326  d :     0.057904
      dxz     :     0.015146
      dyz     :     0.006750
      dx2y2   :     0.006092
      dxy     :     0.017590
      f0      :     0.001122  f :     0.006238
      f+1     :     0.001026
      f-1     :     0.000378
      f+2     :     0.001094
      f-2     :     0.000586
      f+3     :     0.000773
      f-3     :     0.001260

  6 P s       :     5.290001  s :     5.290001
      pz      :     2.585964  p :     8.279306
      px      :     2.849193
      py      :     2.844149
      dz2     :     0.095451  d :     0.684093
      dxz     :     0.184933
      dyz     :     0.216376
      dx2y2   :     0.105826
      dxy     :     0.081507
      f0      :     0.009718  f :     0.063329
      f+1     :     0.015691
      f-1     :     0.015361
      f+2     :     0.005663
      f-2     :     0.007850
      f+3     :     0.003402
      f-3     :     0.005644

  7 O s       :     3.887817  s :     3.887817
      pz      :     1.380391  p :     4.703375
      px      :     1.653578
      py      :     1.669407
      dz2     :     0.009549  d :     0.024379
      dxz     :     0.007225
      dyz     :     0.006879
      dx2y2   :     0.000325
      dxy     :     0.000402
      f0      :     0.000490  f :     0.001241
      f+1     :     0.000357
      f-1     :     0.000316
      f+2     :     0.000036
      f-2     :     0.000039
      f+3     :     0.000002
      f-3     :     0.000001

  8 C s       :     3.153358  s :     3.153358
      pz      :     0.782979  p :     2.674533
      px      :     0.934395
      py      :     0.957159
      dz2     :     0.025192  d :     0.119323
      dxz     :     0.034002
      dyz     :     0.034566
      dx2y2   :     0.016366
      dxy     :     0.009197
      f0      :     0.001854  f :     0.010225
      f+1     :     0.002497
      f-1     :     0.002462
      f+2     :     0.000920
      f-2     :     0.000898
      f+3     :     0.000856
      f-3     :     0.000739

  9 C s       :     3.224553  s :     3.224553
      pz      :     1.034343  p :     2.878185
      px      :     0.926302
      py      :     0.917540
      dz2     :     0.015892  d :     0.062909
      dxz     :     0.008761
      dyz     :     0.011744
      dx2y2   :     0.017140
      dxy     :     0.009372
      f0      :     0.000634  f :     0.006354
      f+1     :     0.000837
      f-1     :     0.001119
      f+2     :     0.000842
      f-2     :     0.000858
      f+3     :     0.000939
      f-3     :     0.001126

 10 C s       :     3.223232  s :     3.223232
      pz      :     0.912774  p :     2.810446
      px      :     0.957286
      py      :     0.940386
      dz2     :     0.011827  d :     0.060439
      dxz     :     0.016484
      dyz     :     0.013779
      dx2y2   :     0.009831
      dxy     :     0.008518
      f0      :     0.000945  f :     0.006268
      f+1     :     0.001110
      f-1     :     0.001336
      f+2     :     0.000450
      f-2     :     0.000899
      f+3     :     0.000596
      f-3     :     0.000932

 11 C s       :     3.222932  s :     3.222932
      pz      :     0.914115  p :     2.849143
      px      :     0.954545
      py      :     0.980483
      dz2     :     0.011356  d :     0.058940
      dxz     :     0.014468
      dyz     :     0.016840
      dx2y2   :     0.008395
      dxy     :     0.007881
      f0      :     0.000933  f :     0.006207
      f+1     :     0.001236
      f-1     :     0.001174
      f+2     :     0.000556
      f-2     :     0.000828
      f+3     :     0.000881
      f-3     :     0.000599

 12 C s       :     3.219192  s :     3.219192
      pz      :     0.986007  p :     2.738395
      px      :     0.889845
      py      :     0.862542
      dz2     :     0.026591  d :     0.101043
      dxz     :     0.012666
      dyz     :     0.016856
      dx2y2   :     0.026162
      dxy     :     0.018768
      f0      :     0.000615  f :     0.009360
      f+1     :     0.001142
      f-1     :     0.001807
      f+2     :     0.001217
      f-2     :     0.001286
      f+3     :     0.001523
      f-3     :     0.001770

 13 N s       :     3.626872  s :     3.626872
      pz      :     1.092090  p :     3.555249
      px      :     1.263588
      py      :     1.199571
      dz2     :     0.014060  d :     0.059904
      dxz     :     0.012926
      dyz     :     0.012848
      dx2y2   :     0.011422
      dxy     :     0.008648
      f0      :     0.000726  f :     0.003678
      f+1     :     0.000580
      f-1     :     0.000864
      f+2     :     0.000396
      f-2     :     0.000467
      f+3     :     0.000255
      f-3     :     0.000389

 14 C s       :     3.156123  s :     3.156123
      pz      :     0.782652  p :     2.676581
      px      :     0.928447
      py      :     0.965483
      dz2     :     0.024570  d :     0.119181
      dxz     :     0.030725
      dyz     :     0.038722
      dx2y2   :     0.015891
      dxy     :     0.009273
      f0      :     0.001843  f :     0.010228
      f+1     :     0.002277
      f-1     :     0.002762
      f+2     :     0.000948
      f-2     :     0.000787
      f+3     :     0.000776
      f-3     :     0.000834

 15 C s       :     3.223969  s :     3.223969
      pz      :     1.035183  p :     2.877452
      px      :     0.934251
      py      :     0.908018
      dz2     :     0.016196  d :     0.062922
      dxz     :     0.007524
      dyz     :     0.012614
      dx2y2   :     0.014513
      dxy     :     0.012075
      f0      :     0.000653  f :     0.006361
      f+1     :     0.000625
      f-1     :     0.001322
      f+2     :     0.000863
      f-2     :     0.000831
      f+3     :     0.000881
      f-3     :     0.001185

 16 C s       :     3.225163  s :     3.225163
      pz      :     0.910464  p :     2.809332
      px      :     0.945166
      py      :     0.953701
      dz2     :     0.011704  d :     0.060367
      dxz     :     0.016304
      dyz     :     0.014332
      dx2y2   :     0.008261
      dxy     :     0.009766
      f0      :     0.000937  f :     0.006272
      f+1     :     0.001035
      f-1     :     0.001456
      f+2     :     0.000490
      f-2     :     0.000836
      f+3     :     0.000708
      f-3     :     0.000809

 17 C s       :     3.222083  s :     3.222083
      pz      :     0.915308  p :     2.849069
      px      :     0.956490
      py      :     0.977272
      dz2     :     0.011182  d :     0.058878
      dxz     :     0.013985
      dyz     :     0.017503
      dx2y2   :     0.009174
      dxy     :     0.007034
      f0      :     0.000922  f :     0.006203
      f+1     :     0.001130
      f-1     :     0.001313
      f+2     :     0.000664
      f-2     :     0.000681
      f+3     :     0.000763
      f-3     :     0.000731

 18 C s       :     3.219667  s :     3.219667
      pz      :     0.986298  p :     2.738300
      px      :     0.901347
      py      :     0.850655
      dz2     :     0.027060  d :     0.101287
      dxz     :     0.010614
      dyz     :     0.018763
      dx2y2   :     0.023860
      dxy     :     0.020990
      f0      :     0.000633  f :     0.009368
      f+1     :     0.000762
      f-1     :     0.002189
      f+2     :     0.001248
      f-2     :     0.001268
      f+3     :     0.001477
      f-3     :     0.001791

 19 N s       :     3.626590  s :     3.626590
      pz      :     1.086650  p :     3.554471
      px      :     1.207240
      py      :     1.260581
      dz2     :     0.013971  d :     0.059837
      dxz     :     0.012436
      dyz     :     0.013545
      dx2y2   :     0.010721
      dxy     :     0.009164
      f0      :     0.000731  f :     0.003675
      f+1     :     0.000561
      f-1     :     0.000906
      f+2     :     0.000414
      f-2     :     0.000436
      f+3     :     0.000256
      f-3     :     0.000371

 20 H s       :     0.834831  s :     0.834831
      pz      :     0.003021  p :     0.019572
      px      :     0.012752
      py      :     0.003799

 21 H s       :     0.834745  s :     0.834745
      pz      :     0.008749  p :     0.019719
      px      :     0.007088
      py      :     0.003882

 22 H s       :     0.790125  s :     0.790125
      pz      :     0.012308  p :     0.020504
      px      :     0.004670
      py      :     0.003526

 23 H s       :     0.788442  s :     0.788442
      pz      :     0.008848  p :     0.021372
      px      :     0.008985
      py      :     0.003540

 24 H s       :     0.836165  s :     0.836165
      pz      :     0.011988  p :     0.019676
      px      :     0.003836
      py      :     0.003853

 25 H s       :     0.787865  s :     0.787865
      pz      :     0.013766  p :     0.020906
      px      :     0.003220
      py      :     0.003920

 26 H s       :     0.823917  s :     0.823917
      pz      :     0.005678  p :     0.019758
      px      :     0.007515
      py      :     0.006565

 27 H s       :     0.830251  s :     0.830251
      pz      :     0.005180  p :     0.019864
      px      :     0.005578
      py      :     0.009106

 28 H s       :     0.834132  s :     0.834132
      pz      :     0.013386  p :     0.019578
      px      :     0.003313
      py      :     0.002878

 29 H s       :     0.787492  s :     0.787492
      pz      :     0.013869  p :     0.020881
      px      :     0.003415
      py      :     0.003597

 30 H s       :     0.824009  s :     0.824009
      pz      :     0.005592  p :     0.019756
      px      :     0.006212
      py      :     0.007953

 31 H s       :     0.830263  s :     0.830263
      pz      :     0.005302  p :     0.019879
      px      :     0.004623
      py      :     0.009953

 32 H s       :     0.834044  s :     0.834044
      pz      :     0.013437  p :     0.019591
      px      :     0.003595
      py      :     0.002558



                     *******************************
                     * LOEWDIN POPULATION ANALYSIS *
                     *******************************

----------------------
LOEWDIN ATOMIC CHARGES
----------------------
   0 C :   -0.133283
   1 C :   -0.143045
   2 C :   -0.119485
   3 C :   -0.235222
   4 C :   -0.117683
   5 C :   -0.141228
   6 P :    0.698981
   7 O :   -0.316006
   8 C :   -0.295900
   9 C :   -0.124790
  10 C :   -0.116265
  11 C :   -0.142608
  12 C :   -0.194497
  13 N :    0.139836
  14 C :   -0.295892
  15 C :   -0.124928
  16 C :   -0.116230
  17 C :   -0.142655
  18 C :   -0.194603
  19 N :    0.139671
  20 H :    0.147316
  21 H :    0.147941
  22 H :    0.159524
  23 H :    0.157421
  24 H :    0.147867
  25 H :    0.163055
  26 H :    0.151819
  27 H :    0.150433
  28 H :    0.142587
  29 H :    0.163099
  30 H :    0.151816
  31 H :    0.150388
  32 H :    0.142566

-------------------------------
LOEWDIN REDUCED ORBITAL CHARGES
-------------------------------
  0 C s       :     2.779872  s :     2.779872
      pz      :     1.068464  p :     2.937478
      px      :     0.995518
      py      :     0.873496
      dz2     :     0.129957  d :     0.375543
      dxz     :     0.107564
      dyz     :     0.075263
      dx2y2   :     0.047945
      dxy     :     0.014814
      f0      :     0.010467  f :     0.040390
      f+1     :     0.009539
      f-1     :     0.003866
      f+2     :     0.006478
      f-2     :     0.006388
      f+3     :     0.002672
      f-3     :     0.000980

  1 C s       :     2.777606  s :     2.777606
      pz      :     1.024773  p :     2.952881
      px      :     1.033900
      py      :     0.894208
      dz2     :     0.081085  d :     0.372122
      dxz     :     0.161638
      dyz     :     0.038221
      dx2y2   :     0.045364
      dxy     :     0.045814
      f0      :     0.009583  f :     0.040436
      f+1     :     0.008662
      f-1     :     0.004963
      f+2     :     0.006768
      f-2     :     0.001515
      f+3     :     0.004528
      f-3     :     0.004416

  2 C s       :     2.776128  s :     2.776128
      pz      :     1.008856  p :     2.921135
      px      :     1.050497
      py      :     0.861781
      dz2     :     0.100749  d :     0.381112
      dxz     :     0.127158
      dyz     :     0.020685
      dx2y2   :     0.061574
      dxy     :     0.070947
      f0      :     0.007978  f :     0.041110
      f+1     :     0.008557
      f-1     :     0.001995
      f+2     :     0.008006
      f-2     :     0.005190
      f+3     :     0.004956
      f-3     :     0.004428

  3 C s       :     2.768127  s :     2.768127
      pz      :     1.067516  p :     2.989938
      px      :     1.022130
      py      :     0.900292
      dz2     :     0.138352  d :     0.433579
      dxz     :     0.125663
      dyz     :     0.076353
      dx2y2   :     0.061460
      dxy     :     0.031752
      f0      :     0.011123  f :     0.043578
      f+1     :     0.010280
      f-1     :     0.003713
      f+2     :     0.007387
      f-2     :     0.006234
      f+3     :     0.002764
      f-3     :     0.002076

  4 C s       :     2.778132  s :     2.778132
      pz      :     1.022665  p :     2.921880
      px      :     1.044818
      py      :     0.854397
      dz2     :     0.081052  d :     0.376740
      dxz     :     0.158566
      dyz     :     0.041059
      dx2y2   :     0.046129
      dxy     :     0.049935
      f0      :     0.009528  f :     0.040931
      f+1     :     0.008546
      f-1     :     0.005320
      f+2     :     0.006693
      f-2     :     0.001656
      f+3     :     0.004575
      f-3     :     0.004612

  5 C s       :     2.777750  s :     2.777750
      pz      :     1.000639  p :     2.950984
      px      :     1.056781
      py      :     0.893564
      dz2     :     0.102254  d :     0.372165
      dxz     :     0.126417
      dyz     :     0.019451
      dx2y2   :     0.060042
      dxy     :     0.064001
      f0      :     0.008167  f :     0.040330
      f+1     :     0.008430
      f-1     :     0.001914
      f+2     :     0.007869
      f-2     :     0.004635
      f+3     :     0.005033
      f-3     :     0.004282

  6 P s       :     4.653881  s :     4.653881
      pz      :     2.713625  p :     8.274225
      px      :     2.782571
      py      :     2.778029
      dz2     :     0.232524  d :     1.157635
      dxz     :     0.275169
      dyz     :     0.323112
      dx2y2   :     0.182544
      dxy     :     0.144286
      f0      :     0.042192  f :     0.215278
      f+1     :     0.049225
      f-1     :     0.048755
      f+2     :     0.020143
      f-2     :     0.024442
      f+3     :     0.012595
      f-3     :     0.017926

  7 O s       :     3.539502  s :     3.539502
      pz      :     1.530141  p :     4.732958
      px      :     1.598311
      py      :     1.604507
      dz2     :     0.023213  d :     0.041447
      dxz     :     0.009499
      dyz     :     0.007755
      dx2y2   :     0.000461
      dxy     :     0.000520
      f0      :     0.001020  f :     0.002099
      f+1     :     0.000532
      f-1     :     0.000423
      f+2     :     0.000077
      f-2     :     0.000041
      f+3     :     0.000005
      f-3     :     0.000002

  8 C s       :     2.783461  s :     2.783461
      pz      :     0.991327  p :     2.909853
      px      :     0.947139
      py      :     0.971386
      dz2     :     0.142747  d :     0.540783
      dxz     :     0.144083
      dyz     :     0.145421
      dx2y2   :     0.053468
      dxy     :     0.055064
      f0      :     0.011645  f :     0.061803
      f+1     :     0.016241
      f-1     :     0.015451
      f+2     :     0.005827
      f-2     :     0.005170
      f+3     :     0.004040
      f-3     :     0.003428

  9 C s       :     2.780470  s :     2.780470
      pz      :     1.004884  p :     2.937960
      px      :     0.950199
      py      :     0.982876
      dz2     :     0.103017  d :     0.365377
      dxz     :     0.050325
      dyz     :     0.072915
      dx2y2   :     0.067127
      dxy     :     0.071993
      f0      :     0.003483  f :     0.040984
      f+1     :     0.006221
      f-1     :     0.008102
      f+2     :     0.007125
      f-2     :     0.006231
      f+3     :     0.005199
      f-3     :     0.004622

 10 C s       :     2.781247  s :     2.781247
      pz      :     1.038840  p :     2.916496
      px      :     0.915674
      py      :     0.961982
      dz2     :     0.091873  d :     0.377336
      dxz     :     0.088814
      dyz     :     0.111686
      dx2y2   :     0.034077
      dxy     :     0.050886
      f0      :     0.006741  f :     0.041185
      f+1     :     0.008093
      f-1     :     0.010597
      f+2     :     0.003666
      f-2     :     0.004272
      f+3     :     0.003730
      f-3     :     0.004086

 11 C s       :     2.784222  s :     2.784222
      pz      :     1.043040  p :     2.957751
      px      :     0.953619
      py      :     0.961093
      dz2     :     0.089799  d :     0.360351
      dxz     :     0.092562
      dyz     :     0.101144
      dx2y2   :     0.033980
      dxy     :     0.042866
      f0      :     0.006643  f :     0.040284
      f+1     :     0.008908
      f-1     :     0.008981
      f+2     :     0.003851
      f-2     :     0.004572
      f+3     :     0.004309
      f-3     :     0.003020

 12 C s       :     2.790459  s :     2.790459
      pz      :     0.981982  p :     2.866493
      px      :     0.936223
      py      :     0.948289
      dz2     :     0.140614  d :     0.478865
      dxz     :     0.057434
      dyz     :     0.084250
      dx2y2   :     0.090104
      dxy     :     0.106463
      f0      :     0.004088  f :     0.058680
      f+1     :     0.008756
      f-1     :     0.012912
      f+2     :     0.009495
      f-2     :     0.008070
      f+3     :     0.008412
      f-3     :     0.006948

 13 N s       :     3.048330  s :     3.048330
      pz      :     1.217282  p :     3.575611
      px      :     1.177654
      py      :     1.180675
      dz2     :     0.062952  d :     0.218347
      dxz     :     0.046365
      dyz     :     0.058293
      dx2y2   :     0.024331
      dxy     :     0.026406
      f0      :     0.003322  f :     0.017876
      f+1     :     0.003505
      f-1     :     0.004509
      f+2     :     0.001518
      f-2     :     0.001870
      f+3     :     0.001515
      f-3     :     0.001639

 14 C s       :     2.783583  s :     2.783583
      pz      :     0.991636  p :     2.909914
      px      :     0.915842
      py      :     1.002436
      dz2     :     0.141470  d :     0.540617
      dxz     :     0.123484
      dyz     :     0.168817
      dx2y2   :     0.058464
      dxy     :     0.048383
      f0      :     0.011622  f :     0.061777
      f+1     :     0.013936
      f-1     :     0.018180
      f+2     :     0.005292
      f-2     :     0.005267
      f+3     :     0.004059
      f-3     :     0.003422

 15 C s       :     2.780459  s :     2.780459
      pz      :     1.005741  p :     2.938072
      px      :     0.920123
      py      :     1.012208
      dz2     :     0.104598  d :     0.365415
      dxz     :     0.037405
      dyz     :     0.084617
      dx2y2   :     0.067229
      dxy     :     0.071565
      f0      :     0.003481  f :     0.040983
      f+1     :     0.004141
      f-1     :     0.010235
      f+2     :     0.007065
      f-2     :     0.006301
      f+3     :     0.005665
      f-3     :     0.004095

 16 C s       :     2.781259  s :     2.781259
      pz      :     1.040862  p :     2.916446
      px      :     0.890371
      py      :     0.985212
      dz2     :     0.093347  d :     0.377339
      dxz     :     0.075067
      dyz     :     0.125645
      dx2y2   :     0.031932
      dxy     :     0.051348
      f0      :     0.006720  f :     0.041186
      f+1     :     0.006903
      f-1     :     0.012013
      f+2     :     0.004024
      f-2     :     0.003863
      f+3     :     0.004284
      f-3     :     0.003378

 17 C s       :     2.784234  s :     2.784234
      pz      :     1.043261  p :     2.957810
      px      :     0.932470
      py      :     0.982079
      dz2     :     0.089116  d :     0.360325
      dxz     :     0.077749
      dyz     :     0.117342
      dx2y2   :     0.039808
      dxy     :     0.036310
      f0      :     0.006676  f :     0.040286
      f+1     :     0.007574
      f-1     :     0.010464
      f+2     :     0.003711
      f-2     :     0.004460
      f+3     :     0.004271
      f-3     :     0.003130

 18 C s       :     2.790462  s :     2.790462
      pz      :     0.981915  p :     2.866508
      px      :     0.908849
      py      :     0.975745
      dz2     :     0.142681  d :     0.478952
      dxz     :     0.042814
      dyz     :     0.097693
      dx2y2   :     0.092976
      dxy     :     0.102788
      f0      :     0.004126  f :     0.058680
      f+1     :     0.005533
      f-1     :     0.016218
      f+2     :     0.009383
      f-2     :     0.008286
      f+3     :     0.009198
      f-3     :     0.005936

 19 N s       :     3.048385  s :     3.048385
      pz      :     1.215701  p :     3.575730
      px      :     1.117865
      py      :     1.242164
      dz2     :     0.063601  d :     0.218341
      dxz     :     0.042519
      dyz     :     0.062855
      dx2y2   :     0.024126
      dxy     :     0.025240
      f0      :     0.003319  f :     0.017872
      f+1     :     0.003023
      f-1     :     0.005069
      f+2     :     0.001793
      f-2     :     0.001601
      f+3     :     0.001532
      f-3     :     0.001534

 20 H s       :     0.797072  s :     0.797072
      pz      :     0.010720  p :     0.055612
      px      :     0.033045
      py      :     0.011847

 21 H s       :     0.796168  s :     0.796168
      pz      :     0.023838  p :     0.055891
      px      :     0.019902
      py      :     0.012151

 22 H s       :     0.782134  s :     0.782134
      pz      :     0.032921  p :     0.058341
      px      :     0.014011
      py      :     0.011410

 23 H s       :     0.781843  s :     0.781843
      pz      :     0.024930  p :     0.060736
      px      :     0.024200
      py      :     0.011607

 24 H s       :     0.796357  s :     0.796357
      pz      :     0.031237  p :     0.055776
      px      :     0.012446
      py      :     0.012093

 25 H s       :     0.777589  s :     0.777589
      pz      :     0.036127  p :     0.059356
      px      :     0.010871
      py      :     0.012358

 26 H s       :     0.792453  s :     0.792453
      pz      :     0.016748  p :     0.055728
      px      :     0.020518
      py      :     0.018461

 27 H s       :     0.793055  s :     0.793055
      pz      :     0.015595  p :     0.056512
      px      :     0.016370
      py      :     0.024547

 28 H s       :     0.802666  s :     0.802666
      pz      :     0.034586  p :     0.054746
      px      :     0.010688
      py      :     0.009473

 29 H s       :     0.777551  s :     0.777551
      pz      :     0.036384  p :     0.059351
      px      :     0.011337
      py      :     0.011630

 30 H s       :     0.792455  s :     0.792455
      pz      :     0.016517  p :     0.055729
      px      :     0.017398
      py      :     0.021814

 31 H s       :     0.793079  s :     0.793079
      pz      :     0.015881  p :     0.056534
      px      :     0.014046
      py      :     0.026607

 32 H s       :     0.802682  s :     0.802682
      pz      :     0.034709  p :     0.054752
      px      :     0.011316
      py      :     0.008727



                      *****************************
                      * MAYER POPULATION ANALYSIS *
                      *****************************

  NA   - Mulliken gross atomic population
  ZA   - Total nuclear charge
  QA   - Mulliken gross atomic charge
  VA   - Mayer's total valence
  BVA  - Mayer's bonded valence
  FA   - Mayer's free valence

  ATOM       NA         ZA         QA         VA         BVA        FA
  0 C      6.1363     6.0000    -0.1363     3.9461     3.9461    -0.0000
  1 C      6.1377     6.0000    -0.1377     3.9155     3.9155    -0.0000
  2 C      6.1683     6.0000    -0.1683     3.9439     3.9439    -0.0000
  3 C      6.0647     6.0000    -0.0647     3.7981     3.7981    -0.0000
  4 C      6.1571     6.0000    -0.1571     3.9222     3.9222    -0.0000
  5 C      6.1410     6.0000    -0.1410     3.9207     3.9207    -0.0000
  6 P     14.3167    15.0000     0.6833     4.8884     4.8884    -0.0000
  7 O      8.6168     8.0000    -0.6168     1.9652     1.9652    -0.0000
  8 C      5.9574     6.0000     0.0426     3.7700     3.7700    -0.0000
  9 C      6.1720     6.0000    -0.1720     3.9462     3.9462     0.0000
 10 C      6.1004     6.0000    -0.1004     3.9089     3.9089    -0.0000
 11 C      6.1372     6.0000    -0.1372     3.8582     3.8582    -0.0000
 12 C      6.0680     6.0000    -0.0680     4.0147     4.0147    -0.0000
 13 N      7.2457     7.0000    -0.2457     2.9697     2.9697    -0.0000
 14 C      5.9621     6.0000     0.0379     3.7704     3.7704    -0.0000
 15 C      6.1707     6.0000    -0.1707     3.9466     3.9466    -0.0000
 16 C      6.1011     6.0000    -0.1011     3.9084     3.9084    -0.0000
 17 C      6.1362     6.0000    -0.1362     3.8563     3.8563    -0.0000
 18 C      6.0686     6.0000    -0.0686     4.0147     4.0147     0.0000
 19 N      7.2446     7.0000    -0.2446     2.9694     2.9694     0.0000
 20 H      0.8544     1.0000     0.1456     0.9633     0.9633    -0.0000
 21 H      0.8545     1.0000     0.1455     0.9664     0.9664    -0.0000
 22 H      0.8106     1.0000     0.1894     0.9719     0.9719    -0.0000
 23 H      0.8098     1.0000     0.1902     0.9904     0.9904    -0.0000
 24 H      0.8558     1.0000     0.1442     0.9656     0.9656    -0.0000
 25 H      0.8088     1.0000     0.1912     0.9747     0.9747     0.0000
 26 H      0.8437     1.0000     0.1563     0.9631     0.9631    -0.0000
 27 H      0.8501     1.0000     0.1499     0.9644     0.9644    -0.0000
 28 H      0.8537     1.0000     0.1463     0.9605     0.9605    -0.0000
 29 H      0.8084     1.0000     0.1916     0.9743     0.9743    -0.0000
 30 H      0.8438     1.0000     0.1562     0.9631     0.9631    -0.0000
 31 H      0.8501     1.0000     0.1499     0.9644     0.9644    -0.0000
 32 H      0.8536     1.0000     0.1464     0.9605     0.9605     0.0000

  Mayer bond orders larger than 0.100000
B(  0-C ,  1-C ) :   1.4420 B(  0-C ,  5-C ) :   1.4331 B(  0-C , 20-H ) :   0.9471 
B(  1-C ,  2-C ) :   1.4351 B(  1-C , 21-H ) :   0.9505 B(  2-C ,  3-C ) :   1.3964 
B(  2-C , 22-H ) :   0.9082 B(  3-C ,  4-C ) :   1.4041 B(  3-C ,  6-P ) :   0.9374 
B(  4-C ,  5-C ) :   1.4438 B(  4-C , 23-H ) :   0.9028 B(  5-C , 24-H ) :   0.9485 
B(  6-P ,  7-O ) :   1.9280 B(  6-P ,  8-C ) :   0.9000 B(  6-P , 14-C ) :   0.8985 
B(  8-C ,  9-C ) :   1.4222 B(  8-C , 13-N ) :   1.3218 B(  9-C , 10-C ) :   1.4187 
B(  9-C , 25-H ) :   0.9099 B( 10-C , 11-C ) :   1.4378 B( 10-C , 26-H ) :   0.9489 
B( 11-C , 12-C ) :   1.3808 B( 11-C , 27-H ) :   0.9494 B( 12-C , 13-N ) :   1.5081 
B( 12-C , 28-H ) :   0.9709 B( 14-C , 15-C ) :   1.4230 B( 14-C , 19-N ) :   1.3224 
B( 15-C , 16-C ) :   1.4185 B( 15-C , 29-H ) :   0.9095 B( 16-C , 17-C ) :   1.4365 
B( 16-C , 30-H ) :   0.9493 B( 17-C , 18-C ) :   1.3807 B( 17-C , 31-H ) :   0.9494 
B( 18-C , 19-N ) :   1.5076 B( 18-C , 32-H ) :   0.9708 

-------
TIMINGS
-------

Total SCF time: 0 days 0 hours 2 min 2 sec 

Total time                  ....     122.671 sec
Sum of individual times     ....     122.690 sec  (100.0%)

SCF preparation             ....       0.319 sec  (  0.3%)
Fock matrix formation       ....     118.745 sec  ( 96.8%)
  Startup                   ....       0.133 sec  (  0.1% of F)
  Split-RI-J                ....       8.501 sec  (  7.2% of F)
  Chain of spheres X        ....      84.173 sec  ( 70.9% of F)
  XC integration            ....      25.589 sec  ( 21.5% of F)
    Basis function eval.    ....       3.837 sec  ( 15.0% of XC)
    Density eval.           ....      10.822 sec  ( 42.3% of XC)
    XC-Functional eval.     ....       0.434 sec  (  1.7% of XC)
    XC-Potential eval.      ....       9.608 sec  ( 37.5% of XC)
Diagonalization             ....       0.000 sec  (  0.0%)
Density matrix formation    ....       0.337 sec  (  0.3%)
Total Energy calculation    ....       0.115 sec  (  0.1%)
Population analysis         ....       0.194 sec  (  0.2%)
Orbital Transformation      ....       0.422 sec  (  0.3%)
Orbital Orthonormalization  ....       0.000 sec  (  0.0%)
DIIS solution               ....       1.767 sec  (  1.4%)
SOSCF solution              ....       0.791 sec  (  0.6%)
Finished LeanSCF after 122.7 sec

Maximum memory used throughout the entire LEANSCF-calculation: 95.4 MB


-------------------------------------------------------------------------------
                          DFT DISPERSION CORRECTION                            
                                                                               
                              DFTD3 V3.1  Rev 1                                
                              USING zero damping                               
-------------------------------------------------------------------------------
The M062X functional is recognized
Active option DFTDOPT                   ...         3   

molecular C6(AA) [au] = 16248.295755 


            DFT-D V3
 parameters
 s6 scaling factor         :     1.0000 
 rs6 scaling factor        :     1.6190 
 s8 scaling factor         :     0.0000 
 rs8 scaling factor        :     1.0000 
 Damping factor alpha6     :    14.0000 
 Damping factor alpha8     :    16.0000 
 ad hoc parameters k1-k3   :    16.0000     1.3333    -4.0000 

 Edisp/kcal,au: -1.311766207890  -0.002090432292 
 E6   /kcal   :  -1.311766208 
 E8   /kcal   :  -0.000000000 
 % E8         :   0.000000000 

-------------------------   ----------------
Dispersion correction           -0.002090432
-------------------------   ----------------


-------------------------   --------------------
FINAL SINGLE POINT ENERGY     -1143.594298993499
-------------------------   --------------------



           ************************************************************
           *        Program running with 6 parallel MPI-processes     *
           *              working on a common directory               *
           ************************************************************

------------------------------------------------------------------------------
                              ORCA PROPERTY CALCULATIONS
------------------------------------------------------------------------------

GBWName                                 ... data/single_point_PO_M06-2x/603962/603962.gbw
Number of atoms                         ...     33
Number of basis functions               ...    704
Max core memory                         ...   1024 MB

Electric properties:
Dipole moment                           ... YES
Quadrupole moment                       ...  NO
Static polarizability (Dipole/Dipole)   ...  NO
Static polarizability (Dipole/Quad.)    ...  NO
Static polarizability (Quad./Quad.)     ...  NO
Static polarizability (Velocity)        ...  NO

Atomic electric properties:
Dipole moment                           ...  NO
Quadrupole moment                       ...  NO
Static polarizability                   ...  NO

Choice of electric origin               ... Center of mass
Position of electric origin             ...    -0.098338     0.010189    -0.269547

General magnetic properties:
Magnetizability                         ...  NO

EPR properties:
g-Tensor (aka g-matrix)                 ...  NO
Zero-Field splitting spin-orbit         ...  NO
Zero-field splitting spin-spin          ...  NO
Hyperfine couplings                     ...  NO (   0 nuclei)
Quadrupole couplings                    ...  NO (   0 nuclei)
Contact density                         ...  NO (   0 nuclei)

NMR properties:
Chemical shifts                         ...  NO (   0 nuclei)
Spin-rotation constants                 ...  NO (   0 nuclei)
Spin-spin couplings                     ...  NO (   0 nuclei,    0 pairs)

Choice of magnetic origin               ... GIAO
Position of magnetic origin             ...     0.000000     0.000000     0.000000

Properties with geometric perturbations:
SCF Hessian                             ...  NO
IR spectrum                             ...  NO
VCD spectrum                            ...  NO
X-ray spectroscopy properties:
SCF XES/XAS/RIXS spectra                ...  NO


-------------
DIPOLE MOMENT
-------------

Method             : SCF
Type of density    : Electron Density
Multiplicity       :   1
Irrep              :   0
Energy             : -1143.5922085612075989 Eh
Relativity type    : 
Basis              : AO
                                X                 Y                 Z
Electronic contribution:     -1.953173469       0.183030919      -2.701639352
Nuclear contribution   :      1.313091047      -0.135518973       3.742865449
                        -----------------------------------------
Total Dipole Moment    :     -0.640082423       0.047511946       1.041226098
                        -----------------------------------------
Magnitude (a.u.)       :      1.223157668
Magnitude (Debye)      :      3.109019713



--------------------
Rotational spectrum 
--------------------
 
Rotational constants in cm-1:             0.011015             0.010467             0.007205 
Rotational constants in MHz :           330.227546           313.780581           216.015426 

Dipole components along the rotational axes: 
x,y,z [a.u.] :     0.788803     0.001408     0.934828 
x,y,z [Debye]:     2.004977     0.003579     2.376144 

 

Dipole moment calculation done in   0.0 sec 

Maximum memory used throughout the entire PROP-calculation: 51.7 MB

--------------------------------
SUGGESTED CITATIONS FOR THIS RUN
--------------------------------

Below you find a list of papers that are relevant to this ORCA run
We neither can nor want to force you to cite these papers, but we appreciate if you do
You receive ORCA, which is the product of decades of hard work by many enthusiastic individuals, for free
The only thing we kindly ask in return is that you cite our papers,
We deeply appreciate it, if you show your appreciation for ORCA by not just citing the generic ORCA reference.

Please note that relegating all ORCA citations to the supporting information does *not* help us.
SI sections are not indexed - citations you put there will not count into any citation statistics
But we need these citations in order to attract the funding resources that allow us to do what we are doing

Therefore, if you are a happy ORCA user, please consider citing a few of the papers listed below in the main body of your paper

In addition to the list printed below, the program has created the file data/single_point_PO_M06-2x/603962/603962.bibtex that contains the list in bibtex format
You can import this file easily into all common literature databanks and citation aid programs


List of essential papers. We consider these as the minimum necessary citations

  1. Neese,F.
     Software update: the ORCA program system, version 5.0
     WIRES Comput. Molec. Sci., 2022 12(1)e1606
     doi.org/10.1002/wcms.1606

List of papers to cite with high priority. The work reported in these papers was absolutely
necessary for this run to complete.
Our perspective: the developers of density functionals and basis sets usually get cited in chemistry papers
Good! But without the algorithms to do something with them, the functionals or basis sets would not do anything.
Hence, in our opinion, the algorithm design and method developments papers are equally worthy of getting cited

  1. Neese,F.
     An improvement of the resolution of the identity approximation for the formation of the Coulomb matrix
     J. Comp. Chem., 2003 24(14)1740-1747
     doi.org/10.1002/jcc.10318
  2. Neese,F.; Wennmohs,F.; Hansen,A.; Becker,U.
     Efficient, approximate and parallel Hartree-Fock and hybrid DFT calculations. A 'chain-of-spheres' algorithm for the Hartree-Fock exchange
     Chem. Phys., 2009 356(1-3)98-109
     doi.org/10.1016/j.chemphys.2008.10.036
  3. Helmich-Paris,B.; de Souza,B.; Neese,F.; Izsák,R.
     An improved chain of spheres for exchange algorithm
     J. Chem. Phys., 2021 155 104109
     doi.org/doi: 10.1063/5.0058766.
  4. Neese,F.
     The SHARK Integral Generation and Digestion System
     J. Comp. Chem., 2022  1-16
     doi.org/10.1002/jcc.26942
  5. Grimme,S.; Antony,J.; Ehrlich,S.; Krieg,H.
     A consistent and accurate ab initio parametrization of density functional dispersion correction (DFT-D) for the 94 elements H-Pu
     J. Chem. Phys., 2010 132 154104-XXXX
     doi.org/10.1063/1.3382344

List of suggested additional citations. These are papers that are important in the 'surrounding' of 
of this run, or papers that preceded the highly important papers. If you like your results we are grateful for a citation.

  1. Izsak,R.; Neese,F.
     An overlap fitted chain of spheres exchange method
     J. Chem. Phys., 2011 135 144105
     doi.org/10.1063/1.3646921
  2. Izsak,R.; Hansen,A.; Neese,F.
     The resolution of identity and chain of spheres approximations for the LPNO-CCSD singles Fock term
     Molec. Phys., 2012 110 2413-2417
     doi.org/10.1080/00268976.2012.687466
  3. Neese,F.
     The ORCA program system
     WIRES Comput. Molec. Sci., 2012 2(1)73-78
     doi.org/10.1002/wcms.81
  4. Izsak,R.; Neese,F.; Klopper,W.
     Robust fitting techniques in the chain of spheres approximation to the Fock exchange: The role of the complementary space
     J. Chem. Phys., 2013 139 
     doi.org/10.1063/1.4819264
  5. Neese,F.
     Software update: the ORCA program system, version 4.0
     WIRES Comput. Molec. Sci., 2018 8(1)1-6
     doi.org/10.1002/wcms.1327
  6. Neese,F.; Wennmohs,F.; Becker,U.; Riplinger,C.
     The ORCA quantum chemistry program package
     J. Chem. Phys., 2020 152 Art. No. L224108
     doi.org/10.1063/5.0004608

List of optional additional citations

  1. Neese,F.
     Approximate second-order SCF convergence for spin unrestricted wavefunctions
     Chem. Phys. Lett., 2000 325(1-3)93-98
     doi.org/10.1016/s0009-2614(00)00662-x

Timings for individual modules:

Sum of individual times          ...      129.093 sec (=   2.152 min)
Startup calculation              ...        4.177 sec (=   0.070 min)   3.2 %
SCF iterations                   ...      124.622 sec (=   2.077 min)  96.5 %
Property calculations            ...        0.294 sec (=   0.005 min)   0.2 %
                             ****ORCA TERMINATED NORMALLY****
TOTAL RUN TIME: 0 days 0 hours 2 minutes 9 seconds 358 msec
