
                                 *****************
                                 * O   R   C   A *
                                 *****************

                                            #,                                       
                                            ###                                      
                                            ####                                     
                                            #####                                    
                                            ######                                   
                                           ########,                                 
                                     ,,################,,,,,                         
                               ,,#################################,,                 
                          ,,##########################################,,             
                       ,#########################################, ''#####,          
                    ,#############################################,,   '####,        
                  ,##################################################,,,,####,       
                ,###########''''           ''''###############################       
              ,#####''   ,,,,##########,,,,          '''####'''          '####       
            ,##' ,,,,###########################,,,                        '##       
           ' ,,###''''                  '''############,,,                           
         ,,##''                                '''############,,,,        ,,,,,,###''
      ,#''                                            '''#######################'''  
     '                                                          ''''####''''         
             ,#######,   #######,   ,#######,      ##                                
            ,#'     '#,  ##    ##  ,#'     '#,    #''#        ,####,   ,####,        
            ##       ##  ##   ,#'  ##            #'  '#       #'       #'  '#        
            ##       ##  #######   ##           ,######,      #####,   #    #        
            '#,     ,#'  ##    ##  '#,     ,#' ,#      #,     #,   #   #,  ,#        
             '#######'   ##     ##  '#######'  #'      '#     '####' # '####'        



                #########################################################
                #                        -***-                          #
                #          Department of theory and spectroscopy        #
                #                                                       #
                #                      Frank Neese                      #
                #                                                       #
                #     Directorship, Architecture, Infrastructure        #
                #                    SHARK, DRIVERS                     #
                #        Core code/Algorithms in most modules           #
                #                                                       #
                #        Max Planck Institute fuer Kohlenforschung      #
                #                Kaiser Wilhelm Platz 1                 #
                #                 D-45470 Muelheim/Ruhr                 #
                #                      Germany                          #
                #                                                       #
                #                  All rights reserved                  #
                #                        -***-                          #
                #########################################################


                         Program Version 6.0.0  -   RELEASE   -


 With contributions from (in alphabetic order):
   Daniel Aravena         : Magnetic Suceptibility
   Michael Atanasov       : Ab Initio Ligand Field Theory (pilot matlab implementation)
   Alexander A. Auer      : GIAO ZORA, VPT2 properties, NMR spectrum
   Ute Becker             : All parallelization in ORCA, NUMFREQ, NUMCALC
   Giovanni Bistoni       : ED, misc. LED, open-shell LED, HFLD
   Martin Brehm           : Molecular dynamics
   Dmytro Bykov           : pre 5.0 version of the SCF Hessian
   Marcos Casanova-Páez   : Triplet and SCS-CIS(D). UHF-(DLPNO)-IP/EA/STEOM-CCSD. UHF-CVS-IP/STEOM-CCSD
   Vijay G. Chilkuri      : MRCI spin determinant printing, contributions to CSF-ICE
   Pauline Colinet        : FMM embedding
   Dipayan Datta          : RHF DLPNO-CCSD density
   Achintya Kumar Dutta   : EOM-CC, STEOM-CC
   Nicolas Foglia         : Exact transition moments, OPA infrastructure, MCD improvements
   Dmitry Ganyushin       : Spin-Orbit,Spin-Spin,Magnetic field MRCI
   Miquel Garcia          : C-PCM and meta-GGA Hessian, CCSD/C-PCM, Gaussian charge scheme
   Tiago L. C. Gouveia    : GS-ROHF, GS-ROCIS
   Yang Guo               : DLPNO-NEVPT2, F12-NEVPT2, CIM, IAO-localization
   Andreas Hansen         : Spin unrestricted coupled pair/coupled cluster methods
   Ingolf Harden          : AUTO-CI MPn and infrastructure 
   Benjamin Helmich-Paris : MC-RPA, TRAH-(SCF,CASSCF), AVAS, COSX integrals, SCF dyn. polar.
   Lee Huntington         : MR-EOM, pCC
   Robert Izsak           : Overlap fitted RIJCOSX, COSX-SCS-MP3, EOM
   Riya Kayal             : Wick's Theorem for AUTO-CI, AUTO-CI UHF-CCSDT
   Emily Kempfer          : AUTO-CI, RHF CISDT and CCSDT
   Christian Kollmar      : KDIIS, OOCD, Brueckner-CCSD(T), CCSD density, CASPT2, CASPT2-K, improved NEVPT2
   Axel Koslowski         : Symmetry handling
   Simone Kossmann        : Meta GGA functionals, TD-DFT gradient, OOMP2, (MP2 Hessian; deprecated post 5.0)
   Lucas Lang             : DCDCAS
   Marvin Lechner         : AUTO-CI (C++ implementation), FIC-MRCC
   Spencer Leger          : CASSCF response
   Dagmar Lenk            : GEPOL surface, SMD, ORCA-2-JSON
   Dimitrios Liakos       : Extrapolation schemes; Compound Job, initial MDCI parallelization
   Dimitrios Manganas     : Further ROCIS development; embedding schemes. LFT, Crystal Embedding
   Dimitrios Pantazis     : SARC Basis sets
   Anastasios Papadopoulos: AUTO-CI, single reference methods and gradients
   Taras Petrenko         : pre 6.0 DFT Hessian and TD-DFT gradient, (ASA, deprecated), ECA, 1-Electron XAS/XES, NRVS
   Peter Pinski           : DLPNO-MP2, DLPNO-MP2 Gradient
   Christoph Reimann      : Effective Core Potentials
   Marius Retegan         : Local ZFS, SOC
   Christoph Riplinger    : Optimizer, TS searches, QM/MM, DLPNO-CCSD(T), (RO)-DLPNO pert. Triples
   Michael Roemelt        : Original ROCIS implementation
   Masaaki Saitow         : Open-shell DLPNO-CCSD energy and density
   Barbara Sandhoefer     : DKH picture change effects
   Kantharuban Sivalingam : CASSCF convergence/infrastructure, NEVPT2 and variants, FIC-MRCI
   Bernardo de Souza      : ESD, SOC TD-DFT
   Georgi Stoychev        : AutoAux, RI-MP2 NMR, DLPNO-MP2 response, X2C
   Van Anh Tran           : RI-MP2 g-tensors
   Willem Van den Heuvel  : Paramagnetic NMR
   Zikuan Wang            : NOTCH, Electric field optimization 
   Frank Wennmohs         : Technical directorship and infrastructure
   Hang Xu                : AUTO-CI-Response properties 


 We gratefully acknowledge several colleagues who have allowed us to
 interface, adapt or use parts of their codes:
   Stefan Grimme, W. Hujo, H. Kruse, P. Pracht,  : VdW corrections, initial TS optimization,
                  C. Bannwarth, S. Ehlert,         DFT functionals, gCP, sTDA/sTD-DF
                  L. Wittmann, M. Mueller
   Ed Valeev, F. Pavosevic, A. Kumar             : LibInt (2-el integral package), F12 methods
   Garnet Chan, S. Sharma, J. Yang, R. Olivares  : DMRG
   Ulf Ekstrom                                   : XCFun DFT Library
   Mihaly Kallay                                 : mrcc  (arbitrary order and MRCC methods)
   Frank Weinhold                                : gennbo (NPA and NBO analysis)
   Simon Mueller                                 : openCOSMO-RS
   Christopher J. Cramer and Donald G. Truhlar   : smd solvation model
   Lars Goerigk                                  : TD-DFT with DH, B97 family of functionals
   V. Asgeirsson, H. Jonsson                     : NEB implementation
   FAccTs GmbH                                   : IRC, NEB, NEB-TS, DLPNO-Multilevel, CI-OPT
                                                   MM, QMMM, 2- and 3-layer-ONIOM, Crystal-QMMM,
                                                   LR-CPCM, SF, NACMEs, symmetry and pop. for TD-DFT,
                                                   nearIR, NL-DFT gradient (VV10), updates on ESD,
                                                   ML-optimized integration grids, MBIS, APM,
                                                   GOAT, DOCKER, SOLVATOR, interface openCOSMO-RS
   S Lehtola, MJT Oliveira, MAL Marques          : LibXC Library
   Liviu Ungur et al                             : ANISO software


 Your calculation uses the libint2 library for the computation of 2-el integrals
 For citations please refer to: http://libint.valeyev.net

 Your ORCA version has been built with support for libXC version: 6.2.2
 For citations please refer to: https://libxc.gitlab.io

 This ORCA versions uses:
   CBLAS   interface :  Fast vector & matrix operations
   LAPACKE interface :  Fast linear algebra routines
   Shared memory     :  Shared parallel matrices


Your calculation utilizes the atom-pairwise dispersion correction
with the zero-damping scheme (D30)


XCFun DFT library Copyright 2009-2010 Ulf Ekstrom and contributors.
See http://admol.org/xcfun for more information.
This is free software; see the source code for copying conditions.
There is ABSOLUTELY NO WARRANTY; not even for MERCHANTABILITY or FITNESS FOR A PARTICULAR PURPOSE.
For details see the documentation.
Scientific users of this library should cite U. Ekstrom, L. Visscher, R. Bast, A. J. Thorvaldsen and K. Ruud;
J.Chem.Theor.Comp. 2010, DOI: 10.1021/ct100117s
XCFun Version 0.99 

Warning: RI is on but no J-basis has been assigned. Assigning Def2/J (nothing to worry about!)
================================================================================

----- Orbital basis set information -----
Your calculation utilizes the basis: def2-TZVP
   F. Weigend and R. Ahlrichs, Phys. Chem. Chem. Phys. 7, 3297 (2005).

----- AuxJ basis set information -----
Your calculation utilizes the auxiliary basis: def2/J
   F. Weigend, Phys. Chem. Chem. Phys. 8, 1057 (2006).

================================================================================
                                        WARNINGS
                       Please study these warnings very carefully!
================================================================================

WARNING: Functional chosen is sensitive to the integration grid.
         DEFGRID3 seems to be a minimum grid for robust results!

================================================================================
                                       INPUT FILE
================================================================================
NAME = data/single_point_PO_M06-2x/195868/195868.inp
|  1> ! RIJCOSX M062X def2-TZVP D3ZERO NormalSCF
|  2> %pal
|  3> nprocs 6
|  4> end
|  5> 
|  6> * xyz 0 1
|  7>   C          -3.60402778811050     -2.77813206125702      1.20133693905819
|  8>   C          -3.82936355026380     -2.52239868910258     -0.16249074006939
|  9>   C          -2.88930505791303     -1.79284706819063     -0.90591675520633
| 10>   C          -1.72078325038811     -1.31180089224789     -0.28049276215779
| 11>   C          -1.48616576093031     -1.58361445071549      1.08326493476036
| 12>   C          -2.43215478903679     -2.31251434696913      1.82195234646684
| 13>   P          -0.58317268239499     -0.34418440551474     -1.33806221683755
| 14>   O          -0.69185077642432     -0.67383156133230     -2.81643810870709
| 15>   C          -0.89277473695652      1.41567281069403     -0.95008270236165
| 16>   C          -0.64653673299948      2.33866459712146     -1.98702766371292
| 17>   C          -0.82411405480039      3.71091153752324     -1.75514233023004
| 18>   C          -1.24919777796993      4.16328088661196     -0.49360606544484
| 19>   C          -1.50963726181777      3.24238599356069      0.53549053678413
| 20>   C          -1.33858630949192      1.86724492554925      0.30854479697284
| 21>   C           1.09295015758434     -0.68806518951357     -0.66731783045853
| 22>   C           1.58365543400283     -0.08668516969381      0.50349983994705
| 23>   C           2.85287025104029     -0.46087982580813      0.96889060503771
| 24>   C           3.64725687036844     -1.40189686544429      0.29632596641215
| 25>   C           3.15412139809622     -1.97561051061425     -0.88740065071498
| 26>   C           1.88405187010071     -1.62121465687233     -1.36903017919735
| 27>   S           3.45691281832336      0.28358354222903      2.48654353396377
| 28>   O           2.30420506235276      0.57020649214413      3.34851327311196
| 29>   O           4.64383813469918     -0.46500159845502      2.94376983997094
| 30>   O           3.97600308082209      1.77378715473456      1.95639682606988
| 31>   H          -4.34180950429622     -3.35231415332973      1.78254371841084
| 32>   H          -4.74094227824980     -2.89904494531664     -0.65130582492835
| 33>   H          -3.03640930908020     -1.59672847148044     -1.97931584266475
| 34>   H          -0.56008380545234     -1.24336830947326      1.57160580978425
| 35>   H          -2.24773904120921     -2.52478141466007      2.88606758293249
| 36>   H          -0.32974856400527      1.96064460828216     -2.97141981636315
| 37>   H          -0.63401722135374      4.43249659409659     -2.56446589822370
| 38>   H          -1.38669545602839      5.24049235232250     -0.31342846392012
| 39>   H          -1.85519782430446      3.59533242099575      1.51898328318025
| 40>   H          -1.56899769430731      1.14596367003455      1.10768749191960
| 41>   H           0.99947621395254      0.66477446156192      1.05535003156456
| 42>   H           4.62836448410911     -1.67765827954249      0.70914804463192
| 43>   H           3.76543389536993     -2.70993959152106     -1.43337464626712
| 44>   H           1.48210764507529     -2.05518836779187     -2.29784037363637
| 45>   H           4.92806191188773      1.67225977738489      1.73835747012227
| 46> **                         ****END OF INPUT****
================================================================================

                       ****************************
                       * Single Point Calculation *
                       ****************************

---------------------------------
CARTESIAN COORDINATES (ANGSTROEM)
---------------------------------
  C     -3.604028   -2.778132    1.201337
  C     -3.829364   -2.522399   -0.162491
  C     -2.889305   -1.792847   -0.905917
  C     -1.720783   -1.311801   -0.280493
  C     -1.486166   -1.583614    1.083265
  C     -2.432155   -2.312514    1.821952
  P     -0.583173   -0.344184   -1.338062
  O     -0.691851   -0.673832   -2.816438
  C     -0.892775    1.415673   -0.950083
  C     -0.646537    2.338665   -1.987028
  C     -0.824114    3.710912   -1.755142
  C     -1.249198    4.163281   -0.493606
  C     -1.509637    3.242386    0.535491
  C     -1.338586    1.867245    0.308545
  C      1.092950   -0.688065   -0.667318
  C      1.583655   -0.086685    0.503500
  C      2.852870   -0.460880    0.968891
  C      3.647257   -1.401897    0.296326
  C      3.154121   -1.975611   -0.887401
  C      1.884052   -1.621215   -1.369030
  S      3.456913    0.283584    2.486544
  O      2.304205    0.570206    3.348513
  O      4.643838   -0.465002    2.943770
  O      3.976003    1.773787    1.956397
  H     -4.341810   -3.352314    1.782544
  H     -4.740942   -2.899045   -0.651306
  H     -3.036409   -1.596728   -1.979316
  H     -0.560084   -1.243368    1.571606
  H     -2.247739   -2.524781    2.886068
  H     -0.329749    1.960645   -2.971420
  H     -0.634017    4.432497   -2.564466
  H     -1.386695    5.240492   -0.313428
  H     -1.855198    3.595332    1.518983
  H     -1.568998    1.145964    1.107687
  H      0.999476    0.664774    1.055350
  H      4.628364   -1.677658    0.709148
  H      3.765434   -2.709940   -1.433375
  H      1.482108   -2.055188   -2.297840
  H      4.928062    1.672260    1.738357

----------------------------
CARTESIAN COORDINATES (A.U.)
----------------------------
  NO LB      ZA    FRAG     MASS         X           Y           Z
   0 C     6.0000    0    12.011   -6.810625   -5.249909    2.270198
   1 C     6.0000    0    12.011   -7.236448   -4.766643   -0.307063
   2 C     6.0000    0    12.011   -5.459995   -3.387990   -1.711935
   3 C     6.0000    0    12.011   -3.251809   -2.478944   -0.530055
   4 C     6.0000    0    12.011   -2.808446   -2.992598    2.047074
   5 C     6.0000    0    12.011   -4.596106   -4.370019    3.442991
   6 P    15.0000    0    30.974   -1.102037   -0.650414   -2.528571
   7 O     8.0000    0    15.999   -1.307408   -1.273357   -5.322297
   8 C     6.0000    0    12.011   -1.687100    2.675234   -1.795396
   9 C     6.0000    0    12.011   -1.221777    4.419436   -3.754938
  10 C     6.0000    0    12.011   -1.557350    7.012607   -3.316738
  11 C     6.0000    0    12.011   -2.360642    7.867461   -0.932780
  12 C     6.0000    0    12.011   -2.852801    6.127222    1.011930
  13 C     6.0000    0    12.011   -2.529562    3.528582    0.583065
  14 C     6.0000    0    12.011    2.065376   -1.300255   -1.261048
  15 C     6.0000    0    12.011    2.992675   -0.163811    0.951477
  16 C     6.0000    0    12.011    5.391143   -0.870937    1.830938
  17 C     6.0000    0    12.011    6.892317   -2.649201    0.559975
  18 C     6.0000    0    12.011    5.960426   -3.733363   -1.676944
  19 C     6.0000    0    12.011    3.560342   -3.063652   -2.587092
  20 S    16.0000    0    32.060    6.532618    0.535895    4.698886
  21 O     8.0000    0    15.999    4.354317    1.077534    6.327773
  22 O     8.0000    0    15.999    8.775582   -0.878726    5.562919
  23 O     8.0000    0    15.999    7.513557    3.351972    3.697054
  24 H     1.0000    0     1.008   -8.204831   -6.334956    3.368519
  25 H     1.0000    0     1.008   -8.959083   -5.478401   -1.230790
  26 H     1.0000    0     1.008   -5.737982   -3.017380   -3.740365
  27 H     1.0000    0     1.008   -1.058405   -2.349626    2.969905
  28 H     1.0000    0     1.008   -4.247611   -4.771145    5.453877
  29 H     1.0000    0     1.008   -0.623134    3.705081   -5.615170
  30 H     1.0000    0     1.008   -1.198119    8.376205   -4.846138
  31 H     1.0000    0     1.008   -2.620475    9.903095   -0.592294
  32 H     1.0000    0     1.008   -3.505816    6.794194    2.870462
  33 H     1.0000    0     1.008   -2.964976    2.165557    2.093226
  34 H     1.0000    0     1.008    1.888736    1.256242    1.994323
  35 H     1.0000    0     1.008    8.746341   -3.170315    1.340096
  36 H     1.0000    0     1.008    7.115639   -5.121044   -2.708686
  37 H     1.0000    0     1.008    2.800778   -3.883743   -4.342289
  38 H     1.0000    0     1.008    9.312687    3.160113    3.285020

--------------------------------
INTERNAL COORDINATES (ANGSTROEM)
--------------------------------
 C      0   0   0     0.000000000000     0.00000000     0.00000000
 C      1   0   0     1.405774413515     0.00000000     0.00000000
 C      2   1   0     1.403081528849   120.08183750     0.00000000
 C      3   2   1     1.409965889350   119.84367331   359.72568821
 C      4   3   2     1.410235098425   120.07109234     1.12178069
 C      5   4   3     1.404225548931   119.78060678   358.77595180
 P      4   3   2     1.829997983955   116.05587853   181.22360019
 O      7   4   3     1.518576126877   113.78717818   334.56478021
 C      7   4   3     1.828518240894   106.32109415   100.60847754
 C      9   7   4     1.409894267411   116.38777655   208.59279534
 C     10   9   7     1.402984739241   119.77829422   181.80442219
 C     11  10   9     1.405990023815   120.08348711   359.85349522
 C     12  11  10     1.405317026693   120.14863869   359.40778745
 C     13  12  11     1.404199328458   120.05333037     0.35920511
 C      7   4   3     1.837808423140   104.89799436   211.40712936
 C     15   7   4     1.404729017952   122.86636010   282.64415816
 C     16  15   7     1.402681880072   118.58199395   177.08493062
 C     17  16  15     1.403177238621   122.15021156     0.66183418
 C     18  17  16     1.404826909182   118.62182707     0.55781979
 C     19  18  17     1.403794867421   120.23739758   359.15697883
 S     17  16  15     1.795094298948   118.31702200   181.40606212
 O     21  17  16     1.467610206186   108.25542715    31.01267132
 O     21  17  16     1.475881876849   108.79489061   167.28632833
 O     21  17  16     1.664697281561   101.94268606   280.73826787
 H      1   2   3     1.100821627677   119.97868477   180.11434613
 H      2   1   3     1.100808051761   120.08579570   179.64189836
 H      3   2   1     1.101039402403   121.30897496   178.86445836
 H      5   4   3     1.100850596181   120.62164022   177.80394058
 H      6   5   4     1.100639683344   119.72391778   179.95372814
 H     10   9   7     1.101036677943   118.88462505     2.61514281
 H     11  10   9     1.100829885889   119.85197862   180.11420168
 H     12  11  10     1.100797039159   119.96543357   179.92401618
 H     13  12  11     1.100564066831   120.16094296   180.81130617
 H     14  13  12     1.100892866130   119.92097797   181.63389176
 H     16  15   7     1.100225237183   121.66701587   356.97562906
 H     18  17  16     1.099562902026   119.56291727   181.11833910
 H     19  18  17     1.100467978729   119.70665285   179.54330927
 H     20  19  18     1.101172429320   121.34156144   179.64050513
 H     24  21  17     0.981969952139   106.28903889   267.70521264

---------------------------
INTERNAL COORDINATES (A.U.)
---------------------------
 C      0   0   0     0.000000000000     0.00000000     0.00000000
 C      1   0   0     2.656528647617     0.00000000     0.00000000
 C      2   1   0     2.651439833089   120.08183750     0.00000000
 C      3   2   1     2.664449389043   119.84367331   359.72568821
 C      4   3   2     2.664958120467   120.07109234     1.12178069
 C      5   4   3     2.653601717734   119.78060678   358.77595180
 P      4   3   2     3.458195015303   116.05587853   181.22360019
 O      7   4   3     2.869692993309   113.78717818   334.56478021
 C      7   4   3     3.455398706170   106.32109415   100.60847754
 C      9   7   4     2.664314043191   116.38777655   208.59279534
 C     10   9   7     2.651256927237   119.77829422   181.80442219
 C     11  10   9     2.656936092035   120.08348711   359.85349522
 C     12  11  10     2.655664311787   120.14863869   359.40778745
 C     13  12  11     2.653552168222   120.05333037     0.35920511
 C      7   4   3     3.472954606348   104.89799436   211.40712936
 C     15   7   4     2.654553136302   122.86636010   282.64415816
 C     16  15   7     2.650684606351   118.58199395   177.08493062
 C     17  16  15     2.651620698345   122.15021156     0.66183418
 C     18  17  16     2.654738123918   118.62182707     0.55781979
 C     19  18  17     2.652787847631   120.23739758   359.15697883
 S     17  16  15     3.392236609576   118.31702200   181.40606212
 O     21  17  16     2.773381361038   108.25542715    31.01267132
 O     21  17  16     2.789012553263   108.79489061   167.28632833
 O     21  17  16     3.145821958033   101.94268606   280.73826787
 H      1   2   3     2.080251398606   119.97868477   180.11434613
 H      2   1   3     2.080225743844   120.08579570   179.64189836
 H      3   2   1     2.080662933198   121.30897496   178.86445836
 H      5   4   3     2.080306141145   120.62164022   177.80394058
 H      6   5   4     2.079907573646   119.72391778   179.95372814
 H     10   9   7     2.080657784715   118.88462505     2.61514281
 H     11  10   9     2.080267004366   119.85197862   180.11420168
 H     12  11  10     2.080204933042   119.96543357   179.92401618
 H     13  12  11     2.079764679145   120.16094296   180.81130617
 H     14  13  12     2.080386019774   119.92097797   181.63389176
 H     16  15   7     2.079124383904   121.66701587   356.97562906
 H     18  17  16     2.077872751848   119.56291727   181.11833910
 H     19  18  17     2.079583098947   119.70665285   179.54330927
 H     20  19  18     2.080914317639   121.34156144   179.64050513
 H     24  21  17     1.855654281282   106.28903889   267.70521264

---------------------
BASIS SET INFORMATION
---------------------
There are 5 groups of distinct atoms

 Group   1 Type C   : 11s6p2d1f contracted to 5s3p2d1f pattern {62111/411/11/1}
 Group   2 Type P   : 14s9p3d1f contracted to 5s5p2d1f pattern {73211/51111/21/1}
 Group   3 Type O   : 11s6p2d1f contracted to 5s3p2d1f pattern {62111/411/11/1}
 Group   4 Type S   : 14s9p3d1f contracted to 5s5p2d1f pattern {73211/51111/21/1}
 Group   5 Type H   : 5s1p contracted to 3s1p pattern {311/1}

Atom   0C    basis set group =>   1
Atom   1C    basis set group =>   1
Atom   2C    basis set group =>   1
Atom   3C    basis set group =>   1
Atom   4C    basis set group =>   1
Atom   5C    basis set group =>   1
Atom   6P    basis set group =>   2
Atom   7O    basis set group =>   3
Atom   8C    basis set group =>   1
Atom   9C    basis set group =>   1
Atom  10C    basis set group =>   1
Atom  11C    basis set group =>   1
Atom  12C    basis set group =>   1
Atom  13C    basis set group =>   1
Atom  14C    basis set group =>   1
Atom  15C    basis set group =>   1
Atom  16C    basis set group =>   1
Atom  17C    basis set group =>   1
Atom  18C    basis set group =>   1
Atom  19C    basis set group =>   1
Atom  20S    basis set group =>   4
Atom  21O    basis set group =>   3
Atom  22O    basis set group =>   3
Atom  23O    basis set group =>   3
Atom  24H    basis set group =>   5
Atom  25H    basis set group =>   5
Atom  26H    basis set group =>   5
Atom  27H    basis set group =>   5
Atom  28H    basis set group =>   5
Atom  29H    basis set group =>   5
Atom  30H    basis set group =>   5
Atom  31H    basis set group =>   5
Atom  32H    basis set group =>   5
Atom  33H    basis set group =>   5
Atom  34H    basis set group =>   5
Atom  35H    basis set group =>   5
Atom  36H    basis set group =>   5
Atom  37H    basis set group =>   5
Atom  38H    basis set group =>   5
---------------------------------
AUXILIARY/J BASIS SET INFORMATION
---------------------------------
There are 5 groups of distinct atoms

 Group   1 Type C   : 12s5p4d2f1g contracted to 6s4p3d1f1g pattern {711111/2111/211/2/1}
 Group   2 Type P   : 14s5p5d2f1g contracted to 8s4p3d1f1g pattern {71111111/2111/311/2/1}
 Group   3 Type O   : 12s5p4d2f1g contracted to 6s4p3d1f1g pattern {711111/2111/211/2/1}
 Group   4 Type S   : 14s5p5d2f1g contracted to 8s4p3d1f1g pattern {71111111/2111/311/2/1}
 Group   5 Type H   : 5s2p1d contracted to 3s1p1d pattern {311/2/1}

Atom   0C    basis set group =>   1
Atom   1C    basis set group =>   1
Atom   2C    basis set group =>   1
Atom   3C    basis set group =>   1
Atom   4C    basis set group =>   1
Atom   5C    basis set group =>   1
Atom   6P    basis set group =>   2
Atom   7O    basis set group =>   3
Atom   8C    basis set group =>   1
Atom   9C    basis set group =>   1
Atom  10C    basis set group =>   1
Atom  11C    basis set group =>   1
Atom  12C    basis set group =>   1
Atom  13C    basis set group =>   1
Atom  14C    basis set group =>   1
Atom  15C    basis set group =>   1
Atom  16C    basis set group =>   1
Atom  17C    basis set group =>   1
Atom  18C    basis set group =>   1
Atom  19C    basis set group =>   1
Atom  20S    basis set group =>   4
Atom  21O    basis set group =>   3
Atom  22O    basis set group =>   3
Atom  23O    basis set group =>   3
Atom  24H    basis set group =>   5
Atom  25H    basis set group =>   5
Atom  26H    basis set group =>   5
Atom  27H    basis set group =>   5
Atom  28H    basis set group =>   5
Atom  29H    basis set group =>   5
Atom  30H    basis set group =>   5
Atom  31H    basis set group =>   5
Atom  32H    basis set group =>   5
Atom  33H    basis set group =>   5
Atom  34H    basis set group =>   5
Atom  35H    basis set group =>   5
Atom  36H    basis set group =>   5
Atom  37H    basis set group =>   5
Atom  38H    basis set group =>   5


           ************************************************************
           *        Program running with 6 parallel MPI-processes     *
           *              working on a common directory               *
           ************************************************************
------------------------------------------------------------------------------
                             ORCA STARTUP CALCULATIONS
                           -- RI-GTO INTEGRALS CHOSEN --
------------------------------------------------------------------------------
------------------------------------------------------------------------------
                   ___                                                        
                  /   \      - P O W E R E D   B Y -                         
                 /     \                                                     
                 |  |  |   _    _      __       _____    __    __             
                 |  |  |  | |  | |    /  \     |  _  \  |  |  /  |          
                  \  \/   | |  | |   /    \    | | | |  |  | /  /          
                 / \  \   | |__| |  /  /\  \   | |_| |  |  |/  /          
                |  |  |   |  __  | /  /__\  \  |    /   |      \           
                |  |  |   | |  | | |   __   |  |    \   |  |\   \          
                \     /   | |  | | |  |  |  |  | |\  \  |  | \   \       
                 \___/    |_|  |_| |__|  |__|  |_| \__\ |__|  \__/        
                                                                              
                      - O R C A' S   B I G   F R I E N D -                    
                                      &                                       
                       - I N T E G R A L  F E E D E R -                       
                                                                              
 v1 FN, 2020, v2 2021, v3 2022-2024                                           
------------------------------------------------------------------------------


----------------------
SHARK INTEGRAL PACKAGE
----------------------

Number of atoms                             ...     39
Number of basis functions                   ...    846
Number of shells                            ...    328
Maximum angular momentum                    ...      3
Integral batch strategy                     ... SHARK/LIBINT Hybrid
RI-J (if used) integral strategy            ... SPLIT-RIJ (Revised 2003 algorithm where possible)
Printlevel                                  ...      1
Contraction scheme used                     ... SEGMENTED contraction
Prescreening option                         ... SCHWARTZ
   Thresh                                   ... 1.000e-10
   Tcut                                     ... 1.000e-11
   Tpresel                                  ... 1.000e-11 
Coulomb Range Separation                    ... NOT USED
Exchange Range Separation                   ... NOT USED
Multipole approximations                    ... NOT USED
Finite Nucleus Model                        ... NOT USED
CABS basis                                  ... NOT available
Auxiliary Coulomb fitting basis             ... AVAILABLE
   # of basis functions in Aux-J            ...   1345
   # of shells in Aux-J                     ...    439
   Maximum angular momentum in Aux-J        ...      4
Auxiliary J/K fitting basis                 ... NOT available
Auxiliary Correlation fitting basis         ... NOT available
Auxiliary 'external' fitting basis          ... NOT available

Checking pre-screening integrals            ... done (  0.0 sec) Dimension = 328
Check shell pair data                       ... done (  0.0 sec)
Shell pair information
Shell pair cut-off parameter TPreSel        ...   1.0e-11
Total number of shell pairs                 ...     53956
Shell pairs after pre-screening             ...     36106
Total number of primitive shell pairs       ...    171421
Primitive shell pairs kept                  ...     73619
          la=0 lb=0:   8796 shell pairs
          la=1 lb=0:  10530 shell pairs
          la=1 lb=1:   3178 shell pairs
          la=2 lb=0:   5039 shell pairs
          la=2 lb=1:   3111 shell pairs
          la=2 lb=2:    783 shell pairs
          la=3 lb=0:   2353 shell pairs
          la=3 lb=1:   1464 shell pairs
          la=3 lb=2:    692 shell pairs
          la=3 lb=3:    160 shell pairs

Calculating one electron integrals          ... done (  0.1 sec)
Calculating RI/J V-Matrix + Cholesky decomp.... done (  0.1 sec)
Calculating Nuclear repulsion               ... done (  0.0 sec) ENN=   2326.436991496929 Eh

Diagonalization of the overlap matrix:
Smallest eigenvalue                        ... 7.275e-06
Time for diagonalization                   ...    0.150 sec
Threshold for overlap eigenvalues          ... 1.000e-07
Number of eigenvalues below threshold      ... 0
Time for construction of square roots      ...    0.070 sec
Total time needed                          ...    0.227 sec

-------------------
DFT GRID GENERATION
-------------------

General Integration Accuracy     IntAcc      ... 4.388
Radial Grid Type                 RadialGrid  ... OptM3 with GC (2021)
Angular Grid (max. ang.)         AngularGrid ... 4 (Lebedev-302)
Angular grid pruning method      GridPruning ... 4 (adaptive)
Weight generation scheme         WeightScheme... mBecke (2022)
Basis function cutoff            BFCut       ... 1.0000e-10
Integration weight cutoff        WCut        ... 1.0000e-14
Partially contracted basis set               ... off
Rotationally invariant grid construction     ... off
Angular grids for H and He will be reduced by one unit

Total number of grid points                  ...   193996
Total number of batches                      ...     3051
Average number of points per batch           ...       63
Average number of grid points per atom       ...     4974

--------------------
COSX GRID GENERATION
--------------------

GRIDX 1
-------
General Integration Accuracy     IntAcc      ... 3.816
Radial Grid Type                 RadialGrid  ... OptM3 with GC (2021)
Angular Grid (max. ang.)         AngularGrid ... 1 (Lebedev-50)
Angular grid pruning method      GridPruning ... 4 (adaptive)
Weight generation scheme         WeightScheme... mBecke (2022)
Basis function cutoff            BFCut       ... 1.0000e-10
Integration weight cutoff        WCut        ... 1.0000e-14
Partially contracted basis set               ... on
Rotationally invariant grid construction     ... off
Angular grids for H and He will be reduced by one unit

Total number of grid points                  ...    26580
Total number of batches                      ...      226
Average number of points per batch           ...      117
Average number of grid points per atom       ...      682
UseSFitting                                  ... on

GRIDX 2
-------
General Integration Accuracy     IntAcc      ... 4.020
Radial Grid Type                 RadialGrid  ... OptM3 with GC (2021)
Angular Grid (max. ang.)         AngularGrid ... 2 (Lebedev-110)
Angular grid pruning method      GridPruning ... 4 (adaptive)
Weight generation scheme         WeightScheme... mBecke (2022)
Basis function cutoff            BFCut       ... 1.0000e-10
Integration weight cutoff        WCut        ... 1.0000e-14
Partially contracted basis set               ... on
Rotationally invariant grid construction     ... off
Angular grids for H and He will be reduced by one unit

Total number of grid points                  ...    53594
Total number of batches                      ...      438
Average number of points per batch           ...      122
Average number of grid points per atom       ...     1374
UseSFitting                                  ... on

GRIDX 3
-------
General Integration Accuracy     IntAcc      ... 4.338
Radial Grid Type                 RadialGrid  ... OptM3 with GC (2021)
Angular Grid (max. ang.)         AngularGrid ... 3 (Lebedev-194)
Angular grid pruning method      GridPruning ... 4 (adaptive)
Weight generation scheme         WeightScheme... mBecke (2022)
Basis function cutoff            BFCut       ... 1.0000e-10
Integration weight cutoff        WCut        ... 1.0000e-14
Partially contracted basis set               ... on
Rotationally invariant grid construction     ... off
Angular grids for H and He will be reduced by one unit

Total number of grid points                  ...   118423
Total number of batches                      ...      944
Average number of points per batch           ...      125
Average number of grid points per atom       ...     3036
UseSFitting                                  ... on
Initializing property integral containers    ... done (  0.0 sec)

SHARK setup successfully completed in   4.7 seconds

Maximum memory used throughout the entire STARTUP-calculation: 82.4 MB


           ************************************************************
           *        Program running with 6 parallel MPI-processes     *
           *              working on a common directory               *
           ************************************************************
-------------------------------------------------------------------------------
                                 ORCA GUESS
                   Start orbitals & Density for SCF / CASSCF
-------------------------------------------------------------------------------

------------
SCF SETTINGS
------------
Hamiltonian:
 Density Functional     Method          .... DFT(GTOs)
 Exchange Functional    Exchange        .... M062X
 Correlation Functional Correlation     .... M062X
 Gradients option       PostSCFGGA      .... off
 Hybrid DFT is turned on
   Fraction HF Exchange ScalHFX         ....  0.540000
   Scaling of DF-GGA-X  ScalDFX         ....  0.460000
   Scaling of DF-GGA-C  ScalDFC         ....  1.000000
   Scaling of DF-LDA-C  ScalLDAC        ....  1.000000
   Perturbative correction              ....  0.000000
 RI-approximation to the Coulomb term is turned on
   Number of AuxJ basis functions       .... 1345
   RIJ-COSX (HFX calculated with COS-X)).... on


General Settings:
 Integral files         IntName         .... data/single_point_PO_M06-2x/195868/195868
 Hartree-Fock type      HFTyp           .... RHF
 Total Charge           Charge          ....    0
 Multiplicity           Mult            ....    1
 Number of Electrons    NEL             ....  186
 Basis Dimension        Dim             ....  846
 Nuclear Repulsion      ENuc            ....   2326.4369914969 Eh

Convergence Acceleration:
 AO-DIIS                CNVDIIS         .... on
   Start iteration      DIISMaxIt       ....    12
   Startup error        DIISStart       ....  0.200000
   # of expansion vecs  DIISMaxEq       ....     5
   Bias factor          DIISBfac        ....   1.050
   Max. coefficient     DIISMaxC        ....  10.000
 MO-DIIS                CNVKDIIS        .... off
 Trust-Rad. Augm. Hess. CNVTRAH         .... auto
   Auto Start mean grad. ratio tolernc. ....  1.125000
   Auto Start start iteration           ....    50
   Auto Start num. interpolation iter.  ....    10
   Max. Number of Micro iterations      ....    24
   Max. Number of Macro iterations      .... Maxiter - #DIIS iter
   Number of Davidson start vectors     ....     2
   Converg. threshold    (grad. norm)   ....   5.000e-05
   Grad. Scal. Fac. for Micro threshold ....   0.100
   Minimum threshold for Micro iter.    ....   1.000e-02
   NR start threshold (gradient norm)   ....   1.000e-04
   Initial trust radius                 ....   0.400
   Minimum AH scaling param. (alpha)    ....   1.000
   Maximum AH scaling param. (alpha)    .... 1000.000
   Quad. conv. algorithm                .... NR
   White noise on init. David. guess    .... on
   Maximum white noise                  ....   0.010
   Pseudo random numbers                .... off
   Inactive MOs                         .... canonical
   Orbital update algorithm             .... Taylor
   Preconditioner                       .... Diag
   Full preconditioner red. dimension   ....   250
 SOSCF                  CNVSOSCF        .... on
   Start iteration      SOSCFMaxIt      ....   150
   Startup grad/error   SOSCFStart      ....  0.003300
   Hessian update       SOSCFHessUp     .... L-BFGS
 Level Shifting         CNVShift        .... on
   Level shift para.    LevelShift      ....    0.2500
   Turn off err/grad.   ShiftErr        ....    0.0010
 Zerner damping         CNVZerner       .... off
 Static damping         CNVDamp         .... on
   Fraction old density DampFac         ....    0.7000
   Max. Damping (<1)    DampMax         ....    0.9800
   Min. Damping (>=0)   DampMin         ....    0.0000
   Turn off err/grad.   DampErr         ....    0.1000

SCF Procedure:
 Maximum # iterations   MaxIter         ....   125
 SCF integral mode      SCFMode         .... Direct
   Integral package                     .... SHARK and LIBINT hybrid scheme
 Reset frequency        DirectResetFreq ....    20
 Integral Threshold     Thresh          ....  1.000e-10 Eh
 Primitive CutOff       TCut            ....  1.000e-11 Eh

Convergence Tolerance:
 Convergence Check Mode ConvCheckMode   .... Total+1el-Energy
 Convergence forced     ConvForced      .... 0
 Energy Change          TolE            ....  1.000e-06 Eh
 1-El. energy change                    ....  1.000e-03 Eh
 Orbital Gradient       TolG            ....  5.000e-05
 Orbital Rotation angle TolX            ....  5.000e-05
 DIIS Error             TolErr          ....  1.000e-05

------------------------------
INITIAL GUESS: MODEL POTENTIAL
------------------------------
Loading Hartree-Fock densities                     ... done
Calculating cut-offs                               ... done
Initializing the effective Hamiltonian             ... done
Setting up the integral package (SHARK)            ... done
Starting the Coulomb interaction                   ... done (   0.6 sec)
Making the grid                                    ... done (   0.4 sec)
Mapping shells                                     ... done
Starting the XC term evaluation                    ... done (   0.5 sec)
  promolecular density results
     # of electrons  =    185.992984671
     EX              =   -176.520930264
     EC              =     -6.415807514
     EX+EC           =   -182.936737779
Transforming the Hamiltonian                       ... done (   0.1 sec)
Diagonalizing the Hamiltonian                      ... done (   0.2 sec)
Back transforming the eigenvectors                 ... done (   0.0 sec)
Now organizing SCF variables                       ... done
                      ------------------
                      INITIAL GUESS DONE (   1.9 sec)
                      ------------------
             **** ENERGY FILE WAS UPDATED (data/single_point_PO_M06-2x/195868/195868.en.tmp) ****
Finished Guess after   2.1 sec
Maximum memory used throughout the entire GUESS-calculation: 65.5 MB


           ************************************************************
           *        Program running with 6 parallel MPI-processes     *
           *              working on a common directory               *
           ************************************************************

-------------------------------------------------------------------------------------------
                                      ORCA LEAN-SCF
                              memory conserving SCF solver
-------------------------------------------------------------------------------------------

----------------------------------------D-I-I-S--------------------------------------------
Iteration    Energy (Eh)           Delta-E    RMSDP     MaxDP     DIISErr   Damp  Time(sec)
-------------------------------------------------------------------------------------------
               ***  Starting incremental Fock matrix formation  ***
    1    -1734.6069015734988170     0.00e+00  1.50e-03  1.58e-01  3.62e-01  0.700  18.8
    2    -1734.9507194652624094    -3.44e-01  1.22e-03  1.39e-01  1.55e-01  0.700  11.0
                               ***Turning on AO-DIIS***
    3    -1735.0920696707157731    -1.41e-01  6.47e-04  2.69e-02  4.60e-02  0.700  10.3
    4    -1735.1795474016334992    -8.75e-02  1.43e-03  4.85e-02  3.19e-02  0.000   9.9
    5    -1735.3719802742039064    -1.92e-01  1.75e-04  2.60e-02  6.29e-03  0.000  11.1
                              *** Initializing SOSCF ***
---------------------------------------S-O-S-C-F--------------------------------------
Iteration    Energy (Eh)           Delta-E    RMSDP     MaxDP     MaxGrad    Time(sec)
--------------------------------------------------------------------------------------
    6    -1735.3725806073744025    -6.00e-04  4.84e-05  5.60e-03  6.15e-04     9.6
               *** Restarting incremental Fock matrix formation ***
    7    -1735.3727315110018026    -1.51e-04  1.46e-04  5.98e-03  2.54e-04    18.7
    8    -1735.3727336751189796    -2.16e-06  4.33e-05  1.72e-03  3.13e-04    13.3
    9    -1735.3727406967636853    -7.02e-06  3.79e-05  1.49e-03  2.95e-05    12.1
   10    -1735.3727406309703838     6.58e-08  3.92e-06  1.51e-04  6.83e-05    11.5
                 **** Energy Check signals convergence ****

               *****************************************************
               *                     SUCCESS                       *
               *           SCF CONVERGED AFTER  10 CYCLES          *
               *****************************************************

Recomputing exchange energy using gridx3       ... done (   28.141 sec)
Old exchange energy                            :    -96.761105360 Eh
New exchange energy                            :    -96.761125591 Eh
Exchange energy change after final integration :     -0.000020230 Eh
Total energy after final integration           :  -1735.372760861 Eh
             **** ENERGY FILE WAS UPDATED (data/single_point_PO_M06-2x/195868/195868.en.tmp) ****

----------------
TOTAL SCF ENERGY
----------------

Total Energy       :      -1735.37276086127281 Eh          -47221.89354 eV

Components:
Nuclear Repulsion  :       2326.43699149692929 Eh           63305.56893 eV
Electronic Energy  :      -4061.80973212789968 Eh         -110527.46192 eV
One Electron Energy:      -7002.37590808168534 Eh         -190544.33555 eV
Two Electron Energy:       2940.56617595378566 Eh           80016.87363 eV

Virial components:
Potential Energy   :      -3463.23099939653866 Eh          -94239.30653 eV
Kinetic Energy     :       1727.85823853526585 Eh           47017.41299 eV
Virial Ratio       :          2.00434903868756

DFT components:
N(Alpha)           :       93.000064427795 electrons
N(Beta)            :       93.000064427795 electrons
N(Total)           :      186.000128855590 electrons
E(XC)              :      -89.449330059932 Eh       

---------------
SCF CONVERGENCE
---------------

  Last Energy change         ...   -6.5793e-08  Tolerance :   1.0000e-06
  Last MAX-Density change    ...    1.5063e-04  Tolerance :   1.0000e-05
  Last RMS-Density change    ...    3.9158e-06  Tolerance :   1.0000e-06
  Last DIIS Error            ...    6.1484e-04  Tolerance :   1.0000e-05
  Last Orbital Gradient      ...    6.8274e-05  Tolerance :   5.0000e-05
  Last Orbital Rotation      ...    1.0195e-04  Tolerance :   5.0000e-05


----------------
ORBITAL ENERGIES
----------------

  NO   OCC          E(Eh)            E(eV) 
   0   2.0000     -90.145082     -2452.9724 
   1   2.0000     -78.109467     -2125.4667 
   2   2.0000     -19.696563      -535.9707 
   3   2.0000     -19.651074      -534.7329 
   4   2.0000     -19.647142      -534.6259 
   5   2.0000     -19.579002      -532.7717 
   6   2.0000     -10.609021      -288.6862 
   7   2.0000     -10.593216      -288.2561 
   8   2.0000     -10.591652      -288.2135 
   9   2.0000     -10.583686      -287.9967 
  10   2.0000     -10.582012      -287.9512 
  11   2.0000     -10.581668      -287.9418 
  12   2.0000     -10.570394      -287.6350 
  13   2.0000     -10.569267      -287.6044 
  14   2.0000     -10.568373      -287.5800 
  15   2.0000     -10.567438      -287.5546 
  16   2.0000     -10.565979      -287.5149 
  17   2.0000     -10.565306      -287.4966 
  18   2.0000     -10.565168      -287.4928 
  19   2.0000     -10.564800      -287.4828 
  20   2.0000     -10.564189      -287.4662 
  21   2.0000     -10.563405      -287.4449 
  22   2.0000     -10.562688      -287.4254 
  23   2.0000     -10.562236      -287.4130 
  24   2.0000      -8.469071      -230.4551 
  25   2.0000      -6.915706      -188.1859 
  26   2.0000      -6.392759      -173.9558 
  27   2.0000      -6.389813      -173.8757 
  28   2.0000      -6.388759      -173.8470 
  29   2.0000      -5.032919      -136.9527 
  30   2.0000      -5.032739      -136.9478 
  31   2.0000      -5.031126      -136.9039 
  32   2.0000      -1.266786       -34.4710 
  33   2.0000      -1.164440       -31.6860 
  34   2.0000      -1.141008       -31.0484 
  35   2.0000      -1.074894       -29.2494 
  36   2.0000      -0.996870       -27.1262 
  37   2.0000      -0.972240       -26.4560 
  38   2.0000      -0.968683       -26.3592 
  39   2.0000      -0.894796       -24.3486 
  40   2.0000      -0.885653       -24.0998 
  41   2.0000      -0.863068       -23.4853 
  42   2.0000      -0.855701       -23.2848 
  43   2.0000      -0.854789       -23.2600 
  44   2.0000      -0.851751       -23.1773 
  45   2.0000      -0.784723       -21.3534 
  46   2.0000      -0.750748       -20.4289 
  47   2.0000      -0.718925       -19.5629 
  48   2.0000      -0.704587       -19.1728 
  49   2.0000      -0.701977       -19.1018 
  50   2.0000      -0.696723       -18.9588 
  51   2.0000      -0.691165       -18.8075 
  52   2.0000      -0.659102       -17.9351 
  53   2.0000      -0.632502       -17.2113 
  54   2.0000      -0.619344       -16.8532 
  55   2.0000      -0.605268       -16.4702 
  56   2.0000      -0.589055       -16.0290 
  57   2.0000      -0.579739       -15.7755 
  58   2.0000      -0.578209       -15.7339 
  59   2.0000      -0.558836       -15.2067 
  60   2.0000      -0.539584       -14.6828 
  61   2.0000      -0.539157       -14.6712 
  62   2.0000      -0.533326       -14.5126 
  63   2.0000      -0.529685       -14.4135 
  64   2.0000      -0.528099       -14.3703 
  65   2.0000      -0.526213       -14.3190 
  66   2.0000      -0.507562       -13.8115 
  67   2.0000      -0.502342       -13.6694 
  68   2.0000      -0.499373       -13.5886 
  69   2.0000      -0.498600       -13.5676 
  70   2.0000      -0.480325       -13.0703 
  71   2.0000      -0.471696       -12.8355 
  72   2.0000      -0.461732       -12.5644 
  73   2.0000      -0.455620       -12.3980 
  74   2.0000      -0.451802       -12.2941 
  75   2.0000      -0.449513       -12.2319 
  76   2.0000      -0.437604       -11.9078 
  77   2.0000      -0.435594       -11.8531 
  78   2.0000      -0.421790       -11.4775 
  79   2.0000      -0.420698       -11.4478 
  80   2.0000      -0.416922       -11.3450 
  81   2.0000      -0.415076       -11.2948 
  82   2.0000      -0.413117       -11.2415 
  83   2.0000      -0.405357       -11.0303 
  84   2.0000      -0.401415       -10.9231 
  85   2.0000      -0.354832        -9.6555 
  86   2.0000      -0.351049        -9.5525 
  87   2.0000      -0.343916        -9.3584 
  88   2.0000      -0.339612        -9.2413 
  89   2.0000      -0.327289        -8.9060 
  90   2.0000      -0.323319        -8.7980 
  91   2.0000      -0.321794        -8.7565 
  92   2.0000      -0.319009        -8.6807 
  93   0.0000      -0.038500        -1.0476 
  94   0.0000      -0.030048        -0.8176 
  95   0.0000      -0.017041        -0.4637 
  96   0.0000      -0.005598        -0.1523 
  97   0.0000      -0.000265        -0.0072 
  98   0.0000       0.005772         0.1571 
  99   0.0000       0.038818         1.0563 
 100   0.0000       0.066112         1.7990 
 101   0.0000       0.075033         2.0418 
 102   0.0000       0.076102         2.0708 
 103   0.0000       0.080659         2.1949 
*Only the first 10 virtual orbitals were printed.

                    ********************************
                    * MULLIKEN POPULATION ANALYSIS *
                    ********************************

-----------------------
MULLIKEN ATOMIC CHARGES
-----------------------
   0 C :   -0.133650
   1 C :   -0.134385
   2 C :   -0.151864
   3 C :   -0.055975
   4 C :   -0.207912
   5 C :   -0.154107
   6 P :    0.630641
   7 O :   -0.595291
   8 C :   -0.058046
   9 C :   -0.156211
  10 C :   -0.132846
  11 C :   -0.132808
  12 C :   -0.145129
  13 C :   -0.204171
  14 C :   -0.044916
  15 C :   -0.263185
  16 C :   -0.054668
  17 C :   -0.135228
  18 C :   -0.125523
  19 C :   -0.138595
  20 S :    0.893701
  21 O :   -0.456924
  22 O :   -0.472253
  23 O :   -0.418962
  24 H :    0.151825
  25 H :    0.152298
  26 H :    0.187203
  27 H :    0.204541
  28 H :    0.155035
  29 H :    0.186444
  30 H :    0.151453
  31 H :    0.151610
  32 H :    0.152706
  33 H :    0.202056
  34 H :    0.247999
  35 H :    0.194375
  36 H :    0.160261
  37 H :    0.195655
  38 H :    0.354846
Sum of atomic charges:   -0.0000000

--------------------------------
MULLIKEN REDUCED ORBITAL CHARGES
--------------------------------
  0 C s       :     3.230075  s :     3.230075
      pz      :     0.921246  p :     2.835977
      px      :     0.951978
      py      :     0.962753
      dz2     :     0.012931  d :     0.061336
      dxz     :     0.013991
      dyz     :     0.016307
      dx2y2   :     0.007692
      dxy     :     0.010414
      f0      :     0.000953  f :     0.006261
      f+1     :     0.001402
      f-1     :     0.001006
      f+2     :     0.000508
      f-2     :     0.000861
      f+3     :     0.000800
      f-3     :     0.000731

  1 C s       :     3.224987  s :     3.224987
      pz      :     0.902606  p :     2.843733
      px      :     0.983859
      py      :     0.957268
      dz2     :     0.012843  d :     0.059390
      dxz     :     0.015442
      dyz     :     0.013762
      dx2y2   :     0.009897
      dxy     :     0.007446
      f0      :     0.000979  f :     0.006276
      f+1     :     0.001260
      f-1     :     0.001168
      f+2     :     0.000762
      f-2     :     0.000679
      f+3     :     0.000711
      f-3     :     0.000717

  2 C s       :     3.213940  s :     3.213940
      pz      :     1.033382  p :     2.867839
      px      :     0.910134
      py      :     0.924323
      dz2     :     0.015456  d :     0.063563
      dxz     :     0.011356
      dyz     :     0.007830
      dx2y2   :     0.018219
      dxy     :     0.010702
      f0      :     0.000680  f :     0.006522
      f+1     :     0.001247
      f-1     :     0.000636
      f+2     :     0.000909
      f-2     :     0.000852
      f+3     :     0.001265
      f-3     :     0.000934

  3 C s       :     3.223913  s :     3.223913
      pz      :     0.860559  p :     2.751670
      px      :     0.927736
      py      :     0.963374
      dz2     :     0.013799  d :     0.073333
      dxz     :     0.019492
      dyz     :     0.018209
      dx2y2   :     0.010503
      dxy     :     0.011330
      f0      :     0.001022  f :     0.007059
      f+1     :     0.001589
      f-1     :     0.001185
      f+2     :     0.000615
      f-2     :     0.000863
      f+3     :     0.000981
      f-3     :     0.000803

  4 C s       :     3.210530  s :     3.210530
      pz      :     0.877896  p :     2.924082
      px      :     1.055338
      py      :     0.990849
      dz2     :     0.015606  d :     0.066805
      dxz     :     0.017608
      dyz     :     0.015443
      dx2y2   :     0.011496
      dxy     :     0.006651
      f0      :     0.001017  f :     0.006495
      f+1     :     0.001295
      f-1     :     0.001212
      f+2     :     0.000830
      f-2     :     0.000670
      f+3     :     0.000742
      f-3     :     0.000729

  5 C s       :     3.232302  s :     3.232302
      pz      :     1.009698  p :     2.855312
      px      :     0.902635
      py      :     0.942979
      dz2     :     0.012696  d :     0.060182
      dxz     :     0.012508
      dyz     :     0.007622
      dx2y2   :     0.016776
      dxy     :     0.010579
      f0      :     0.000607  f :     0.006311
      f+1     :     0.001217
      f-1     :     0.000611
      f+2     :     0.000925
      f-2     :     0.000858
      f+3     :     0.001236
      f-3     :     0.000858

  6 P s       :     5.294250  s :     5.294250
      pz      :     2.626732  p :     8.302028
      px      :     2.836336
      py      :     2.838959
      dz2     :     0.113846  d :     0.708133
      dxz     :     0.215452
      dyz     :     0.185874
      dx2y2   :     0.118034
      dxy     :     0.074926
      f0      :     0.010496  f :     0.064949
      f+1     :     0.016443
      f-1     :     0.014506
      f+2     :     0.006686
      f-2     :     0.007670
      f+3     :     0.005180
      f-3     :     0.003968

  7 O s       :     3.883995  s :     3.883995
      pz      :     1.377692  p :     4.685353
      px      :     1.659019
      py      :     1.648642
      dz2     :     0.009499  d :     0.024683
      dxz     :     0.006939
      dyz     :     0.007282
      dx2y2   :     0.000438
      dxy     :     0.000526
      f0      :     0.000483  f :     0.001261
      f+1     :     0.000314
      f-1     :     0.000360
      f+2     :     0.000049
      f-2     :     0.000051
      f+3     :     0.000002
      f-3     :     0.000002

  8 C s       :     3.219205  s :     3.219205
      pz      :     0.864895  p :     2.757934
      px      :     0.975895
      py      :     0.917144
      dz2     :     0.019667  d :     0.073839
      dxz     :     0.017493
      dyz     :     0.013708
      dx2y2   :     0.012242
      dxy     :     0.010729
      f0      :     0.001373  f :     0.007069
      f+1     :     0.000924
      f-1     :     0.001113
      f+2     :     0.001268
      f-2     :     0.000958
      f+3     :     0.000706
      f-3     :     0.000727

  9 C s       :     3.214918  s :     3.214918
      pz      :     1.004765  p :     2.870595
      px      :     0.946835
      py      :     0.918995
      dz2     :     0.012208  d :     0.064181
      dxz     :     0.007395
      dyz     :     0.018233
      dx2y2   :     0.006682
      dxy     :     0.019662
      f0      :     0.000923  f :     0.006517
      f+1     :     0.000534
      f-1     :     0.001074
      f+2     :     0.001129
      f-2     :     0.000738
      f+3     :     0.001224
      f-3     :     0.000895

 10 C s       :     3.224347  s :     3.224347
      pz      :     0.950822  p :     2.842765
      px      :     0.954751
      py      :     0.937192
      dz2     :     0.012516  d :     0.059457
      dxz     :     0.009572
      dyz     :     0.015155
      dx2y2   :     0.008692
      dxy     :     0.013521
      f0      :     0.001117  f :     0.006277
      f+1     :     0.000774
      f-1     :     0.000953
      f+2     :     0.001237
      f-2     :     0.000403
      f+3     :     0.001079
      f-3     :     0.000714

 11 C s       :     3.228883  s :     3.228883
      pz      :     0.890771  p :     2.836348
      px      :     0.939894
      py      :     1.005683
      dz2     :     0.015333  d :     0.061315
      dxz     :     0.016255
      dyz     :     0.013945
      dx2y2   :     0.009222
      dxy     :     0.006560
      f0      :     0.001274  f :     0.006262
      f+1     :     0.000848
      f-1     :     0.001090
      f+2     :     0.001038
      f-2     :     0.000875
      f+3     :     0.000436
      f-3     :     0.000700

 12 C s       :     3.230310  s :     3.230310
      pz      :     0.988035  p :     2.848397
      px      :     0.958169
      py      :     0.902193
      dz2     :     0.012084  d :     0.060117
      dxz     :     0.007345
      dyz     :     0.014934
      dx2y2   :     0.007346
      dxy     :     0.018408
      f0      :     0.000899  f :     0.006305
      f+1     :     0.000627
      f-1     :     0.000953
      f+2     :     0.001142
      f-2     :     0.000690
      f+3     :     0.001199
      f-3     :     0.000794

 13 C s       :     3.207286  s :     3.207286
      pz      :     0.941930  p :     2.923865
      px      :     0.953759
      py      :     1.028175
      dz2     :     0.011841  d :     0.066528
      dxz     :     0.010027
      dyz     :     0.021108
      dx2y2   :     0.008536
      dxy     :     0.015017
      f0      :     0.001135  f :     0.006492
      f+1     :     0.000742
      f-1     :     0.000968
      f+2     :     0.001291
      f-2     :     0.000502
      f+3     :     0.001114
      f-3     :     0.000740

 14 C s       :     3.229783  s :     3.229783
      pz      :     0.876106  p :     2.738429
      px      :     0.934014
      py      :     0.928309
      dz2     :     0.019318  d :     0.069668
      dxz     :     0.013906
      dyz     :     0.008578
      dx2y2   :     0.018142
      dxy     :     0.009723
      f0      :     0.001005  f :     0.007036
      f+1     :     0.000922
      f-1     :     0.001116
      f+2     :     0.001374
      f-2     :     0.001093
      f+3     :     0.000710
      f-3     :     0.000816

 15 C s       :     3.150792  s :     3.150792
      pz      :     0.961737  p :     3.032532
      px      :     1.044763
      py      :     1.026032
      dz2     :     0.015201  d :     0.073046
      dxz     :     0.017756
      dyz     :     0.013539
      dx2y2   :     0.011648
      dxy     :     0.014902
      f0      :     0.001073  f :     0.006814
      f+1     :     0.001112
      f-1     :     0.000594
      f+2     :     0.001217
      f-2     :     0.001208
      f+3     :     0.000903
      f-3     :     0.000705

 16 C s       :     3.184687  s :     3.184687
      pz      :     0.878449  p :     2.785098
      px      :     0.953080
      py      :     0.953569
      dz2     :     0.015727  d :     0.076718
      dxz     :     0.016432
      dyz     :     0.011832
      dx2y2   :     0.017854
      dxy     :     0.014873
      f0      :     0.000522  f :     0.008165
      f+1     :     0.001398
      f-1     :     0.001358
      f+2     :     0.001375
      f-2     :     0.001277
      f+3     :     0.001086
      f-3     :     0.001148

 17 C s       :     3.203247  s :     3.203247
      pz      :     0.930050  p :     2.857205
      px      :     1.013539
      py      :     0.913616
      dz2     :     0.017379  d :     0.068314
      dxz     :     0.016702
      dyz     :     0.011295
      dx2y2   :     0.014732
      dxy     :     0.008206
      f0      :     0.000971  f :     0.006462
      f+1     :     0.000738
      f-1     :     0.001129
      f+2     :     0.001279
      f-2     :     0.000983
      f+3     :     0.000611
      f-3     :     0.000750

 18 C s       :     3.232622  s :     3.232622
      pz      :     0.923846  p :     2.828254
      px      :     0.935727
      py      :     0.968682
      dz2     :     0.014796  d :     0.058356
      dxz     :     0.009759
      dyz     :     0.011237
      dx2y2   :     0.009028
      dxy     :     0.013537
      f0      :     0.001026  f :     0.006291
      f+1     :     0.000959
      f-1     :     0.000671
      f+2     :     0.000999
      f-2     :     0.001120
      f+3     :     0.000790
      f-3     :     0.000725

 19 C s       :     3.218662  s :     3.218662
      pz      :     0.992657  p :     2.848580
      px      :     0.924456
      py      :     0.931467
      dz2     :     0.011435  d :     0.064896
      dxz     :     0.015847
      dyz     :     0.008783
      dx2y2   :     0.015232
      dxy     :     0.013600
      f0      :     0.000315  f :     0.006457
      f+1     :     0.001192
      f-1     :     0.000915
      f+2     :     0.000946
      f-2     :     0.000928
      f+3     :     0.001012
      f-3     :     0.001149

 20 S s       :     5.391379  s :     5.391379
      pz      :     2.929197  p :     8.584262
      px      :     2.811716
      py      :     2.843348
      dz2     :     0.199461  d :     1.034576
      dxz     :     0.209106
      dyz     :     0.178206
      dx2y2   :     0.227230
      dxy     :     0.220573
      f0      :     0.009572  f :     0.096082
      f+1     :     0.017812
      f-1     :     0.010192
      f+2     :     0.011131
      f-2     :     0.014299
      f+3     :     0.019949
      f-3     :     0.013128

 21 O s       :     3.879999  s :     3.879999
      pz      :     1.524819  p :     4.540668
      px      :     1.385257
      py      :     1.630592
      dz2     :     0.006962  d :     0.034133
      dxz     :     0.010257
      dyz     :     0.004010
      dx2y2   :     0.006786
      dxy     :     0.006118
      f0      :     0.000214  f :     0.002124
      f+1     :     0.000521
      f-1     :     0.000056
      f+2     :     0.000478
      f-2     :     0.000365
      f+3     :     0.000252
      f-3     :     0.000237

 22 O s       :     3.876727  s :     3.876727
      pz      :     1.630765  p :     4.560420
      px      :     1.387222
      py      :     1.542433
      dz2     :     0.004656  d :     0.033068
      dxz     :     0.007059
      dyz     :     0.003798
      dx2y2   :     0.008406
      dxy     :     0.009149
      f0      :     0.000192  f :     0.002038
      f+1     :     0.000290
      f-1     :     0.000129
      f+2     :     0.000184
      f-2     :     0.000370
      f+3     :     0.000424
      f-3     :     0.000450

 23 O s       :     3.802602  s :     3.802602
      pz      :     1.781619  p :     4.588886
      px      :     1.374260
      py      :     1.433007
      dz2     :     0.003511  d :     0.026083
      dxz     :     0.001600
      dyz     :     0.005371
      dx2y2   :     0.010883
      dxy     :     0.004717
      f0      :     0.000293  f :     0.001391
      f+1     :     0.000273
      f-1     :     0.000199
      f+2     :     0.000211
      f-2     :     0.000124
      f+3     :     0.000250
      f-3     :     0.000042

 24 H s       :     0.828483  s :     0.828483
      pz      :     0.005697  p :     0.019693
      px      :     0.007672
      py      :     0.006324

 25 H s       :     0.827923  s :     0.827923
      pz      :     0.004840  p :     0.019780
      px      :     0.010213
      py      :     0.004727

 26 H s       :     0.792282  s :     0.792282
      pz      :     0.013823  p :     0.020514
      px      :     0.002984
      py      :     0.003708

 27 H s       :     0.775253  s :     0.775253
      pz      :     0.004875  p :     0.020206
      px      :     0.010854
      py      :     0.004477

 28 H s       :     0.825173  s :     0.825173
      pz      :     0.012748  p :     0.019792
      px      :     0.003168
      py      :     0.003876

 29 H s       :     0.793071  s :     0.793071
      pz      :     0.011769  p :     0.020484
      px      :     0.004275
      py      :     0.004440

 30 H s       :     0.828782  s :     0.828782
      pz      :     0.008548  p :     0.019765
      px      :     0.003987
      py      :     0.007230

 31 H s       :     0.828694  s :     0.828694
      pz      :     0.003033  p :     0.019696
      px      :     0.003758
      py      :     0.012905

 32 H s       :     0.827472  s :     0.827472
      pz      :     0.011365  p :     0.019822
      px      :     0.004707
      py      :     0.003750

 33 H s       :     0.777738  s :     0.777738
      pz      :     0.008394  p :     0.020206
      px      :     0.004110
      py      :     0.007703

 34 H s       :     0.731084  s :     0.731084
      pz      :     0.006013  p :     0.020917
      px      :     0.006174
      py      :     0.008731

 35 H s       :     0.785130  s :     0.785130
      pz      :     0.004848  p :     0.020495
      px      :     0.011896
      py      :     0.003751

 36 H s       :     0.819713  s :     0.819713
      pz      :     0.005661  p :     0.020026
      px      :     0.006213
      py      :     0.008152

 37 H s       :     0.783666  s :     0.783666
      pz      :     0.011367  p :     0.020679
      px      :     0.004749
      py      :     0.004563

 38 H s       :     0.599584  s :     0.599584
      pz      :     0.014828  p :     0.045571
      px      :     0.020157
      py      :     0.010586



                     *******************************
                     * LOEWDIN POPULATION ANALYSIS *
                     *******************************

----------------------
LOEWDIN ATOMIC CHARGES
----------------------
   0 C :   -0.127935
   1 C :   -0.133218
   2 C :   -0.113613
   3 C :   -0.230977
   4 C :   -0.136882
   5 C :   -0.136296
   6 P :    0.687273
   7 O :   -0.304065
   8 C :   -0.232639
   9 C :   -0.114749
  10 C :   -0.133400
  11 C :   -0.126918
  12 C :   -0.134386
  13 C :   -0.135201
  14 C :   -0.213197
  15 C :   -0.113608
  16 C :   -0.273089
  17 C :   -0.111250
  18 C :   -0.120816
  19 C :   -0.090926
  20 S :    0.722305
  21 O :   -0.287763
  22 O :   -0.311633
  23 O :   -0.200830
  24 H :    0.149958
  25 H :    0.150597
  26 H :    0.161195
  27 H :    0.156976
  28 H :    0.151346
  29 H :    0.160578
  30 H :    0.150374
  31 H :    0.149996
  32 H :    0.151128
  33 H :    0.156875
  34 H :    0.167046
  35 H :    0.161789
  36 H :    0.155151
  37 H :    0.165691
  38 H :    0.185112

-------------------------------
LOEWDIN REDUCED ORBITAL CHARGES
-------------------------------
  0 C s       :     2.779631  s :     2.779631
      pz      :     1.037760  p :     2.934289
      px      :     0.991739
      py      :     0.904789
      dz2     :     0.089568  d :     0.373585
      dxz     :     0.126418
      dyz     :     0.073487
      dx2y2   :     0.033237
      dxy     :     0.050875
      f0      :     0.006704  f :     0.040430
      f+1     :     0.011486
      f-1     :     0.006581
      f+2     :     0.004128
      f-2     :     0.003788
      f+3     :     0.003487
      f-3     :     0.004255

  1 C s       :     2.778001  s :     2.778001
      pz      :     1.042452  p :     2.943128
      px      :     0.975119
      py      :     0.925557
      dz2     :     0.100067  d :     0.371642
      dxz     :     0.112471
      dyz     :     0.080340
      dx2y2   :     0.041720
      dxy     :     0.037043
      f0      :     0.006679  f :     0.040448
      f+1     :     0.010381
      f-1     :     0.007872
      f+2     :     0.004235
      f-2     :     0.004527
      f+3     :     0.002774
      f-3     :     0.003980

  2 C s       :     2.775959  s :     2.775959
      pz      :     0.998651  p :     2.916914
      px      :     1.007514
      py      :     0.910750
      dz2     :     0.109316  d :     0.379681
      dxz     :     0.081735
      dyz     :     0.038172
      dx2y2   :     0.075741
      dxy     :     0.074718
      f0      :     0.003438  f :     0.041058
      f+1     :     0.010155
      f-1     :     0.004141
      f+2     :     0.007020
      f-2     :     0.006098
      f+3     :     0.004192
      f-3     :     0.006014

  3 C s       :     2.770169  s :     2.770169
      pz      :     1.049388  p :     2.985454
      px      :     1.008373
      py      :     0.927693
      dz2     :     0.099825  d :     0.431697
      dxz     :     0.138197
      dyz     :     0.087117
      dx2y2   :     0.046541
      dxy     :     0.060018
      f0      :     0.006795  f :     0.043656
      f+1     :     0.012451
      f-1     :     0.007297
      f+2     :     0.004820
      f-2     :     0.003992
      f+3     :     0.003952
      f-3     :     0.004347

  4 C s       :     2.775884  s :     2.775884
      pz      :     1.030605  p :     2.938115
      px      :     0.981346
      py      :     0.926164
      dz2     :     0.100710  d :     0.382015
      dxz     :     0.115247
      dyz     :     0.083215
      dx2y2   :     0.046385
      dxy     :     0.036457
      f0      :     0.006753  f :     0.040869
      f+1     :     0.010282
      f-1     :     0.007957
      f+2     :     0.004412
      f-2     :     0.004517
      f+3     :     0.003033
      f-3     :     0.003914

  5 C s       :     2.778102  s :     2.778102
      pz      :     0.988199  p :     2.945034
      px      :     1.024723
      py      :     0.932112
      dz2     :     0.106232  d :     0.372652
      dxz     :     0.082770
      dyz     :     0.037331
      dx2y2   :     0.073768
      dxy     :     0.072551
      f0      :     0.003323  f :     0.040508
      f+1     :     0.010088
      f-1     :     0.004079
      f+2     :     0.006904
      f-2     :     0.005999
      f+3     :     0.004068
      f-3     :     0.006048

  6 P s       :     4.642613  s :     4.642613
      pz      :     2.722866  p :     8.263131
      px      :     2.765492
      py      :     2.774773
      dz2     :     0.253485  d :     1.186545
      dxz     :     0.318483
      dyz     :     0.278316
      dx2y2   :     0.205518
      dxy     :     0.130742
      f0      :     0.043590  f :     0.220438
      f+1     :     0.050206
      f-1     :     0.047855
      f+2     :     0.023510
      f-2     :     0.023565
      f+3     :     0.016918
      f-3     :     0.014794

  7 O s       :     3.539190  s :     3.539190
      pz      :     1.527411  p :     4.721026
      px      :     1.596871
      py      :     1.596743
      dz2     :     0.022692  d :     0.041734
      dxz     :     0.007815
      dyz     :     0.010006
      dx2y2   :     0.000590
      dxy     :     0.000631
      f0      :     0.000977  f :     0.002116
      f+1     :     0.000413
      f-1     :     0.000566
      f+2     :     0.000098
      f-2     :     0.000054
      f+3     :     0.000002
      f-3     :     0.000006

  8 C s       :     2.769979  s :     2.769979
      pz      :     1.052013  p :     2.986218
      px      :     0.906722
      py      :     1.027483
      dz2     :     0.130921  d :     0.432734
      dxz     :     0.074410
      dyz     :     0.115035
      dx2y2   :     0.070461
      dxy     :     0.041907
      f0      :     0.008907  f :     0.043709
      f+1     :     0.004912
      f-1     :     0.009487
      f+2     :     0.007554
      f-2     :     0.006907
      f+3     :     0.002673
      f-3     :     0.003269

  9 C s       :     2.775890  s :     2.775890
      pz      :     0.994982  p :     2.918080
      px      :     0.871778
      py      :     1.051321
      dz2     :     0.088382  d :     0.379712
      dxz     :     0.029867
      dyz     :     0.122369
      dx2y2   :     0.066149
      dxy     :     0.072945
      f0      :     0.006967  f :     0.041068
      f+1     :     0.002859
      f-1     :     0.008047
      f+2     :     0.007523
      f-2     :     0.005362
      f+3     :     0.004720
      f-3     :     0.005589

 10 C s       :     2.777998  s :     2.777998
      pz      :     1.011976  p :     2.943243
      px      :     0.896951
      py      :     1.034317
      dz2     :     0.074928  d :     0.371713
      dxz     :     0.038247
      dyz     :     0.152349
      dx2y2   :     0.051374
      dxy     :     0.054816
      f0      :     0.008763  f :     0.040446
      f+1     :     0.005003
      f-1     :     0.007328
      f+2     :     0.006844
      f-2     :     0.002917
      f+3     :     0.004988
      f-3     :     0.004602

 11 C s       :     2.779617  s :     2.779617
      pz      :     1.049784  p :     2.933443
      px      :     0.886305
      py      :     0.997354
      dz2     :     0.123210  d :     0.373434
      dxz     :     0.070053
      dyz     :     0.099207
      dx2y2   :     0.056724
      dxy     :     0.024241
      f0      :     0.008571  f :     0.040424
      f+1     :     0.004810
      f-1     :     0.008931
      f+2     :     0.006682
      f-2     :     0.006687
      f+3     :     0.001620
      f-3     :     0.003123

 12 C s       :     2.777996  s :     2.777996
      pz      :     0.992724  p :     2.943528
      px      :     0.894929
      py      :     1.055874
      dz2     :     0.087906  d :     0.372342
      dxz     :     0.030146
      dyz     :     0.118384
      dx2y2   :     0.065044
      dxy     :     0.070862
      f0      :     0.006833  f :     0.040521
      f+1     :     0.003092
      f-1     :     0.007848
      f+2     :     0.007326
      f-2     :     0.005026
      f+3     :     0.004762
      f-3     :     0.005634

 13 C s       :     2.775734  s :     2.775734
      pz      :     1.003562  p :     2.936625
      px      :     0.894075
      py      :     1.038988
      dz2     :     0.075100  d :     0.381931
      dxz     :     0.040034
      dyz     :     0.153537
      dx2y2   :     0.052563
      dxy     :     0.060697
      f0      :     0.008780  f :     0.040911
      f+1     :     0.005153
      f-1     :     0.007258
      f+2     :     0.006792
      f-2     :     0.003083
      f+3     :     0.005286
      f-3     :     0.004559

 14 C s       :     2.771157  s :     2.771157
      pz      :     1.003280  p :     2.970890
      px      :     1.010768
      py      :     0.956842
      dz2     :     0.095098  d :     0.427289
      dxz     :     0.096634
      dyz     :     0.081718
      dx2y2   :     0.088723
[...]
      dxy     :     0.009410
      f0      :     0.000505  f :     0.004375
      f+1     :     0.000912
      f-1     :     0.000135
      f+2     :     0.001207
      f-2     :     0.000696
      f+3     :     0.000471
      f-3     :     0.000449

 22 O s       :     3.585389  s :     3.585389
      pz      :     1.597005  p :     4.657461
      px      :     1.500314
      py      :     1.560142
      dz2     :     0.008473  d :     0.064532
      dxz     :     0.013555
      dyz     :     0.006492
      dx2y2   :     0.013515
      dxy     :     0.022497
      f0      :     0.000475  f :     0.004251
      f+1     :     0.000521
      f-1     :     0.000220
      f+2     :     0.000399
      f-2     :     0.000823
      f+3     :     0.000630
      f-3     :     0.001185

 23 O s       :     3.495555  s :     3.495555
      pz      :     1.732334  p :     4.647592
      px      :     1.401077
      py      :     1.514181
      dz2     :     0.007123  d :     0.054547
      dxz     :     0.003632
      dyz     :     0.010353
      dx2y2   :     0.023441
      dxy     :     0.009998
      f0      :     0.000449  f :     0.003136
      f+1     :     0.000335
      f-1     :     0.000317
      f+2     :     0.000480
      f-2     :     0.000280
      f+3     :     0.000853
      f-3     :     0.000422

 24 H s       :     0.794202  s :     0.794202
      pz      :     0.016795  p :     0.055840
      px      :     0.021243
      py      :     0.017802

 25 H s       :     0.793426  s :     0.793426
      pz      :     0.014798  p :     0.055977
      px      :     0.027052
      py      :     0.014128

 26 H s       :     0.780752  s :     0.780752
      pz      :     0.036013  p :     0.058053
      px      :     0.010226
      py      :     0.011814

 27 H s       :     0.785041  s :     0.785041
      pz      :     0.014941  p :     0.057983
      px      :     0.028973
      py      :     0.014069

 28 H s       :     0.792536  s :     0.792536
      pz      :     0.032969  p :     0.056117
      px      :     0.010921
      py      :     0.012228

 29 H s       :     0.781434  s :     0.781434
      pz      :     0.031249  p :     0.057989
      px      :     0.013287
      py      :     0.013452

 30 H s       :     0.793674  s :     0.793674
      pz      :     0.023312  p :     0.055952
      px      :     0.012369
      py      :     0.020272

 31 H s       :     0.794175  s :     0.794175
      pz      :     0.010658  p :     0.055829
      px      :     0.011782
      py      :     0.033389

 32 H s       :     0.792790  s :     0.792790
      pz      :     0.029713  p :     0.056082
      px      :     0.014093
      py      :     0.012276

 33 H s       :     0.785144  s :     0.785144
      pz      :     0.023415  p :     0.057981
      px      :     0.013070
      py      :     0.021495

 34 H s       :     0.773165  s :     0.773165
      pz      :     0.017402  p :     0.059790
      px      :     0.018194
      py      :     0.024194

 35 H s       :     0.779741  s :     0.779741
      pz      :     0.014553  p :     0.058470
      px      :     0.031744
      py      :     0.012173

 36 H s       :     0.788520  s :     0.788520
      pz      :     0.016430  p :     0.056329
      px      :     0.017805
      py      :     0.022094

 37 H s       :     0.775982  s :     0.775982
      pz      :     0.030140  p :     0.058327
      px      :     0.014195
      py      :     0.013992

 38 H s       :     0.661481  s :     0.661481
      pz      :     0.041577  p :     0.153407
      px      :     0.081364
      py      :     0.030467



                      *****************************
                      * MAYER POPULATION ANALYSIS *
                      *****************************

  NA   - Mulliken gross atomic population
  ZA   - Total nuclear charge
  QA   - Mulliken gross atomic charge
  VA   - Mayer's total valence
  BVA  - Mayer's bonded valence
  FA   - Mayer's free valence

  ATOM       NA         ZA         QA         VA         BVA        FA
  0 C      6.1336     6.0000    -0.1336     3.9354     3.9354    -0.0000
  1 C      6.1344     6.0000    -0.1344     3.9186     3.9186    -0.0000
  2 C      6.1519     6.0000    -0.1519     3.9624     3.9624     0.0000
  3 C      6.0560     6.0000    -0.0560     3.7321     3.7321     0.0000
  4 C      6.2079     6.0000    -0.2079     3.8888     3.8888    -0.0000
  5 C      6.1541     6.0000    -0.1541     4.0119     4.0119    -0.0000
  6 P     14.3694    15.0000     0.6306     4.9694     4.9694     0.0000
  7 O      8.5953     8.0000    -0.5953     1.9879     1.9879    -0.0000
  8 C      6.0580     6.0000    -0.0580     3.7352     3.7352    -0.0000
  9 C      6.1562     6.0000    -0.1562     3.9667     3.9667     0.0000
 10 C      6.1328     6.0000    -0.1328     3.9213     3.9213     0.0000
 11 C      6.1328     6.0000    -0.1328     3.9397     3.9397    -0.0000
 12 C      6.1451     6.0000    -0.1451     4.0072     4.0072    -0.0000
 13 C      6.2042     6.0000    -0.2042     3.8917     3.8917    -0.0000
 14 C      6.0449     6.0000    -0.0449     3.7729     3.7729    -0.0000
 15 C      6.2632     6.0000    -0.2632     3.9481     3.9481     0.0000
 16 C      6.0547     6.0000    -0.0547     3.9840     3.9840     0.0000
 17 C      6.1352     6.0000    -0.1352     3.9195     3.9195     0.0000
 18 C      6.1255     6.0000    -0.1255     3.9069     3.9069     0.0000
 19 C      6.1386     6.0000    -0.1386     3.9806     3.9806     0.0000
 20 S     15.1063    16.0000     0.8937     5.7302     5.7302    -0.0000
 21 O      8.4569     8.0000    -0.4569     1.9916     1.9916    -0.0000
 22 O      8.4723     8.0000    -0.4723     1.9654     1.9654    -0.0000
 23 O      8.4190     8.0000    -0.4190     1.9639     1.9639    -0.0000
 24 H      0.8482     1.0000     0.1518     0.9629     0.9629    -0.0000
 25 H      0.8477     1.0000     0.1523     0.9650     0.9650     0.0000
 26 H      0.8128     1.0000     0.1872     0.9716     0.9716     0.0000
 27 H      0.7955     1.0000     0.2045     0.9404     0.9404     0.0000
 28 H      0.8450     1.0000     0.1550     0.9645     0.9645    -0.0000
 29 H      0.8136     1.0000     0.1864     0.9714     0.9714     0.0000
 30 H      0.8485     1.0000     0.1515     0.9650     0.9650     0.0000
 31 H      0.8484     1.0000     0.1516     0.9628     0.9628    -0.0000
 32 H      0.8473     1.0000     0.1527     0.9653     0.9653    -0.0000
 33 H      0.7979     1.0000     0.2021     0.9430     0.9430    -0.0000
 34 H      0.7520     1.0000     0.2480     0.9399     0.9399    -0.0000
 35 H      0.8056     1.0000     0.1944     0.9695     0.9695     0.0000
 36 H      0.8397     1.0000     0.1603     0.9660     0.9660     0.0000
 37 H      0.8043     1.0000     0.1957     0.9707     0.9707     0.0000
 38 H      0.6452     1.0000     0.3548     0.8984     0.8984     0.0000

  Mayer bond orders larger than 0.100000
B(  0-C ,  1-C ) :   1.4308 B(  0-C ,  5-C ) :   1.4399 B(  0-C , 24-H ) :   0.9460 
B(  1-C ,  2-C ) :   1.4396 B(  1-C , 25-H ) :   0.9466 B(  2-C ,  3-C ) :   1.4287 
B(  2-C , 26-H ) :   0.9095 B(  3-C ,  4-C ) :   1.3120 B(  3-C ,  6-P ) :   0.9230 
B(  4-C ,  5-C ) :   1.4990 B(  4-C , 27-H ) :   0.9123 B(  5-C , 28-H ) :   0.9409 
B(  6-P ,  7-O ) :   1.9499 B(  6-P ,  8-C ) :   0.9222 B(  6-P , 14-C ) :   0.9018 
B(  8-C ,  9-C ) :   1.4312 B(  8-C , 13-C ) :   1.3195 B(  9-C , 10-C ) :   1.4430 
B(  9-C , 29-H ) :   0.9092 B( 10-C , 11-C ) :   1.4310 B( 10-C , 30-H ) :   0.9466 
B( 11-C , 12-C ) :   1.4426 B( 11-C , 31-H ) :   0.9458 B( 12-C , 13-C ) :   1.4895 
B( 12-C , 32-H ) :   0.9409 B( 13-C , 33-H ) :   0.9137 B( 14-C , 15-C ) :   1.3615 
B( 14-C , 19-C ) :   1.4408 B( 15-C , 16-C ) :   1.4848 B( 15-C , 34-H ) :   0.8443 
B( 16-C , 17-C ) :   1.4272 B( 16-C , 20-S ) :   0.8820 B( 17-C , 18-C ) :   1.4288 
B( 17-C , 35-H ) :   0.9028 B( 18-C , 19-C ) :   1.4374 B( 18-C , 36-H ) :   0.9473 
B( 19-C , 37-H ) :   0.9038 B( 20-S , 21-O ) :   1.8543 B( 20-S , 22-O ) :   1.8257 
B( 20-S , 23-O ) :   1.0522 B( 23-O , 38-H ) :   0.8488 

-------
TIMINGS
-------

Total SCF time: 0 days 0 hours 2 min 35 sec 

Total time                  ....     155.423 sec
Sum of individual times     ....     155.523 sec  (100.1%)

SCF preparation             ....       0.341 sec  (  0.2%)
Fock matrix formation       ....     149.764 sec  ( 96.4%)
  Startup                   ....       0.175 sec  (  0.1% of F)
  Split-RI-J                ....      10.997 sec  (  7.3% of F)
  Chain of spheres X        ....     109.125 sec  ( 72.9% of F)
  XC integration            ....      29.016 sec  ( 19.4% of F)
    Basis function eval.    ....       4.103 sec  ( 14.1% of XC)
    Density eval.           ....      12.358 sec  ( 42.6% of XC)
    XC-Functional eval.     ....       0.499 sec  (  1.7% of XC)
    XC-Potential eval.      ....      11.024 sec  ( 38.0% of XC)
Diagonalization             ....       0.000 sec  (  0.0%)
Density matrix formation    ....       0.464 sec  (  0.3%)
Total Energy calculation    ....       0.172 sec  (  0.1%)
Population analysis         ....       0.265 sec  (  0.2%)
Orbital Transformation      ....       0.650 sec  (  0.4%)
Orbital Orthonormalization  ....       0.000 sec  (  0.0%)
DIIS solution               ....       2.664 sec  (  1.7%)
SOSCF solution              ....       1.203 sec  (  0.8%)
Finished LeanSCF after 155.5 sec

Maximum memory used throughout the entire LEANSCF-calculation: 124.5 MB


-------------------------------------------------------------------------------
                          DFT DISPERSION CORRECTION                            
                                                                               
                              DFTD3 V3.1  Rev 1                                
                              USING zero damping                               
-------------------------------------------------------------------------------
The M062X functional is recognized
Active option DFTDOPT                   ...         3   

molecular C6(AA) [au] = 23562.066293 


            DFT-D V3
 parameters
 s6 scaling factor         :     1.0000 
 rs6 scaling factor        :     1.6190 
 s8 scaling factor         :     0.0000 
 rs8 scaling factor        :     1.0000 
 Damping factor alpha6     :    14.0000 
 Damping factor alpha8     :    16.0000 
 ad hoc parameters k1-k3   :    16.0000     1.3333    -4.0000 

 Edisp/kcal,au: -1.943439173739  -0.003097067131 
 E6   /kcal   :  -1.943439174 
 E8   /kcal   :  -0.000000000 
 % E8         :   0.000000000 

-------------------------   ----------------
Dispersion correction           -0.003097067
-------------------------   ----------------


-------------------------   --------------------
FINAL SINGLE POINT ENERGY     -1735.375857928404
-------------------------   --------------------



           ************************************************************
           *        Program running with 6 parallel MPI-processes     *
           *              working on a common directory               *
           ************************************************************

------------------------------------------------------------------------------
                              ORCA PROPERTY CALCULATIONS
------------------------------------------------------------------------------

GBWName                                 ... data/single_point_PO_M06-2x/195868/195868.gbw
Number of atoms                         ...     39
Number of basis functions               ...    846
Max core memory                         ...   1024 MB

Electric properties:
Dipole moment                           ... YES
Quadrupole moment                       ...  NO
Static polarizability (Dipole/Dipole)   ...  NO
Static polarizability (Dipole/Quad.)    ...  NO
Static polarizability (Quad./Quad.)     ...  NO
Static polarizability (Velocity)        ...  NO

Atomic electric properties:
Dipole moment                           ...  NO
Quadrupole moment                       ...  NO
Static polarizability                   ...  NO

Choice of electric origin               ... Center of mass
Position of electric origin             ...     0.806571    -0.016977     0.487493

General magnetic properties:
Magnetizability                         ...  NO

EPR properties:
g-Tensor (aka g-matrix)                 ...  NO
Zero-Field splitting spin-orbit         ...  NO
Zero-field splitting spin-spin          ...  NO
Hyperfine couplings                     ...  NO (   0 nuclei)
Quadrupole couplings                    ...  NO (   0 nuclei)
Contact density                         ...  NO (   0 nuclei)

NMR properties:
Chemical shifts                         ...  NO (   0 nuclei)
Spin-rotation constants                 ...  NO (   0 nuclei)
Spin-spin couplings                     ...  NO (   0 nuclei,    0 pairs)

Choice of magnetic origin               ... GIAO
Position of magnetic origin             ...     0.000000     0.000000     0.000000

Properties with geometric perturbations:
SCF Hessian                             ...  NO
IR spectrum                             ...  NO
VCD spectrum                            ...  NO
X-ray spectroscopy properties:
SCF XES/XAS/RIXS spectra                ...  NO


-------------
DIPOLE MOMENT
-------------

Method             : SCF
Type of density    : Electron Density
Multiplicity       :   1
Irrep              :   0
Energy             : -1735.3727608612728091 Eh
Relativity type    : 
Basis              : AO
                                X                 Y                 Z
Electronic contribution:      9.602878418      -0.894289430       1.808092740
Nuclear contribution   :     -9.661066611       1.048383581      -2.054930950
                        -----------------------------------------
Total Dipole Moment    :     -0.058188193       0.154094152      -0.246838209
                        -----------------------------------------
Magnitude (a.u.)       :      0.296749010
Magnitude (Debye)      :      0.754276040



--------------------
Rotational spectrum 
--------------------
 
Rotational constants in cm-1:             0.008620             0.005150             0.004373 
Rotational constants in MHz :           258.431614           154.390423           131.101014 

Dipole components along the rotational axes: 
x,y,z [a.u.] :     0.138788     0.206672    -0.161507 
x,y,z [Debye]:     0.352771     0.525319    -0.410518 

 

Dipole moment calculation done in   0.1 sec 

Maximum memory used throughout the entire PROP-calculation: 68.7 MB

--------------------------------
SUGGESTED CITATIONS FOR THIS RUN
--------------------------------

Below you find a list of papers that are relevant to this ORCA run
We neither can nor want to force you to cite these papers, but we appreciate if you do
You receive ORCA, which is the product of decades of hard work by many enthusiastic individuals, for free
The only thing we kindly ask in return is that you cite our papers,
We deeply appreciate it, if you show your appreciation for ORCA by not just citing the generic ORCA reference.

Please note that relegating all ORCA citations to the supporting information does *not* help us.
SI sections are not indexed - citations you put there will not count into any citation statistics
But we need these citations in order to attract the funding resources that allow us to do what we are doing

Therefore, if you are a happy ORCA user, please consider citing a few of the papers listed below in the main body of your paper

In addition to the list printed below, the program has created the file data/single_point_PO_M06-2x/195868/195868.bibtex that contains the list in bibtex format
You can import this file easily into all common literature databanks and citation aid programs


List of essential papers. We consider these as the minimum necessary citations

  1. Neese,F.
     Software update: the ORCA program system, version 5.0
     WIRES Comput. Molec. Sci., 2022 12(1)e1606
     doi.org/10.1002/wcms.1606

List of papers to cite with high priority. The work reported in these papers was absolutely
necessary for this run to complete.
Our perspective: the developers of density functionals and basis sets usually get cited in chemistry papers
Good! But without the algorithms to do something with them, the functionals or basis sets would not do anything.
Hence, in our opinion, the algorithm design and method developments papers are equally worthy of getting cited

  1. Neese,F.
     An improvement of the resolution of the identity approximation for the formation of the Coulomb matrix
     J. Comp. Chem., 2003 24(14)1740-1747
     doi.org/10.1002/jcc.10318
  2. Neese,F.; Wennmohs,F.; Hansen,A.; Becker,U.
     Efficient, approximate and parallel Hartree-Fock and hybrid DFT calculations. A 'chain-of-spheres' algorithm for the Hartree-Fock exchange
     Chem. Phys., 2009 356(1-3)98-109
     doi.org/10.1016/j.chemphys.2008.10.036
  3. Helmich-Paris,B.; de Souza,B.; Neese,F.; Izsák,R.
     An improved chain of spheres for exchange algorithm
     J. Chem. Phys., 2021 155 104109
     doi.org/doi: 10.1063/5.0058766.
  4. Neese,F.
     The SHARK Integral Generation and Digestion System
     J. Comp. Chem., 2022  1-16
     doi.org/10.1002/jcc.26942
  5. Grimme,S.; Antony,J.; Ehrlich,S.; Krieg,H.
     A consistent and accurate ab initio parametrization of density functional dispersion correction (DFT-D) for the 94 elements H-Pu
     J. Chem. Phys., 2010 132 154104-XXXX
     doi.org/10.1063/1.3382344

List of suggested additional citations. These are papers that are important in the 'surrounding' of 
of this run, or papers that preceded the highly important papers. If you like your results we are grateful for a citation.

  1. Izsak,R.; Neese,F.
     An overlap fitted chain of spheres exchange method
     J. Chem. Phys., 2011 135 144105
     doi.org/10.1063/1.3646921
  2. Izsak,R.; Hansen,A.; Neese,F.
     The resolution of identity and chain of spheres approximations for the LPNO-CCSD singles Fock term
     Molec. Phys., 2012 110 2413-2417
     doi.org/10.1080/00268976.2012.687466
  3. Neese,F.
     The ORCA program system
     WIRES Comput. Molec. Sci., 2012 2(1)73-78
     doi.org/10.1002/wcms.81
  4. Izsak,R.; Neese,F.; Klopper,W.
     Robust fitting techniques in the chain of spheres approximation to the Fock exchange: The role of the complementary space
     J. Chem. Phys., 2013 139 
     doi.org/10.1063/1.4819264
  5. Neese,F.
     Software update: the ORCA program system, version 4.0
     WIRES Comput. Molec. Sci., 2018 8(1)1-6
     doi.org/10.1002/wcms.1327
  6. Neese,F.; Wennmohs,F.; Becker,U.; Riplinger,C.
     The ORCA quantum chemistry program package
     J. Chem. Phys., 2020 152 Art. No. L224108
     doi.org/10.1063/5.0004608

List of optional additional citations

  1. Neese,F.
     Approximate second-order SCF convergence for spin unrestricted wavefunctions
     Chem. Phys. Lett., 2000 325(1-3)93-98
     doi.org/10.1016/s0009-2614(00)00662-x

Timings for individual modules:

Sum of individual times          ...      163.008 sec (=   2.717 min)
Startup calculation              ...        4.837 sec (=   0.081 min)   3.0 %
SCF iterations                   ...      157.851 sec (=   2.631 min)  96.8 %
Property calculations            ...        0.320 sec (=   0.005 min)   0.2 %
                             ****ORCA TERMINATED NORMALLY****
TOTAL RUN TIME: 0 days 0 hours 2 minutes 43 seconds 282 msec
