
                                 *****************
                                 * O   R   C   A *
                                 *****************

                                            #,                                       
                                            ###                                      
                                            ####                                     
                                            #####                                    
                                            ######                                   
                                           ########,                                 
                                     ,,################,,,,,                         
                               ,,#################################,,                 
                          ,,##########################################,,             
                       ,#########################################, ''#####,          
                    ,#############################################,,   '####,        
                  ,##################################################,,,,####,       
                ,###########''''           ''''###############################       
              ,#####''   ,,,,##########,,,,          '''####'''          '####       
            ,##' ,,,,###########################,,,                        '##       
           ' ,,###''''                  '''############,,,                           
         ,,##''                                '''############,,,,        ,,,,,,###''
      ,#''                                            '''#######################'''  
     '                                                          ''''####''''         
             ,#######,   #######,   ,#######,      ##                                
            ,#'     '#,  ##    ##  ,#'     '#,    #''#        ,####,   ,####,        
            ##       ##  ##   ,#'  ##            #'  '#       #'       #'  '#        
            ##       ##  #######   ##           ,######,      #####,   #    #        
            '#,     ,#'  ##    ##  '#,     ,#' ,#      #,     #,   #   #,  ,#        
             '#######'   ##     ##  '#######'  #'      '#     '####' # '####'        



                #########################################################
                #                        -***-                          #
                #          Department of theory and spectroscopy        #
                #                                                       #
                #                      Frank Neese                      #
                #                                                       #
                #     Directorship, Architecture, Infrastructure        #
                #                    SHARK, DRIVERS                     #
                #        Core code/Algorithms in most modules           #
                #                                                       #
                #        Max Planck Institute fuer Kohlenforschung      #
                #                Kaiser Wilhelm Platz 1                 #
                #                 D-45470 Muelheim/Ruhr                 #
                #                      Germany                          #
                #                                                       #
                #                  All rights reserved                  #
                #                        -***-                          #
                #########################################################


                         Program Version 6.0.0  -   RELEASE   -


 With contributions from (in alphabetic order):
   Daniel Aravena         : Magnetic Suceptibility
   Michael Atanasov       : Ab Initio Ligand Field Theory (pilot matlab implementation)
   Alexander A. Auer      : GIAO ZORA, VPT2 properties, NMR spectrum
   Ute Becker             : All parallelization in ORCA, NUMFREQ, NUMCALC
   Giovanni Bistoni       : ED, misc. LED, open-shell LED, HFLD
   Martin Brehm           : Molecular dynamics
   Dmytro Bykov           : pre 5.0 version of the SCF Hessian
   Marcos Casanova-Páez   : Triplet and SCS-CIS(D). UHF-(DLPNO)-IP/EA/STEOM-CCSD. UHF-CVS-IP/STEOM-CCSD
   Vijay G. Chilkuri      : MRCI spin determinant printing, contributions to CSF-ICE
   Pauline Colinet        : FMM embedding
   Dipayan Datta          : RHF DLPNO-CCSD density
   Achintya Kumar Dutta   : EOM-CC, STEOM-CC
   Nicolas Foglia         : Exact transition moments, OPA infrastructure, MCD improvements
   Dmitry Ganyushin       : Spin-Orbit,Spin-Spin,Magnetic field MRCI
   Miquel Garcia          : C-PCM and meta-GGA Hessian, CCSD/C-PCM, Gaussian charge scheme
   Tiago L. C. Gouveia    : GS-ROHF, GS-ROCIS
   Yang Guo               : DLPNO-NEVPT2, F12-NEVPT2, CIM, IAO-localization
   Andreas Hansen         : Spin unrestricted coupled pair/coupled cluster methods
   Ingolf Harden          : AUTO-CI MPn and infrastructure 
   Benjamin Helmich-Paris : MC-RPA, TRAH-(SCF,CASSCF), AVAS, COSX integrals, SCF dyn. polar.
   Lee Huntington         : MR-EOM, pCC
   Robert Izsak           : Overlap fitted RIJCOSX, COSX-SCS-MP3, EOM
   Riya Kayal             : Wick's Theorem for AUTO-CI, AUTO-CI UHF-CCSDT
   Emily Kempfer          : AUTO-CI, RHF CISDT and CCSDT
   Christian Kollmar      : KDIIS, OOCD, Brueckner-CCSD(T), CCSD density, CASPT2, CASPT2-K, improved NEVPT2
   Axel Koslowski         : Symmetry handling
   Simone Kossmann        : Meta GGA functionals, TD-DFT gradient, OOMP2, (MP2 Hessian; deprecated post 5.0)
   Lucas Lang             : DCDCAS
   Marvin Lechner         : AUTO-CI (C++ implementation), FIC-MRCC
   Spencer Leger          : CASSCF response
   Dagmar Lenk            : GEPOL surface, SMD, ORCA-2-JSON
   Dimitrios Liakos       : Extrapolation schemes; Compound Job, initial MDCI parallelization
   Dimitrios Manganas     : Further ROCIS development; embedding schemes. LFT, Crystal Embedding
   Dimitrios Pantazis     : SARC Basis sets
   Anastasios Papadopoulos: AUTO-CI, single reference methods and gradients
   Taras Petrenko         : pre 6.0 DFT Hessian and TD-DFT gradient, (ASA, deprecated), ECA, 1-Electron XAS/XES, NRVS
   Peter Pinski           : DLPNO-MP2, DLPNO-MP2 Gradient
   Christoph Reimann      : Effective Core Potentials
   Marius Retegan         : Local ZFS, SOC
   Christoph Riplinger    : Optimizer, TS searches, QM/MM, DLPNO-CCSD(T), (RO)-DLPNO pert. Triples
   Michael Roemelt        : Original ROCIS implementation
   Masaaki Saitow         : Open-shell DLPNO-CCSD energy and density
   Barbara Sandhoefer     : DKH picture change effects
   Kantharuban Sivalingam : CASSCF convergence/infrastructure, NEVPT2 and variants, FIC-MRCI
   Bernardo de Souza      : ESD, SOC TD-DFT
   Georgi Stoychev        : AutoAux, RI-MP2 NMR, DLPNO-MP2 response, X2C
   Van Anh Tran           : RI-MP2 g-tensors
   Willem Van den Heuvel  : Paramagnetic NMR
   Zikuan Wang            : NOTCH, Electric field optimization 
   Frank Wennmohs         : Technical directorship and infrastructure
   Hang Xu                : AUTO-CI-Response properties 


 We gratefully acknowledge several colleagues who have allowed us to
 interface, adapt or use parts of their codes:
   Stefan Grimme, W. Hujo, H. Kruse, P. Pracht,  : VdW corrections, initial TS optimization,
                  C. Bannwarth, S. Ehlert,         DFT functionals, gCP, sTDA/sTD-DF
                  L. Wittmann, M. Mueller
   Ed Valeev, F. Pavosevic, A. Kumar             : LibInt (2-el integral package), F12 methods
   Garnet Chan, S. Sharma, J. Yang, R. Olivares  : DMRG
   Ulf Ekstrom                                   : XCFun DFT Library
   Mihaly Kallay                                 : mrcc  (arbitrary order and MRCC methods)
   Frank Weinhold                                : gennbo (NPA and NBO analysis)
   Simon Mueller                                 : openCOSMO-RS
   Christopher J. Cramer and Donald G. Truhlar   : smd solvation model
   Lars Goerigk                                  : TD-DFT with DH, B97 family of functionals
   V. Asgeirsson, H. Jonsson                     : NEB implementation
   FAccTs GmbH                                   : IRC, NEB, NEB-TS, DLPNO-Multilevel, CI-OPT
                                                   MM, QMMM, 2- and 3-layer-ONIOM, Crystal-QMMM,
                                                   LR-CPCM, SF, NACMEs, symmetry and pop. for TD-DFT,
                                                   nearIR, NL-DFT gradient (VV10), updates on ESD,
                                                   ML-optimized integration grids, MBIS, APM,
                                                   GOAT, DOCKER, SOLVATOR, interface openCOSMO-RS
   S Lehtola, MJT Oliveira, MAL Marques          : LibXC Library
   Liviu Ungur et al                             : ANISO software


 Your calculation uses the libint2 library for the computation of 2-el integrals
 For citations please refer to: http://libint.valeyev.net

 Your ORCA version has been built with support for libXC version: 6.2.2
 For citations please refer to: https://libxc.gitlab.io

 This ORCA versions uses:
   CBLAS   interface :  Fast vector & matrix operations
   LAPACKE interface :  Fast linear algebra routines
   Shared memory     :  Shared parallel matrices


Your calculation utilizes the atom-pairwise dispersion correction
with the Becke-Johnson damping scheme (D3BJ)


Warning: RI is on but no J-basis has been assigned. Assigning Def2/J (nothing to worry about!)
================================================================================

----- Orbital basis set information -----
Your calculation utilizes the basis: def2-SVP
   F. Weigend and R. Ahlrichs, Phys. Chem. Chem. Phys. 7, 3297 (2005).

----- AuxJ basis set information -----
Your calculation utilizes the auxiliary basis: def2/J
   F. Weigend, Phys. Chem. Chem. Phys. 8, 1057 (2006).

================================================================================
                                        WARNINGS
                       Please study these warnings very carefully!
================================================================================


WARNING: Geometry Optimization
  ===> : Switching off AutoStart
         For restart on a previous wavefunction, please use MOREAD

================================================================================
                                       INPUT FILE
================================================================================
NAME = data/geom_opt/69082/69082.inp
|  1> ! RIJONX B3LYP def2-SVP D3BJ TIGHTSCF Opt
|  2> %pal
|  3> nprocs 6
|  4> end
|  5> 
|  6> * xyz 0 1
|  7> C     -1.212467    3.167952   -0.099322
|  8> C      0.056621    2.332034   -0.183779
|  9> P      0.077361    0.953547    1.045446
| 10> C     -1.262265   -0.113608    0.411749
| 11> C     -2.346613   -0.403823    1.253162
| 12> C     -3.399415   -1.209064    0.810894
| 13> C     -3.381772   -1.734593   -0.478660
| 14> C     -2.312263   -1.455898   -1.326041
| 15> C     -1.259848   -0.649906   -0.884262
| 16> C      1.570013   -0.007023    0.601277
| 17> C      1.637727   -1.375836    0.915104
| 18> C      2.770217   -2.135443    0.607562
| 19> C      3.864815   -1.535896   -0.006455
| 20> C      3.828741   -0.176979   -0.304210
| 21> C      2.693974    0.581605    0.003611
| 22> H     -1.354739    3.582755    0.904640
| 23> H     -1.155113    4.005878   -0.802064
| 24> H     -2.103230    2.584351   -0.353970
| 25> H      0.905355    2.994344    0.018455
| 26> H      0.176041    1.955421   -1.205167
| 27> H     -2.382273   -0.004301    2.264710
| 28> H     -4.232031   -1.424789    1.475234
| 29> H     -4.199903   -2.361847   -0.822440
| 30> H     -2.293404   -1.867074   -2.331897
| 31> H     -0.433519   -0.453698   -1.563800
| 32> H      0.801985   -1.871820    1.405854
| 33> H      2.794208   -3.193699    0.853638
| 34> H      4.747131   -2.123988   -0.243683
| 35> H      4.687240    0.299037   -0.770999
| 36> H      2.717427    1.642359   -0.227573
| 37> **                         ****END OF INPUT****
================================================================================

                       *****************************
                       * Geometry Optimization Run *
                       *****************************

Geometry optimization settings:
Update method            Update   .... BFGS
Choice of coordinates    CoordSys .... (2022) Redundant Internals
Initial Hessian          InHess   .... Almloef's Model
Max. no of cycles        MaxIter  .... 90

Convergence Tolerances:
Energy Change            TolE     ....  5.0000e-06 Eh
Max. Gradient            TolMAXG  ....  3.0000e-04 Eh/bohr
RMS Gradient             TolRMSG  ....  1.0000e-04 Eh/bohr
Max. Displacement        TolMAXD  ....  4.0000e-03 bohr
RMS Displacement         TolRMSD  ....  2.0000e-03 bohr
Strict Convergence                .... False

------------------------------------------------------------------------------
                        ORCA OPTIMIZATION COORDINATE SETUP
------------------------------------------------------------------------------

The optimization will be done in redundant internal coordinates (2022)
Making redundant internal coordinates   ...  (2022 redundants) done
Evaluating the initial hessian          ...  (Almloef) done
Evaluating the coordinates              ...  done
Calculating the B-matrix                .... done
Calculating the G-matrix                .... done
Diagonalizing the G-matrix              .... done
Small eigenvalue found = 6.277e-03
Small eigenvalue found = 1.148e-02
Small eigenvalue found = 1.759e-02
The first mode is                       ....   65
The number of degrees of freedom        ....   84

    -----------------------------------------------------------------
                    Redundant Internal Coordinates


    -----------------------------------------------------------------
         Definition                    Initial Value    Approx d2E/dq
    -----------------------------------------------------------------
      1. B(C   1,C   0)                  1.5220         0.384720   
      2. B(P   2,C   1)                  1.8471         0.391754   
      3. B(C   3,P   2)                  1.8262         0.422971   
      4. B(C   4,C   3)                  1.4029         0.595970   
      5. B(C   5,C   4)                  1.3973         0.608297   
      6. B(C   6,C   5)                  1.3926         0.618770   
      7. B(C   7,C   6)                  1.3927         0.618661   
      8. B(C   8,C   7)                  1.3973         0.608326   
      9. B(C   8,C   3)                  1.4026         0.596551   
     10. B(C   9,P   2)                  1.8298         0.417481   
     11. B(C  10,C   9)                  1.4060         0.589219   
     12. B(C  11,C  10)                  1.3979         0.606929   
     13. B(C  12,C  11)                  1.3909         0.622721   
     14. B(C  13,C  12)                  1.3916         0.621082   
     15. B(C  14,C   9)                  1.4025         0.596778   
     16. B(C  14,C  13)                  1.3992         0.603923   
     17. B(H  15,C   0)                  1.0956         0.352825   
     18. B(H  16,C   0)                  1.0951         0.353409   
     19. B(H  17,C   0)                  1.0949         0.353623   
     20. B(H  18,C   1)                  1.0954         0.353026   
     21. B(H  19,C   1)                  1.0951         0.353364   
     22. B(H  20,C   4)                  1.0882         0.362526   
     23. B(H  21,C   5)                  1.0868         0.364358   
     24. B(H  22,C   6)                  1.0867         0.364459   
     25. B(H  23,C   7)                  1.0868         0.364338   
     26. B(H  24,C   8)                  1.0877         0.363157   
     27. B(H  25,C  10)                  1.0887         0.361804   
     28. B(H  26,C  11)                  1.0868         0.364419   
     29. B(H  27,C  12)                  1.0866         0.364681   
     30. B(H  28,C  13)                  1.0870         0.364131   
     31. B(H  29,C  14)                  1.0859         0.365555   
     32. A(C   1,C   0,H  15)          111.5359         0.324798   
     33. A(H  15,C   0,H  16)          107.7676         0.289058   
     34. A(C   1,C   0,H  16)          109.9355         0.324886   
     35. A(H  16,C   0,H  17)          107.5292         0.289161   
     36. A(C   1,C   0,H  17)          111.8824         0.324919   
     37. A(H  15,C   0,H  17)          108.0160         0.289086   
     38. A(C   0,C   1,H  19)          109.3632         0.324880   
     39. A(H  18,C   1,H  19)          107.1951         0.289078   
     40. A(C   0,C   1,P   2)          112.4778         0.391888   
     41. A(P   2,C   1,H  19)          111.2726         0.345972   
     42. A(P   2,C   1,H  18)          108.6433         0.345916   
     43. A(C   0,C   1,H  18)          107.6826         0.324828   
     44. A(C   3,P   2,C   9)          101.9705         0.429617   
     45. A(C   1,P   2,C   9)          103.8514         0.423758   
     46. A(C   1,P   2,C   3)          101.3584         0.424749   
     47. A(P   2,C   3,C   8)          122.8750         0.429359   
     48. A(P   2,C   3,C   4)          118.6705         0.429284   
     49. A(C   4,C   3,C   8)          118.4531         0.428021   
     50. A(C   3,C   4,C   5)          120.7818         0.429521   
     51. A(C   5,C   4,H  20)          118.7589         0.352173   
     52. A(C   3,C   4,H  20)          120.4594         0.350956   
     53. A(C   4,C   5,C   6)          120.0672         0.432426   
     54. A(C   6,C   5,H  21)          120.0552         0.353493   
     55. A(C   4,C   5,H  21)          119.8776         0.352473   
     56. A(C   5,C   6,C   7)          119.8431         0.433742   
     57. A(C   7,C   6,H  22)          120.0772         0.353499   
     58. A(C   5,C   6,H  22)          120.0797         0.353510   
     59. A(C   6,C   7,H  23)          120.0491         0.353479   
     60. A(C   6,C   7,C   8)          120.0972         0.432417   
     61. A(C   8,C   7,H  23)          119.8535         0.352473   
     62. A(C   7,C   8,H  24)          118.6024         0.352279   
     63. A(C   3,C   8,H  24)          120.6378         0.351117   
     64. A(C   3,C   8,C   7)          120.7576         0.429599   
     65. A(P   2,C   9,C  10)          119.7494         0.427405   
     66. A(C  10,C   9,C  14)          117.7191         0.427177   
     67. A(P   2,C   9,C  14)          122.4711         0.428383   
     68. A(C   9,C  10,C  11)          121.2616         0.428471   
     69. A(C  11,C  10,H  25)          118.2625         0.351920   
     70. A(C   9,C  10,H  25)          120.4759         0.350164   
     71. A(C  10,C  11,C  12)          120.0294         0.432746   
     72. A(C  12,C  11,H  26)          120.1543         0.353885   
     73. A(C  10,C  11,H  26)          119.8157         0.352349   
     74. A(C  13,C  12,H  27)          120.1892         0.353770   
     75. A(C  11,C  12,H  27)          120.1404         0.353928   
     76. A(C  11,C  12,C  13)          119.6679         0.434545   
     77. A(C  14,C  13,H  28)          119.8398         0.352006   
     78. A(C  12,C  13,H  28)          119.9370         0.353679   
     79. A(C  12,C  13,C  14)          120.2217         0.432156   
     80. A(C  13,C  14,H  29)          117.7250         0.352238   
     81. A(C   9,C  14,H  29)          121.1991         0.351530   
     82. A(C   9,C  14,C  13)          121.0735         0.429069   
     83. D(H  18,C   1,C   0,H  16)     56.9623         0.011782   
     84. D(P   2,C   1,C   0,H  15)     57.1547         0.011782   
     85. D(P   2,C   1,C   0,H  17)    -63.9639         0.011782   
     86. D(P   2,C   1,C   0,H  16)    176.6337         0.011782   
     87. D(H  18,C   1,C   0,H  15)    -62.5166         0.011782   
     88. D(H  18,C   1,C   0,H  17)    176.3647         0.011782   
     89. D(C   3,P   2,C   1,C   0)     67.4946         0.003575   
     90. D(C   9,P   2,C   1,C   0)    173.0054         0.003575   
     91. D(C   3,P   2,C   1,H  19)    -55.6081         0.003575   
     92. D(C   9,P   2,C   1,H  18)    -67.8828         0.003575   
     93. D(C   3,P   2,C   1,H  18)   -173.3936         0.003575   
     94. D(C   8,C   3,P   2,C   1)     57.9906         0.003725   
     95. D(C   4,C   3,P   2,C   9)    131.4378         0.003725   
     96. D(C   8,C   3,P   2,C   9)    -48.9994         0.003725   
     97. D(C   4,C   3,P   2,C   1)   -121.5722         0.003725   
     98. D(H  20,C   4,C   3,P   2)     -0.3756         0.024468   
     99. D(C   5,C   4,C   3,C   8)      0.0394         0.024468   
    100. D(C   5,C   4,C   3,P   2)    179.6218         0.024468   
    101. D(H  20,C   4,C   3,C   8)   -179.9579         0.024468   
    102. D(H  21,C   5,C   4,H  20)     -0.0260         0.025547   
    103. D(H  21,C   5,C   4,C   3)    179.9766         0.025547   
    104. D(C   6,C   5,C   4,H  20)    179.9918         0.025547   
    105. D(C   6,C   5,C   4,C   3)     -0.0056         0.025547   
    106. D(H  22,C   6,C   5,H  21)     -0.0544         0.026488   
    107. D(H  22,C   6,C   5,C   4)    179.9277         0.026488   
    108. D(C   7,C   6,C   5,H  21)   -179.9658         0.026488   
    109. D(C   7,C   6,C   5,C   4)      0.0163         0.026488   
    110. D(H  23,C   7,C   6,H  22)     -0.1222         0.026478   
    111. D(H  23,C   7,C   6,C   5)    179.7892         0.026478   
    112. D(C   8,C   7,C   6,H  22)   -179.9732         0.026478   
    113. D(C   8,C   7,C   6,C   5)     -0.0618         0.026478   
    114. D(H  24,C   8,C   7,C   6)    179.5737         0.025550   
    115. D(C   3,C   8,C   7,H  23)   -179.7539         0.025550   
    116. D(C   3,C   8,C   7,C   6)      0.0973         0.025550   
    117. D(H  24,C   8,C   3,C   4)   -179.5508         0.024518   
    118. D(H  24,C   8,C   3,P   2)      0.8855         0.024518   
    119. D(C   7,C   8,C   3,C   4)     -0.0852         0.024518   
    120. D(H  24,C   8,C   7,H  23)     -0.2776         0.025550   
    121. D(C   7,C   8,C   3,P   2)   -179.6489         0.024518   
    122. D(C  14,C   9,P   2,C   3)    134.0576         0.003666   
    123. D(C  14,C   9,P   2,C   1)     29.0094         0.003666   
    124. D(C  10,C   9,P   2,C   3)    -48.8348         0.003666   
    125. D(C  10,C   9,P   2,C   1)   -153.8831         0.003666   
    126. D(H  25,C  10,C   9,C  14)    178.2428         0.023889   
    127. D(H  25,C  10,C   9,P   2)      0.9992         0.023889   
    128. D(C  11,C  10,C   9,C  14)     -1.8354         0.023889   
    129. D(C  11,C  10,C   9,P   2)   -179.0789         0.023889   
    130. D(H  26,C  11,C  10,H  25)      0.4128         0.025426   
    131. D(H  26,C  11,C  10,C   9)   -179.5107         0.025426   
    132. D(C  12,C  11,C  10,H  25)   -179.3105         0.025426   
    133. D(C  12,C  11,C  10,C   9)      0.7660         0.025426   
    134. D(H  27,C  12,C  11,H  26)      0.0994         0.026848   
    135. D(H  27,C  12,C  11,C  10)    179.8217         0.026848   
    136. D(C  13,C  12,C  11,H  26)   -179.3207         0.026848   
    137. D(C  13,C  12,C  11,C  10)      0.4017         0.026848   
    138. D(H  28,C  13,C  12,H  27)     -0.2998         0.026698   
    139. D(H  28,C  13,C  12,C  11)    179.1200         0.026698   
    140. D(C  14,C  13,C  12,H  27)   -179.8621         0.026698   
    141. D(C  14,C  13,C  12,C  11)     -0.4423         0.026698   
    142. D(H  29,C  14,C   9,C  10)   -177.6298         0.024538   
    143. D(H  29,C  14,C   9,P   2)     -0.4665         0.024538   
    144. D(C  13,C  14,C   9,C  10)      1.7915         0.024538   
    145. D(C  13,C  14,C   9,P   2)    178.9548         0.024538   
    146. D(H  29,C  14,C  13,H  28)     -0.8072         0.025161   
    147. D(H  29,C  14,C  13,C  12)    178.7556         0.025161   
    148. D(C   9,C  14,C  13,H  28)    179.7520         0.025161   
    149. D(C   9,C  14,C  13,C  12)     -0.6853         0.025161   
    -----------------------------------------------------------------

Number of atoms                         .... 30
Number of degrees of freedom            .... 149


         *************************************************************
         *                GEOMETRY OPTIMIZATION CYCLE   1            *
         *************************************************************
---------------------------------
CARTESIAN COORDINATES (ANGSTROEM)
---------------------------------
  C     -1.212467    3.167952   -0.099322
  C      0.056621    2.332034   -0.183779
  P      0.077361    0.953547    1.045446
  C     -1.262265   -0.113608    0.411749
  C     -2.346613   -0.403823    1.253162
  C     -3.399415   -1.209064    0.810894
  C     -3.381772   -1.734593   -0.478660
  C     -2.312263   -1.455898   -1.326041
  C     -1.259848   -0.649906   -0.884262
  C      1.570013   -0.007023    0.601277
  C      1.637727   -1.375836    0.915104
  C      2.770217   -2.135443    0.607562
  C      3.864815   -1.535896   -0.006455
  C      3.828741   -0.176979   -0.304210
  C      2.693974    0.581605    0.003611
  H     -1.354739    3.582755    0.904640
  H     -1.155113    4.005878   -0.802064
  H     -2.103230    2.584351   -0.353970
  H      0.905355    2.994344    0.018455
  H      0.176041    1.955421   -1.205167
  H     -2.382273   -0.004301    2.264710
  H     -4.232031   -1.424789    1.475234
  H     -4.199903   -2.361847   -0.822440
  H     -2.293404   -1.867074   -2.331897
  H     -0.433519   -0.453698   -1.563800
  H      0.801985   -1.871820    1.405854
  H      2.794208   -3.193699    0.853638
  H      4.747131   -2.123988   -0.243683
  H      4.687240    0.299037   -0.770999
  H      2.717427    1.642359   -0.227573

----------------------------
CARTESIAN COORDINATES (A.U.)
----------------------------
  NO LB      ZA    FRAG     MASS         X           Y           Z
   0 C     6.0000    0    12.011   -2.291231    5.986562   -0.187691
   1 C     6.0000    0    12.011    0.106998    4.406906   -0.347292
   2 P    15.0000    0    30.974    0.146191    1.801943    1.975607
   3 C     6.0000    0    12.011   -2.385335   -0.214688    0.778093
   4 C     6.0000    0    12.011   -4.434456   -0.763115    2.368133
   5 C     6.0000    0    12.011   -6.423963   -2.284800    1.532368
   6 C     6.0000    0    12.011   -6.390623   -3.277906   -0.904536
   7 C     6.0000    0    12.011   -4.369544   -2.751248   -2.505854
   8 C     6.0000    0    12.011   -2.380768   -1.228144   -1.671013
   9 C     6.0000    0    12.011    2.966895   -0.013272    1.136249
  10 C     6.0000    0    12.011    3.094856   -2.599953    1.729296
  11 C     6.0000    0    12.011    5.234951   -4.035402    1.148126
  12 C     6.0000    0    12.011    7.303442   -2.902423   -0.012198
  13 C     6.0000    0    12.011    7.235272   -0.334442   -0.574874
  14 C     6.0000    0    12.011    5.090873    1.099074    0.006824
  15 H     1.0000    0     1.008   -2.560086    6.770426    1.709522
  16 H     1.0000    0     1.008   -2.182847    7.570012   -1.515681
  17 H     1.0000    0     1.008   -3.974529    4.883716   -0.668906
  18 H     1.0000    0     1.008    1.710873    5.658490    0.034875
  19 H     1.0000    0     1.008    0.332669    3.695210   -2.277436
  20 H     1.0000    0     1.008   -4.501844   -0.008128    4.279682
  21 H     1.0000    0     1.008   -7.997380   -2.692461    2.787788
  22 H     1.0000    0     1.008   -7.936666   -4.463244   -1.554186
  23 H     1.0000    0     1.008   -4.333905   -3.528259   -4.406647
  24 H     1.0000    0     1.008   -0.819232   -0.857365   -2.955154
  25 H     1.0000    0     1.008    1.515532   -3.537227    2.656679
  26 H     1.0000    0     1.008    5.280288   -6.035216    1.613142
  27 H     1.0000    0     1.008    8.970778   -4.013756   -0.460494
  28 H     1.0000    0     1.008    8.857600    0.565098   -1.456977
  29 H     1.0000    0     1.008    5.135193    3.103609   -0.430051

--------------------------------
INTERNAL COORDINATES (ANGSTROEM)
--------------------------------
 C      0   0   0     0.000000000000     0.00000000     0.00000000
 C      1   0   0     1.521997450496     0.00000000     0.00000000
 P      2   1   0     1.847065417735   112.47784481     0.00000000
 C      3   2   1     1.826195362416   101.35843032    67.49459603
 C      4   3   2     1.402858213754   118.67050340   238.42779253
 C      5   4   3     1.397285261895   120.78175603   179.62177972
 C      6   5   4     1.392638332162   120.06716679     0.00000000
 C      7   6   5     1.392686240065   119.84309102     0.00000000
 C      8   7   6     1.397272028322   120.09719315   359.93820079
 C      3   2   1     1.829751572910   103.85137537   173.00535568
 C     10   3   2     1.405959316870   119.74941095   206.11694451
 C     11  10   3     1.397897877641   121.26159061   180.92105799
 C     12  11  10     1.390905555062   120.02944576     0.76604295
 C     13  12  11     1.391623076264   119.66786514     0.40165704
 C     14  13  12     1.399249655132   120.22173869   359.55769898
 H      1   2   3     1.095555817034   111.53591295    57.15473733
 H      1   2   3     1.095105374544   109.93553466   176.63368938
 H      1   2   3     1.094940388000   111.88237850   296.03608257
 H      2   1   3     1.095400625165   107.68262073   240.32864951
 H      2   1   3     1.095140143869   109.36316296   124.16551798
 H      5   4   3     1.088172238383   120.45935934   359.62444650
 H      6   5   4     1.086800034358   119.87761937   179.97657661
 H      7   6   5     1.086724713107   120.07965998   179.92771666
 H      8   7   6     1.086815374198   120.04914374   179.78917641
 H      9   8   7     1.087698988208   118.60241170   179.57371718
 H     11  10   3     1.088715013821   120.47589739     0.99923808
 H     12  11  10     1.086754216644   119.81568651   180.48931522
 H     13  12  11     1.086559178464   120.14035757   179.82174925
 H     14  13  12     1.086969979244   119.93700522   179.12000547
 H     15  14  13     1.085907516127   117.72500809   178.75556175

---------------------------
INTERNAL COORDINATES (A.U.)
---------------------------
 C      0   0   0     0.000000000000     0.00000000     0.00000000
 C      1   0   0     2.876158357964     0.00000000     0.00000000
 P      2   1   0     3.490447790957   112.47784481     0.00000000
 C      3   2   1     3.451009102003   101.35843032    67.49459603
 C      4   3   2     2.651017828718   118.67050340   238.42779253
 C      5   4   3     2.640486475946   120.78175603   179.62177972
 C      6   5   4     2.631705051386   120.06716679     0.00000000
 C      7   6   5     2.631795584204   119.84309102     0.00000000
 C      8   7   6     2.640461468117   120.09719315   359.93820079
 C      3   2   1     3.457729365911   103.85137537   173.00535568
 C     10   3   2     2.656878064320   119.74941095   206.11694451
 C     11  10   3     2.641644151931   121.26159061   180.92105799
 C     12  11  10     2.628430577217   120.02944576     0.76604295
 C     13  12  11     2.629786495784   119.66786514     0.40165704
 C     14  13  12     2.644198641183   120.22173869   359.55769898
 H      1   2   3     2.070300458619   111.53591295    57.15473733
 H      1   2   3     2.069449245674   109.93553466   176.63368938
 H      1   2   3     2.069137466290   111.88237850   296.03608257
 H      2   1   3     2.070007188488   107.68262073   240.32864951
 H      2   1   3     2.069514950175   109.36316296   124.16551798
 H      5   4   3     2.056347517080   120.45935934   359.62444650
 H      6   5   4     2.053754427273   119.87761937   179.97657661
 H      7   6   5     2.053612090736   120.07965998   179.92771666
 H      8   7   6     2.053783415369   120.04914374   179.78917641
 H      9   8   7     2.055453203857   118.60241170   179.57371718
 H     11  10   3     2.057373214011   120.47589739     0.99923808
 H     12  11  10     2.053667844341   119.81568651   180.48931522
 H     13  12  11     2.053299275595   120.14035757   179.82174925
 H     14  13  12     2.054075576565   119.93700522   179.12000547
 H     15  14  13     2.052067812247   117.72500809   178.75556175

---------------------
BASIS SET INFORMATION
---------------------
There are 3 groups of distinct atoms

 Group   1 Type C   : 7s4p1d contracted to 3s2p1d pattern {511/31/1}
 Group   2 Type P   : 10s7p1d contracted to 4s3p1d pattern {5311/511/1}
 Group   3 Type H   : 4s1p contracted to 2s1p pattern {31/1}

Atom   0C    basis set group =>   1
Atom   1C    basis set group =>   1
Atom   2P    basis set group =>   2
Atom   3C    basis set group =>   1
Atom   4C    basis set group =>   1
Atom   5C    basis set group =>   1
Atom   6C    basis set group =>   1
Atom   7C    basis set group =>   1
Atom   8C    basis set group =>   1
Atom   9C    basis set group =>   1
Atom  10C    basis set group =>   1
Atom  11C    basis set group =>   1
Atom  12C    basis set group =>   1
Atom  13C    basis set group =>   1
Atom  14C    basis set group =>   1
Atom  15H    basis set group =>   3
Atom  16H    basis set group =>   3
Atom  17H    basis set group =>   3
Atom  18H    basis set group =>   3
Atom  19H    basis set group =>   3
Atom  20H    basis set group =>   3
Atom  21H    basis set group =>   3
Atom  22H    basis set group =>   3
Atom  23H    basis set group =>   3
Atom  24H    basis set group =>   3
Atom  25H    basis set group =>   3
Atom  26H    basis set group =>   3
Atom  27H    basis set group =>   3
Atom  28H    basis set group =>   3
Atom  29H    basis set group =>   3
---------------------------------
AUXILIARY/J BASIS SET INFORMATION
---------------------------------
There are 3 groups of distinct atoms

 Group   1 Type C   : 12s5p4d2f1g contracted to 6s4p3d1f1g pattern {711111/2111/211/2/1}
 Group   2 Type P   : 14s5p5d2f1g contracted to 8s4p3d1f1g pattern {71111111/2111/311/2/1}
 Group   3 Type H   : 5s2p1d contracted to 3s1p1d pattern {311/2/1}

Atom   0C    basis set group =>   1
Atom   1C    basis set group =>   1
Atom   2P    basis set group =>   2
Atom   3C    basis set group =>   1
Atom   4C    basis set group =>   1
Atom   5C    basis set group =>   1
Atom   6C    basis set group =>   1
Atom   7C    basis set group =>   1
Atom   8C    basis set group =>   1
Atom   9C    basis set group =>   1
Atom  10C    basis set group =>   1
Atom  11C    basis set group =>   1
Atom  12C    basis set group =>   1
Atom  13C    basis set group =>   1
Atom  14C    basis set group =>   1
Atom  15H    basis set group =>   3
Atom  16H    basis set group =>   3
Atom  17H    basis set group =>   3
Atom  18H    basis set group =>   3
Atom  19H    basis set group =>   3
Atom  20H    basis set group =>   3
Atom  21H    basis set group =>   3
Atom  22H    basis set group =>   3
Atom  23H    basis set group =>   3
Atom  24H    basis set group =>   3
Atom  25H    basis set group =>   3
Atom  26H    basis set group =>   3
Atom  27H    basis set group =>   3
Atom  28H    basis set group =>   3
Atom  29H    basis set group =>   3


           ************************************************************
           *        Program running with 6 parallel MPI-processes     *
           *              working on a common directory               *
           ************************************************************
------------------------------------------------------------------------------
                             ORCA STARTUP CALCULATIONS
                           -- RI-GTO INTEGRALS CHOSEN --
------------------------------------------------------------------------------
------------------------------------------------------------------------------
                   ___                                                        
                  /   \      - P O W E R E D   B Y -                         
                 /     \                                                     
                 |  |  |   _    _      __       _____    __    __             
                 |  |  |  | |  | |    /  \     |  _  \  |  |  /  |          
                  \  \/   | |  | |   /    \    | | | |  |  | /  /          
                 / \  \   | |__| |  /  /\  \   | |_| |  |  |/  /          
                |  |  |   |  __  | /  /__\  \  |    /   |      \           
                |  |  |   | |  | | |   __   |  |    \   |  |\   \          
                \     /   | |  | | |  |  |  |  | |\  \  |  | \   \       
                 \___/    |_|  |_| |__|  |__|  |_| \__\ |__|  \__/        
                                                                              
                      - O R C A' S   B I G   F R I E N D -                    
                                      &                                       
                       - I N T E G R A L  F E E D E R -                       
                                                                              
 v1 FN, 2020, v2 2021, v3 2022-2024                                           
------------------------------------------------------------------------------


----------------------
SHARK INTEGRAL PACKAGE
----------------------

Number of atoms                             ...     30
Number of basis functions                   ...    289
Number of shells                            ...    137
Maximum angular momentum                    ...      2
Integral batch strategy                     ... SHARK/LIBINT Hybrid
RI-J (if used) integral strategy            ... SPLIT-RIJ (Revised 2003 algorithm where possible)
Printlevel                                  ...      1
Contraction scheme used                     ... SEGMENTED contraction
Prescreening option                         ... SCHWARTZ
   Thresh                                   ... 2.500e-11
   Tcut                                     ... 2.500e-12
   Tpresel                                  ... 2.500e-12 
Coulomb Range Separation                    ... NOT USED
Exchange Range Separation                   ... NOT USED
Multipole approximations                    ... NOT USED
Finite Nucleus Model                        ... NOT USED
CABS basis                                  ... NOT available
Auxiliary Coulomb fitting basis             ... AVAILABLE
   # of basis functions in Aux-J            ...    902
   # of shells in Aux-J                     ...    302
   Maximum angular momentum in Aux-J        ...      4
Auxiliary J/K fitting basis                 ... NOT available
Auxiliary Correlation fitting basis         ... NOT available
Auxiliary 'external' fitting basis          ... NOT available

Checking pre-screening integrals            ... done (  0.0 sec) Dimension = 137
Check shell pair data                       ... done (  0.0 sec)
Shell pair information
Shell pair cut-off parameter TPreSel        ...   2.5e-12
Total number of shell pairs                 ...      9453
Shell pairs after pre-screening             ...      7865
Total number of primitive shell pairs       ...     34441
Primitive shell pairs kept                  ...     19038
          la=0 lb=0:   2488 shell pairs
          la=1 lb=0:   2943 shell pairs
          la=1 lb=1:    894 shell pairs
          la=2 lb=0:    919 shell pairs
          la=2 lb=1:    536 shell pairs
          la=2 lb=2:     85 shell pairs

Calculating one electron integrals          ... done (  0.0 sec)
Calculating RI/J V-Matrix + Cholesky decomp.... done (  0.0 sec)
Calculating Nuclear repulsion               ... done (  0.0 sec) ENN=   1023.546986760951 Eh

Diagonalization of the overlap matrix:
Smallest eigenvalue                        ... 2.691e-04
Time for diagonalization                   ...    0.009 sec
Threshold for overlap eigenvalues          ... 1.000e-07
Number of eigenvalues below threshold      ... 0
Time for construction of square roots      ...    0.007 sec
Total time needed                          ...    0.018 sec

-------------------
DFT GRID GENERATION
-------------------

General Integration Accuracy     IntAcc      ... 4.388
Radial Grid Type                 RadialGrid  ... OptM3 with GC (2021)
Angular Grid (max. ang.)         AngularGrid ... 4 (Lebedev-302)
Angular grid pruning method      GridPruning ... 4 (adaptive)
Weight generation scheme         WeightScheme... mBecke (2022)
Basis function cutoff            BFCut       ... 1.0000e-11
Integration weight cutoff        WCut        ... 1.0000e-14
Partially contracted basis set               ... off
Rotationally invariant grid construction     ... off
Angular grids for H and He will be reduced by one unit

Total number of grid points                  ...   138919
Total number of batches                      ...     2188
Average number of points per batch           ...       63
Average number of grid points per atom       ...     4631
Initializing property integral containers    ... done (  0.0 sec)

SHARK setup successfully completed in   0.8 seconds

Maximum memory used throughout the entire STARTUP-calculation: 37.1 MB


           ************************************************************
           *        Program running with 6 parallel MPI-processes     *
           *              working on a common directory               *
           ************************************************************
-------------------------------------------------------------------------------
                                 ORCA GUESS
                   Start orbitals & Density for SCF / CASSCF
-------------------------------------------------------------------------------

------------
SCF SETTINGS
------------
Hamiltonian:
 Density Functional     Method          .... DFT(GTOs)
 Exchange Functional    Exchange        .... B88
   X-Alpha parameter    XAlpha          ....  0.666667
   Becke's b parameter  XBeta           ....  0.004200
 Correlation Functional Correlation     .... LYP
 LDA part of GGA corr.  LDAOpt          .... VWN-5
 Gradients option       PostSCFGGA      .... off
 Hybrid DFT is turned on
   Fraction HF Exchange ScalHFX         ....  0.200000
   Scaling of DF-GGA-X  ScalDFX         ....  0.720000
   Scaling of DF-GGA-C  ScalDFC         ....  0.810000
   Scaling of DF-LDA-C  ScalLDAC        ....  1.000000
   Perturbative correction              ....  0.000000
   NL short-range parameter             ....  4.800000
 RI-approximation to the Coulomb term is turned on
   Number of AuxJ basis functions       .... 902
   RIJ-ON(X) (HFX calculated with O(N)) .... on


General Settings:
 Integral files         IntName         .... data/geom_opt/69082/69082
 Hartree-Fock type      HFTyp           .... RHF
 Total Charge           Charge          ....    0
 Multiplicity           Mult            ....    1
 Number of Electrons    NEL             ....  114
 Basis Dimension        Dim             ....  289
 Nuclear Repulsion      ENuc            ....   1023.5469867610 Eh

Convergence Acceleration:
 AO-DIIS                CNVDIIS         .... on
   Start iteration      DIISMaxIt       ....    12
   Startup error        DIISStart       ....  0.200000
   # of expansion vecs  DIISMaxEq       ....     5
   Bias factor          DIISBfac        ....   1.050
   Max. coefficient     DIISMaxC        ....  10.000
 MO-DIIS                CNVKDIIS        .... off
 Trust-Rad. Augm. Hess. CNVTRAH         .... auto
   Auto Start mean grad. ratio tolernc. ....  1.125000
   Auto Start start iteration           ....    50
   Auto Start num. interpolation iter.  ....    10
   Max. Number of Micro iterations      ....    24
   Max. Number of Macro iterations      .... Maxiter - #DIIS iter
   Number of Davidson start vectors     ....     2
   Converg. threshold    (grad. norm)   ....   1.000e-05
   Grad. Scal. Fac. for Micro threshold ....   0.100
   Minimum threshold for Micro iter.    ....   1.000e-02
   NR start threshold (gradient norm)   ....   1.000e-04
   Initial trust radius                 ....   0.400
   Minimum AH scaling param. (alpha)    ....   1.000
   Maximum AH scaling param. (alpha)    .... 1000.000
   Quad. conv. algorithm                .... NR
   White noise on init. David. guess    .... on
   Maximum white noise                  ....   0.010
   Pseudo random numbers                .... off
   Inactive MOs                         .... canonical
   Orbital update algorithm             .... Taylor
   Preconditioner                       .... Diag
   Full preconditioner red. dimension   ....   250
   COSX micro iterations for RIJONX calc.... off
 SOSCF                  CNVSOSCF        .... on
   Start iteration      SOSCFMaxIt      ....   150
   Startup grad/error   SOSCFStart      ....  0.003300
   Hessian update       SOSCFHessUp     .... L-BFGS
 Level Shifting         CNVShift        .... on
   Level shift para.    LevelShift      ....    0.2500
   Turn off err/grad.   ShiftErr        ....    0.0010
 Zerner damping         CNVZerner       .... off
 Static damping         CNVDamp         .... on
   Fraction old density DampFac         ....    0.7000
   Max. Damping (<1)    DampMax         ....    0.9800
   Min. Damping (>=0)   DampMin         ....    0.0000
   Turn off err/grad.   DampErr         ....    0.1000

SCF Procedure:
 Maximum # iterations   MaxIter         ....   125
 SCF integral mode      SCFMode         .... Direct
   Integral package                     .... SHARK and LIBINT hybrid scheme
 Reset frequency        DirectResetFreq ....    20
 Integral Threshold     Thresh          ....  2.500e-11 Eh
 Primitive CutOff       TCut            ....  2.500e-12 Eh

Convergence Tolerance:
 Convergence Check Mode ConvCheckMode   .... Total+1el-Energy
 Convergence forced     ConvForced      .... 0
 Energy Change          TolE            ....  1.000e-08 Eh
 1-El. energy change                    ....  1.000e-05 Eh
 Orbital Gradient       TolG            ....  1.000e-05
 Orbital Rotation angle TolX            ....  1.000e-05
 DIIS Error             TolErr          ....  5.000e-07

------------------------------
INITIAL GUESS: MODEL POTENTIAL
------------------------------
Loading Hartree-Fock densities                     ... done
Calculating cut-offs                               ... done
Initializing the effective Hamiltonian             ... done
Setting up the integral package (SHARK)            ... done
Starting the Coulomb interaction                   ... done (   0.1 sec)
Making the grid                                    ... done (   0.2 sec)
Mapping shells                                     ... done
Starting the XC term evaluation                    ... done (   0.1 sec)
  promolecular density results
     # of electrons  =    113.995034951
     EX              =    -99.061144067
     EC              =     -3.881935752
     EX+EC           =   -102.943079819
Transforming the Hamiltonian                       ... done (   0.0 sec)
Diagonalizing the Hamiltonian                      ... done (   0.0 sec)
Back transforming the eigenvectors                 ... done (   0.0 sec)
Now organizing SCF variables                       ... done
                      ------------------
                      INITIAL GUESS DONE (   0.4 sec)
                      ------------------
             **** ENERGY FILE WAS UPDATED (data/geom_opt/69082/69082.en.tmp) ****
Finished Guess after   0.5 sec
Maximum memory used throughout the entire GUESS-calculation: 20.3 MB


           ************************************************************
           *        Program running with 6 parallel MPI-processes     *
           *              working on a common directory               *
           ************************************************************

-------------------------------------------------------------------------------------------
                                      ORCA LEAN-SCF
                              memory conserving SCF solver
-------------------------------------------------------------------------------------------

----------------------------------------D-I-I-S--------------------------------------------
Iteration    Energy (Eh)           Delta-E    RMSDP     MaxDP     DIISErr   Damp  Time(sec)
-------------------------------------------------------------------------------------------
               ***  Starting incremental Fock matrix formation  ***
    1    -882.6254158491148019     0.00e+00  2.70e-03  7.81e-02  1.72e-01  0.700   2.6
    2    -882.7846096398019426    -1.59e-01  1.94e-03  4.79e-02  8.91e-02  0.700   2.4
                               ***Turning on AO-DIIS***
    3    -882.8528502018572226    -6.82e-02  9.22e-04  3.43e-02  3.31e-02  0.700   2.3
    4    -882.8921906207746133    -3.93e-02  1.79e-03  8.02e-02  1.65e-02  0.000   2.2
    5    -882.9765906502658481    -8.44e-02  2.33e-04  1.04e-02  5.33e-03  0.000   2.3
                              *** Initializing SOSCF ***
---------------------------------------S-O-S-C-F--------------------------------------
Iteration    Energy (Eh)           Delta-E    RMSDP     MaxDP     MaxGrad    Time(sec)
--------------------------------------------------------------------------------------
    6    -882.9770979736698564    -5.07e-04  8.26e-05  1.99e-03  1.50e-03     2.2
               *** Restarting incremental Fock matrix formation ***
    7    -882.9771344163406184    -3.64e-05  5.64e-05  1.68e-03  1.79e-04     2.6
    8    -882.9771343881012626     2.82e-08  2.00e-05  6.01e-04  2.43e-04     1.8
    9    -882.9771381810181765    -3.79e-06  1.29e-05  5.76e-04  6.92e-05     1.7
   10    -882.9771380619300771     1.19e-07  6.11e-06  1.52e-04  6.41e-05     1.6
   11    -882.9771384996262213    -4.38e-07  2.74e-06  1.89e-04  1.49e-05     1.5
   12    -882.9771384913591419     8.27e-09  1.46e-06  7.68e-05  2.78e-05     1.4
                 **** Energy Check signals convergence ****

               *****************************************************
               *                     SUCCESS                       *
               *           SCF CONVERGED AFTER  12 CYCLES          *
               *****************************************************

             **** ENERGY FILE WAS UPDATED (data/geom_opt/69082/69082.en.tmp) ****

----------------
TOTAL SCF ENERGY
----------------

Total Energy       :       -882.97713849135914 Eh          -24027.02945 eV

Components:
Nuclear Repulsion  :       1023.54698676095074 Eh           27852.12948 eV
Electronic Energy  :      -1906.52412525230989 Eh          -51879.15893 eV
One Electron Energy:      -3235.42781133871222 Eh          -88040.46664 eV
Two Electron Energy:       1328.90368608640233 Eh           36161.30770 eV

Virial components:
Potential Energy   :      -1759.20905587714151 Eh          -47870.51210 eV
Kinetic Energy     :        876.23191738578237 Eh           23843.48265 eV
Virial Ratio       :          2.00769798608307

DFT components:
N(Alpha)           :       56.999901412389 electrons
N(Beta)            :       56.999901412389 electrons
N(Total)           :      113.999802824778 electrons
E(X)               :      -79.698851546683 Eh       
E(C)               :       -4.579872213227 Eh       
E(XC)              :      -84.278723759910 Eh       

---------------
SCF CONVERGENCE
---------------

  Last Energy change         ...   -8.2671e-09  Tolerance :   1.0000e-08
  Last MAX-Density change    ...    7.6765e-05  Tolerance :   1.0000e-07
  Last RMS-Density change    ...    1.4626e-06  Tolerance :   5.0000e-09
  Last DIIS Error            ...    1.4962e-03  Tolerance :   5.0000e-07
  Last Orbital Gradient      ...    2.7848e-05  Tolerance :   1.0000e-05
  Last Orbital Rotation      ...    4.4596e-05  Tolerance :   1.0000e-05


----------------
ORBITAL ENERGIES
----------------

  NO   OCC          E(Eh)            E(eV) 
   0   2.0000     -77.040099     -2096.3677 
   1   2.0000     -10.191958      -277.3373 
   2   2.0000     -10.191873      -277.3350 
   3   2.0000     -10.191628      -277.3283 
   4   2.0000     -10.190411      -277.2952 
   5   2.0000     -10.189954      -277.2828 
   6   2.0000     -10.189253      -277.2637 
   7   2.0000     -10.188679      -277.2480 
   8   2.0000     -10.186951      -277.2010 
   9   2.0000     -10.185824      -277.1704 
  10   2.0000     -10.185642      -277.1654 
  11   2.0000     -10.185068      -277.1498 
  12   2.0000     -10.184141      -277.1246 
  13   2.0000     -10.183333      -277.1026 
  14   2.0000     -10.177731      -276.9501 
  15   2.0000      -6.537646      -177.8984 
  16   2.0000      -4.703221      -127.9812 
  17   2.0000      -4.702860      -127.9713 
  18   2.0000      -4.699978      -127.8929 
  19   2.0000      -0.850692       -23.1485 
  20   2.0000      -0.842871       -22.9357 
  21   2.0000      -0.774576       -21.0773 
  22   2.0000      -0.742490       -20.2042 
  23   2.0000      -0.739191       -20.1144 
  24   2.0000      -0.734755       -19.9937 
  25   2.0000      -0.731956       -19.9175 
  26   2.0000      -0.646685       -17.5972 
  27   2.0000      -0.606514       -16.5041 
  28   2.0000      -0.600457       -16.3393 
  29   2.0000      -0.590264       -16.0619 
  30   2.0000      -0.589590       -16.0436 
  31   2.0000      -0.547224       -14.8907 
  32   2.0000      -0.515396       -14.0246 
  33   2.0000      -0.496465       -13.5095 
  34   2.0000      -0.457612       -12.4523 
  35   2.0000      -0.452668       -12.3177 
  36   2.0000      -0.447932       -12.1888 
  37   2.0000      -0.446508       -12.1501 
  38   2.0000      -0.442269       -12.0348 
  39   2.0000      -0.427943       -11.6449 
  40   2.0000      -0.421636       -11.4733 
  41   2.0000      -0.417173       -11.3519 
  42   2.0000      -0.402147       -10.9430 
  43   2.0000      -0.374633       -10.1943 
  44   2.0000      -0.372891       -10.1469 
  45   2.0000      -0.368364       -10.0237 
  46   2.0000      -0.362642        -9.8680 
  47   2.0000      -0.350226        -9.5301 
  48   2.0000      -0.347927        -9.4676 
  49   2.0000      -0.344364        -9.3706 
  50   2.0000      -0.321459        -8.7473 
  51   2.0000      -0.315914        -8.5964 
  52   2.0000      -0.271377        -7.3845 
  53   2.0000      -0.257945        -7.0190 
  54   2.0000      -0.256541        -6.9808 
  55   2.0000      -0.249766        -6.7965 
  56   2.0000      -0.209085        -5.6895 
  57   0.0000      -0.024046        -0.6543 
  58   0.0000      -0.014833        -0.4036 
  59   0.0000      -0.010517        -0.2862 
  60   0.0000      -0.002009        -0.0547 
  61   0.0000       0.060452         1.6450 
  62   0.0000       0.062694         1.7060 
  63   0.0000       0.065559         1.7839 
  64   0.0000       0.082835         2.2541 
  65   0.0000       0.095442         2.5971 
  66   0.0000       0.096254         2.6192 
  67   0.0000       0.104582         2.8458 
*Only the first 10 virtual orbitals were printed.

                    ********************************
                    * MULLIKEN POPULATION ANALYSIS *
                    ********************************

-----------------------
MULLIKEN ATOMIC CHARGES
-----------------------
   0 C :    0.028288
   1 C :   -0.161269
   2 P :    0.259664
   3 C :   -0.144731
   4 C :    0.023582
   5 C :    0.021423
   6 C :    0.028730
   7 C :    0.025705
   8 C :    0.032670
   9 C :   -0.093918
  10 C :    0.007257
  11 C :    0.025248
  12 C :    0.020637
  13 C :    0.030476
  14 C :   -0.012739
  15 H :    0.016399
  16 H :    0.012185
  17 H :    0.023760
  18 H :    0.042202
  19 H :    0.024054
  20 H :   -0.021473
  21 H :   -0.018768
  22 H :   -0.017956
  23 H :   -0.020652
  24 H :   -0.012315
  25 H :   -0.018439
  26 H :   -0.021709
  27 H :   -0.022969
  28 H :   -0.024244
  29 H :   -0.031099
Sum of atomic charges:   -0.0000000

--------------------------------
MULLIKEN REDUCED ORBITAL CHARGES
--------------------------------
  0 C s       :     2.968864  s :     2.968864
      pz      :     1.006624  p :     2.972864
      px      :     0.978014
      py      :     0.988227
      dz2     :     0.006173  d :     0.029984
      dxz     :     0.002810
      dyz     :     0.007759
      dx2y2   :     0.005505
      dxy     :     0.007737

  1 C s       :     3.077363  s :     3.077363
      pz      :     1.018587  p :     3.052192
      px      :     1.022977
      py      :     1.010628
      dz2     :     0.008225  d :     0.031713
      dxz     :     0.003185
      dyz     :     0.006759
      dx2y2   :     0.005289
      dxy     :     0.008255

  2 P s       :     5.728349  s :     5.728349
      pz      :     3.301052  p :     8.836740
      px      :     2.747457
      py      :     2.788230
      dz2     :     0.021175  d :     0.175247
      dxz     :     0.026994
      dyz     :     0.041249
      dx2y2   :     0.031859
      dxy     :     0.053970

  3 C s       :     3.087034  s :     3.087034
      pz      :     0.999385  p :     3.020971
      px      :     1.013043
      py      :     1.008542
      dz2     :     0.009395  d :     0.036727
      dxz     :     0.010038
      dyz     :     0.007469
      dx2y2   :     0.004327
      dxy     :     0.005498

  4 C s       :     3.223892  s :     3.223892
      pz      :     0.853677  p :     2.717382
      px      :     0.936815
      py      :     0.926890
      dz2     :     0.008395  d :     0.035143
      dxz     :     0.008306
      dyz     :     0.005324
      dx2y2   :     0.006680
      dxy     :     0.006438

  5 C s       :     3.160584  s :     3.160584
      pz      :     0.916617  p :     2.783010
      px      :     0.892970
      py      :     0.973423
      dz2     :     0.008101  d :     0.034983
      dxz     :     0.010248
      dyz     :     0.006521
      dx2y2   :     0.005402
      dxy     :     0.004711

  6 C s       :     3.158066  s :     3.158066
      pz      :     0.952885  p :     2.777771
      px      :     0.895735
      py      :     0.929151
      dz2     :     0.009551  d :     0.035434
      dxz     :     0.009695
      dyz     :     0.006829
      dx2y2   :     0.003788
      dxy     :     0.005570

  7 C s       :     3.159880  s :     3.159880
      pz      :     0.850599  p :     2.779304
      px      :     0.968722
      py      :     0.959983
      dz2     :     0.008353  d :     0.035111
      dxz     :     0.008375
      dyz     :     0.005502
      dx2y2   :     0.006600
      dxy     :     0.006281

  8 C s       :     3.209905  s :     3.209905
      pz      :     0.922561  p :     2.722217
      px      :     0.861892
      py      :     0.937764
      dz2     :     0.007963  d :     0.035208
      dxz     :     0.010524
      dyz     :     0.006439
      dx2y2   :     0.005538
      dxy     :     0.004744

  9 C s       :     3.054140  s :     3.054140
      pz      :     0.985425  p :     3.003279
      px      :     1.013164
      py      :     1.004690
      dz2     :     0.004458  d :     0.036499
      dxz     :     0.005380
      dyz     :     0.006660
      dx2y2   :     0.009499
      dxy     :     0.010502

 10 C s       :     3.212232  s :     3.212232
      pz      :     0.952003  p :     2.745776
      px      :     0.862499
      py      :     0.931273
      dz2     :     0.002878  d :     0.034736
      dxz     :     0.004635
      dyz     :     0.006233
      dx2y2   :     0.010001
      dxy     :     0.010988

 11 C s       :     3.157635  s :     3.157635
      pz      :     0.976340  p :     2.781704
      px      :     0.967821
      py      :     0.837544
      dz2     :     0.004119  d :     0.035413
      dxz     :     0.006348
      dyz     :     0.004046
      dx2y2   :     0.011645
      dxy     :     0.009255

 12 C s       :     3.156803  s :     3.156803
      pz      :     0.979918  p :     2.787172
      px      :     0.879660
      py      :     0.927594
      dz2     :     0.004039  d :     0.035389
      dxz     :     0.004047
      dyz     :     0.006266
      dx2y2   :     0.009669
      dxy     :     0.011368

 13 C s       :     3.154899  s :     3.154899
      pz      :     0.956919  p :     2.779285
      px      :     0.883939
      py      :     0.938426
      dz2     :     0.002824  d :     0.035340
      dxz     :     0.004522
      dyz     :     0.006577
      dx2y2   :     0.010389
      dxy     :     0.011028

 14 C s       :     3.214675  s :     3.214675
      pz      :     0.989160  p :     2.763154
      px      :     0.936610
      py      :     0.837383
      dz2     :     0.003927  d :     0.034909
      dxz     :     0.006205
      dyz     :     0.003806
      dx2y2   :     0.011939
      dxy     :     0.009033

 15 H s       :     0.960431  s :     0.960431
      pz      :     0.012694  p :     0.023170
      px      :     0.004434
      py      :     0.006043

 16 H s       :     0.964534  s :     0.964534
      pz      :     0.008704  p :     0.023281
      px      :     0.004429
      py      :     0.010147

 17 H s       :     0.952752  s :     0.952752
      pz      :     0.005612  p :     0.023488
      px      :     0.010505
      py      :     0.007371

 18 H s       :     0.934691  s :     0.934691
      pz      :     0.005080  p :     0.023106
      px      :     0.009847
      py      :     0.008180

 19 H s       :     0.953167  s :     0.953167
      pz      :     0.012722  p :     0.022779
      px      :     0.004357
      py      :     0.005700

 20 H s       :     0.998367  s :     0.998367
      pz      :     0.013579  p :     0.023105
      px      :     0.003658
      py      :     0.005869

 21 H s       :     0.995767  s :     0.995767
      pz      :     0.007837  p :     0.023000
      px      :     0.010436
      py      :     0.004727

 22 H s       :     0.995012  s :     0.995012
      pz      :     0.004687  p :     0.022944
      px      :     0.010205
      py      :     0.008052

 23 H s       :     0.997668  s :     0.997668
      pz      :     0.013377  p :     0.022984
      px      :     0.003693
      py      :     0.005914

 24 H s       :     0.989195  s :     0.989195
      pz      :     0.007882  p :     0.023120
      px      :     0.010585
      py      :     0.004653

 25 H s       :     0.995209  s :     0.995209
      pz      :     0.006745  p :     0.023230
      px      :     0.010643
      py      :     0.005841

 26 H s       :     0.998718  s :     0.998718
      pz      :     0.005060  p :     0.022990
      px      :     0.003614
      py      :     0.014316

 27 H s       :     0.999943  s :     0.999943
      pz      :     0.005075  p :     0.023025
      px      :     0.011141
      py      :     0.006809

 28 H s       :     1.001238  s :     1.001238
      pz      :     0.006614  p :     0.023006
      px      :     0.010757
      py      :     0.005634

 29 H s       :     1.007821  s :     1.007821
      pz      :     0.005214  p :     0.023278
      px      :     0.003803
      py      :     0.014261



                     *******************************
                     * LOEWDIN POPULATION ANALYSIS *
                     *******************************

----------------------
LOEWDIN ATOMIC CHARGES
----------------------
   0 C :   -0.060523
   1 C :   -0.177151
   2 P :    0.496769
   3 C :   -0.179408
   4 C :   -0.026632
   5 C :   -0.025918
   6 C :   -0.017765
   7 C :   -0.024685
   8 C :   -0.017979
   9 C :   -0.174006
  10 C :   -0.028689
  11 C :   -0.023223
  12 C :   -0.029476
  13 C :   -0.023841
  14 C :   -0.040136
  15 H :    0.021985
  16 H :    0.024435
  17 H :    0.023388
  18 H :    0.022424
  19 H :    0.015022
  20 H :    0.023180
  21 H :    0.026212
  22 H :    0.026189
  23 H :    0.025885
  24 H :    0.025211
  25 H :    0.024182
  26 H :    0.025667
  27 H :    0.024192
  28 H :    0.024736
  29 H :    0.019957

-------------------------------
LOEWDIN REDUCED ORBITAL CHARGES
-------------------------------
  0 C s       :     2.834783  s :     2.834783
      pz      :     1.067570  p :     3.151100
      px      :     1.033056
      py      :     1.050475
      dz2     :     0.016056  d :     0.074639
      dxz     :     0.006030
      dyz     :     0.019236
      dx2y2   :     0.012583
      dxy     :     0.020736

  1 C s       :     2.889839  s :     2.889839
      pz      :     1.084748  p :     3.211096
      px      :     1.055553
      py      :     1.070795
      dz2     :     0.020937  d :     0.076216
      dxz     :     0.006115
      dyz     :     0.016682
      dx2y2   :     0.011294
      dxy     :     0.021188

  2 P s       :     5.260356  s :     5.260356
      pz      :     3.375762  p :     9.003969
      px      :     2.787770
      py      :     2.840437
      dz2     :     0.028937  d :     0.238905
      dxz     :     0.034641
      dyz     :     0.055910
      dx2y2   :     0.043328
      dxy     :     0.076089

  3 C s       :     2.912774  s :     2.912774
      pz      :     1.083919  p :     3.174061
      px      :     1.064383
      py      :     1.025760
      dz2     :     0.024817  d :     0.092572
      dxz     :     0.027207
      dyz     :     0.018793
      dx2y2   :     0.009585
      dxy     :     0.012171

  4 C s       :     2.868011  s :     2.868011
      pz      :     1.033006  p :     3.066752
      px      :     1.043651
      py      :     0.990095
      dz2     :     0.022273  d :     0.091869
      dxz     :     0.022847
      dyz     :     0.013141
      dx2y2   :     0.016188
      dxy     :     0.017420

  5 C s       :     2.860559  s :     2.860559
      pz      :     1.045930  p :     3.074577
      px      :     1.027085
      py      :     1.001562
      dz2     :     0.022084  d :     0.090783
      dxz     :     0.026954
      dyz     :     0.017028
      dx2y2   :     0.012309
      dxy     :     0.012408

  6 C s       :     2.860307  s :     2.860307
      pz      :     1.055044  p :     3.065743
      px      :     1.025963
      py      :     0.984736
      dz2     :     0.025842  d :     0.091715
      dxz     :     0.026649
      dyz     :     0.017124
      dx2y2   :     0.008706
      dxy     :     0.013394

  7 C s       :     2.860507  s :     2.860507
      pz      :     1.030443  p :     3.073077
      px      :     1.045210
      py      :     0.997424
      dz2     :     0.021760  d :     0.091101
      dxz     :     0.023300
      dyz     :     0.013422
      dx2y2   :     0.015823
      dxy     :     0.016797

  8 C s       :     2.864749  s :     2.864749
      pz      :     1.045272  p :     3.061105
      px      :     1.025658
      py      :     0.990174
      dz2     :     0.021699  d :     0.092126
      dxz     :     0.028006
      dyz     :     0.017281
      dx2y2   :     0.012526
      dxy     :     0.012613

  9 C s       :     2.913536  s :     2.913536
      pz      :     1.002556  p :     3.169089
      px      :     1.083501
      py      :     1.083032
      dz2     :     0.009371  d :     0.091381
      dxz     :     0.012749
      dyz     :     0.015638
      dx2y2   :     0.026336
      dxy     :     0.027286

 10 C s       :     2.862860  s :     2.862860
      pz      :     0.985283  p :     3.074976
      px      :     1.037042
      py      :     1.052651
      dz2     :     0.006703  d :     0.090853
      dxz     :     0.010643
      dyz     :     0.014612
      dx2y2   :     0.027757
      dxy     :     0.031138

 11 C s       :     2.859651  s :     2.859651
      pz      :     0.985475  p :     3.071903
      px      :     1.052736
      py      :     1.033692
      dz2     :     0.009202  d :     0.091669
      dxz     :     0.015861
      dyz     :     0.009313
      dx2y2   :     0.031190
      dxy     :     0.026103

 12 C s       :     2.858341  s :     2.858341
      pz      :     0.989582  p :     3.079222
      px      :     1.033546
      py      :     1.056094
      dz2     :     0.009069  d :     0.091913
      dxz     :     0.009849
      dyz     :     0.015175
      dx2y2   :     0.027159
      dxy     :     0.030663

 13 C s       :     2.860064  s :     2.860064
      pz      :     0.981071  p :     3.072301
      px      :     1.031367
      py      :     1.059864
      dz2     :     0.006551  d :     0.091476
      dxz     :     0.010276
      dyz     :     0.015400
      dx2y2   :     0.028697
      dxy     :     0.030553

 14 C s       :     2.861129  s :     2.861129
      pz      :     0.994866  p :     3.087361
      px      :     1.054893
      py      :     1.037602
      dz2     :     0.008698  d :     0.091646
      dxz     :     0.015525
      dyz     :     0.008796
      dx2y2   :     0.032915
      dxy     :     0.025712

 15 H s       :     0.912704  s :     0.912704
      pz      :     0.036031  p :     0.065311
      px      :     0.012925
      py      :     0.016354

 16 H s       :     0.910564  s :     0.910564
      pz      :     0.023687  p :     0.065001
      px      :     0.012841
      py      :     0.028473

 17 H s       :     0.910744  s :     0.910744
      pz      :     0.014008  p :     0.065868
      px      :     0.031143
      py      :     0.020717

 18 H s       :     0.908089  s :     0.908089
      pz      :     0.014216  p :     0.069487
      px      :     0.029878
      py      :     0.025393

 19 H s       :     0.914386  s :     0.914386
      pz      :     0.040303  p :     0.070592
      px      :     0.013147
      py      :     0.017142

 20 H s       :     0.908283  s :     0.908283
      pz      :     0.039350  p :     0.068538
      px      :     0.011607
      py      :     0.017581

 21 H s       :     0.906162  s :     0.906162
      pz      :     0.023049  p :     0.067626
      px      :     0.030038
      py      :     0.014539

 22 H s       :     0.906351  s :     0.906351
      pz      :     0.014709  p :     0.067460
      px      :     0.029354
      py      :     0.023396

 23 H s       :     0.906449  s :     0.906449
      pz      :     0.037982  p :     0.067666
      px      :     0.011978
      py      :     0.017706

 24 H s       :     0.906547  s :     0.906547
      pz      :     0.023545  p :     0.068243
      px      :     0.030490
      py      :     0.014207

 25 H s       :     0.907406  s :     0.907406
      pz      :     0.019994  p :     0.068412
      px      :     0.030600
      py      :     0.017818

 26 H s       :     0.906927  s :     0.906927
      pz      :     0.015313  p :     0.067406
      px      :     0.011681
      py      :     0.040412

 27 H s       :     0.908196  s :     0.908196
      pz      :     0.015432  p :     0.067612
      px      :     0.031829
      py      :     0.020351

 28 H s       :     0.907839  s :     0.907839
      pz      :     0.019444  p :     0.067425
      px      :     0.030777
      py      :     0.017204

 29 H s       :     0.910969  s :     0.910969
      pz      :     0.015880  p :     0.069073
      px      :     0.012002
      py      :     0.041191



                      *****************************
                      * MAYER POPULATION ANALYSIS *
                      *****************************

  NA   - Mulliken gross atomic population
  ZA   - Total nuclear charge
  QA   - Mulliken gross atomic charge
  VA   - Mayer's total valence
  BVA  - Mayer's bonded valence
  FA   - Mayer's free valence

  ATOM       NA         ZA         QA         VA         BVA        FA
  0 C      5.9717     6.0000     0.0283     3.9912     3.9912    -0.0000
  1 C      6.1613     6.0000    -0.1613     4.0049     4.0049    -0.0000
  2 P     14.7403    15.0000     0.2597     2.9869     2.9869    -0.0000
  3 C      6.1447     6.0000    -0.1447     3.7801     3.7801    -0.0000
  4 C      5.9764     6.0000     0.0236     3.8616     3.8616    -0.0000
  5 C      5.9786     6.0000     0.0214     3.8429     3.8429    -0.0000
  6 C      5.9713     6.0000     0.0287     3.8271     3.8271    -0.0000
  7 C      5.9743     6.0000     0.0257     3.8464     3.8464    -0.0000
  8 C      5.9673     6.0000     0.0327     3.8625     3.8625     0.0000
  9 C      6.0939     6.0000    -0.0939     3.7507     3.7507    -0.0000
 10 C      5.9927     6.0000     0.0073     3.8945     3.8945    -0.0000
 11 C      5.9748     6.0000     0.0252     3.8615     3.8615    -0.0000
 12 C      5.9794     6.0000     0.0206     3.8332     3.8332    -0.0000
 13 C      5.9695     6.0000     0.0305     3.8546     3.8546    -0.0000
 14 C      6.0127     6.0000    -0.0127     3.9014     3.9014    -0.0000
 15 H      0.9836     1.0000     0.0164     0.9926     0.9926    -0.0000
 16 H      0.9878     1.0000     0.0122     0.9849     0.9849    -0.0000
 17 H      0.9762     1.0000     0.0238     0.9960     0.9960    -0.0000
 18 H      0.9578     1.0000     0.0422     0.9713     0.9713    -0.0000
 19 H      0.9759     1.0000     0.0241     0.9849     0.9849     0.0000
 20 H      1.0215     1.0000    -0.0215     0.9959     0.9959    -0.0000
 21 H      1.0188     1.0000    -0.0188     0.9772     0.9772    -0.0000
 22 H      1.0180     1.0000    -0.0180     0.9770     0.9770    -0.0000
 23 H      1.0207     1.0000    -0.0207     0.9772     0.9772    -0.0000
 24 H      1.0123     1.0000    -0.0123     0.9894     0.9894     0.0000
 25 H      1.0184     1.0000    -0.0184     0.9903     0.9903     0.0000
 26 H      1.0217     1.0000    -0.0217     0.9767     0.9767    -0.0000
 27 H      1.0230     1.0000    -0.0230     0.9767     0.9767     0.0000
 28 H      1.0242     1.0000    -0.0242     0.9763     0.9763    -0.0000
 29 H      1.0311     1.0000    -0.0311     0.9905     0.9905    -0.0000

  Mayer bond orders larger than 0.100000
B(  0-C ,  1-C ) :   1.0851 B(  0-C , 15-H ) :   0.9666 B(  0-C , 16-H ) :   0.9641 
B(  0-C , 17-H ) :   0.9701 B(  1-C ,  2-P ) :   0.9848 B(  1-C , 18-H ) :   0.9374 
B(  1-C , 19-H ) :   0.9277 B(  2-P ,  3-C ) :   0.9344 B(  2-P ,  9-C ) :   0.9153 
B(  3-C ,  4-C ) :   1.3798 B(  3-C ,  8-C ) :   1.3530 B(  4-C ,  5-C ) :   1.3816 
B(  4-C , 20-H ) :   0.9896 B(  5-C ,  6-C ) :   1.3898 B(  5-C , 21-H ) :   0.9872 
B(  6-C ,  7-C ) :   1.3712 B(  6-C , 22-H ) :   0.9862 B(  7-C ,  8-C ) :   1.4065 
B(  7-C , 23-H ) :   0.9855 B(  8-C , 24-H ) :   0.9817 B(  9-C , 10-C ) :   1.3680 
B(  9-C , 14-C ) :   1.3735 B( 10-C , 11-C ) :   1.4154 B( 10-C , 25-H ) :   0.9823 
B( 11-C , 12-C ) :   1.3741 B( 11-C , 26-H ) :   0.9859 B( 12-C , 13-C ) :   1.3882 
B( 12-C , 27-H ) :   0.9859 B( 13-C , 14-C ) :   1.3972 B( 13-C , 28-H ) :   0.9833 
B( 14-C , 29-H ) :   0.9826 

-------
TIMINGS
-------

Total SCF time: 0 days 0 hours 0 min 24 sec 

Total time                  ....      24.838 sec
Sum of individual times     ....      24.782 sec  ( 99.8%)

SCF preparation             ....       0.089 sec  (  0.4%)
Fock matrix formation       ....      24.132 sec  ( 97.2%)
  Startup                   ....       0.031 sec  (  0.1% of F)
  Exchange formation        ....      18.330 sec  ( 76.0% of F)
  Split-RI-J                ....       1.932 sec  (  8.0% of F)
  XC integration            ....       3.714 sec  ( 15.4% of F)
    Basis function eval.    ....       1.056 sec  ( 28.4% of XC)
    Density eval.           ....       0.944 sec  ( 25.4% of XC)
    XC-Functional eval.     ....       0.104 sec  (  2.8% of XC)
    XC-Potential eval.      ....       0.901 sec  ( 24.3% of XC)
Diagonalization             ....       0.000 sec  (  0.0%)
Density matrix formation    ....       0.074 sec  (  0.3%)
Total Energy calculation    ....       0.031 sec  (  0.1%)
Population analysis         ....       0.050 sec  (  0.2%)
Orbital Transformation      ....       0.044 sec  (  0.2%)
Orbital Orthonormalization  ....       0.000 sec  (  0.0%)
DIIS solution               ....       0.225 sec  (  0.9%)
SOSCF solution              ....       0.137 sec  (  0.6%)
Finished LeanSCF after  24.9 sec

Maximum memory used throughout the entire LEANSCF-calculation: 28.8 MB


-------------------------------------------------------------------------------
                          DFT DISPERSION CORRECTION                            
                                                                               
                              DFTD3 V3.1  Rev 1                                
                          USING Becke-Johnson damping                          
-------------------------------------------------------------------------------
The B3LYP functional is recognized
Active option DFTDOPT                   ...         4   

molecular C6(AA) [au] = 11487.730184 


            DFT-D V3
 parameters
 s6 scaling factor         :     1.0000 
 a1 scaling factor         :     0.3981 
 s8 scaling factor         :     1.9889 
 a2 scaling factor         :     4.4211 
 ad hoc parameters k1-k3   :    16.0000     1.3333    -4.0000 

 Edisp/kcal,au: -42.811210767742  -0.068223999749 
 E6   /kcal   : -19.454985848 
 E8   /kcal   : -23.356224920 
 % E8         :  54.556328824 

-------------------------   ----------------
Dispersion correction           -0.068224000
-------------------------   ----------------


-------------------------   --------------------
FINAL SINGLE POINT ENERGY      -883.045362491108
-------------------------   --------------------



           ************************************************************
           *        Program running with 6 parallel MPI-processes     *
           *              working on a common directory               *
           ************************************************************
------------------------------------------------------------------------------
                         ORCA SCF GRADIENT CALCULATION
------------------------------------------------------------------------------

Nuc. rep. gradient        (SHARK) ... done (  0.0 sec)
HCore & Overlap gradient  (SHARK) ... done (  0.1 sec)
Split-RIJ-J gradient      (SHARK) ... done (  0.6 sec)
O(N)X-gradient            (SHARK) ... done (  6.9 sec)
XC gradient                       ... done (  2.6 sec)
Dispersion correction             ... done (  0.1 sec)

[...]
      dz2     :     0.020040  d :     0.089942
      dxz     :     0.025957
      dyz     :     0.015619
      dx2y2   :     0.015426
      dxy     :     0.012900

  6 C s       :     2.864460  s :     2.864460
      pz      :     1.041153  p :     3.066698
      px      :     1.037313
      py      :     0.988232
      dz2     :     0.021620  d :     0.089919
      dxz     :     0.026405
      dyz     :     0.014657
      dx2y2   :     0.012127
      dxy     :     0.015111

  7 C s       :     2.863589  s :     2.863589
      pz      :     1.021477  p :     3.071932
      px      :     1.055509
      py      :     0.994945
      dz2     :     0.017986  d :     0.090205
      dxz     :     0.023966
      dyz     :     0.011832
      dx2y2   :     0.018459
      dxy     :     0.017962

  8 C s       :     2.866656  s :     2.866656
      pz      :     1.034862  p :     3.065261
      px      :     1.036525
      py      :     0.993875
      dz2     :     0.020036  d :     0.091505
      dxz     :     0.026370
      dyz     :     0.016076
      dx2y2   :     0.015793
      dxy     :     0.013230

  9 C s       :     2.917455  s :     2.917455
      pz      :     1.019882  p :     3.165485
      px      :     1.073601
      py      :     1.072002
      dz2     :     0.012144  d :     0.090301
      dxz     :     0.014874
      dyz     :     0.018189
      dx2y2   :     0.022183
      dxy     :     0.022911

 10 C s       :     2.864952  s :     2.864952
      pz      :     0.992588  p :     3.071975
      px      :     1.030345
      py      :     1.049041
      dz2     :     0.008250  d :     0.091021
      dxz     :     0.013808
      dyz     :     0.016199
      dx2y2   :     0.025030
      dxy     :     0.027733

 11 C s       :     2.862925  s :     2.862925
      pz      :     0.998145  p :     3.070512
      px      :     1.044173
      py      :     1.028194
      dz2     :     0.011103  d :     0.090576
      dxz     :     0.017215
      dyz     :     0.012843
      dx2y2   :     0.026557
      dxy     :     0.022856

 12 C s       :     2.863364  s :     2.863364
      pz      :     1.002443  p :     3.074511
      px      :     1.024514
      py      :     1.047553
      dz2     :     0.011883  d :     0.089878
      dxz     :     0.012010
      dyz     :     0.017374
      dx2y2   :     0.022654
      dxy     :     0.025957

 13 C s       :     2.863098  s :     2.863098
      pz      :     0.991707  p :     3.071282
      px      :     1.028017
      py      :     1.051558
      dz2     :     0.008110  d :     0.090553
      dxz     :     0.013426
      dyz     :     0.016660
      dx2y2   :     0.025458
      dxy     :     0.026899

 14 C s       :     2.864147  s :     2.864147
      pz      :     1.004970  p :     3.086861
      px      :     1.048287
      py      :     1.033604
      dz2     :     0.010807  d :     0.091264
      dxz     :     0.017459
      dyz     :     0.013056
      dx2y2   :     0.027564
      dxy     :     0.022379

 15 H s       :     0.913026  s :     0.913026
      pz      :     0.036278  p :     0.064200
      px      :     0.012563
      py      :     0.015359

 16 H s       :     0.910910  s :     0.910910
      pz      :     0.022628  p :     0.063945
      px      :     0.012348
      py      :     0.028968

 17 H s       :     0.909489  s :     0.909489
      pz      :     0.013614  p :     0.065191
      px      :     0.030102
      py      :     0.021475

 18 H s       :     0.910127  s :     0.910127
      pz      :     0.014181  p :     0.068342
      px      :     0.029647
      py      :     0.024514

 19 H s       :     0.913980  s :     0.913980
      pz      :     0.040111  p :     0.069280
      px      :     0.012477
      py      :     0.016691

 20 H s       :     0.909527  s :     0.909527
      pz      :     0.036549  p :     0.067586
      px      :     0.011221
      py      :     0.019816

 21 H s       :     0.906293  s :     0.906293
      pz      :     0.019499  p :     0.066554
      px      :     0.033896
      py      :     0.013158

 22 H s       :     0.906531  s :     0.906531
      pz      :     0.015892  p :     0.066490
      px      :     0.028883
      py      :     0.021715

 23 H s       :     0.906488  s :     0.906488
      pz      :     0.035417  p :     0.066550
      px      :     0.011558
      py      :     0.019575

 24 H s       :     0.904550  s :     0.904550
      pz      :     0.019223  p :     0.068101
      px      :     0.035804
      py      :     0.013074

 25 H s       :     0.907658  s :     0.907658
      pz      :     0.023720  p :     0.067218
      px      :     0.027108
      py      :     0.016390

 26 H s       :     0.906406  s :     0.906406
      pz      :     0.016542  p :     0.066391
      px      :     0.011846
      py      :     0.038003

 27 H s       :     0.907178  s :     0.907178
      pz      :     0.014891  p :     0.066620
      px      :     0.031773
      py      :     0.019956

 28 H s       :     0.907411  s :     0.907411
      pz      :     0.023520  p :     0.066429
      px      :     0.026608
      py      :     0.016301

 29 H s       :     0.909062  s :     0.909062
      pz      :     0.017477  p :     0.068520
      px      :     0.012236
      py      :     0.038807



                      *****************************
                      * MAYER POPULATION ANALYSIS *
                      *****************************

  NA   - Mulliken gross atomic population
  ZA   - Total nuclear charge
  QA   - Mulliken gross atomic charge
  VA   - Mayer's total valence
  BVA  - Mayer's bonded valence
  FA   - Mayer's free valence

  ATOM       NA         ZA         QA         VA         BVA        FA
  0 C      5.9734     6.0000     0.0266     3.9806     3.9806    -0.0000
  1 C      6.1768     6.0000    -0.1768     4.0021     4.0021    -0.0000
  2 P     14.7327    15.0000     0.2673     2.9712     2.9712    -0.0000
  3 C      6.1531     6.0000    -0.1531     3.8052     3.8052    -0.0000
  4 C      5.9791     6.0000     0.0209     3.8648     3.8648     0.0000
  5 C      5.9811     6.0000     0.0189     3.8427     3.8427     0.0000
  6 C      5.9761     6.0000     0.0239     3.8272     3.8272    -0.0000
  7 C      5.9758     6.0000     0.0242     3.8382     3.8382    -0.0000
  8 C      5.9687     6.0000     0.0313     3.8698     3.8698    -0.0000
  9 C      6.1299     6.0000    -0.1299     3.7728     3.7728    -0.0000
 10 C      5.9803     6.0000     0.0197     3.8864     3.8864    -0.0000
 11 C      5.9800     6.0000     0.0200     3.8615     3.8615    -0.0000
 12 C      5.9798     6.0000     0.0202     3.8293     3.8293    -0.0000
 13 C      5.9727     6.0000     0.0273     3.8422     3.8422    -0.0000
 14 C      6.0104     6.0000    -0.0104     3.8969     3.8969    -0.0000
 15 H      0.9824     1.0000     0.0176     0.9906     0.9906    -0.0000
 16 H      0.9844     1.0000     0.0156     0.9850     0.9850    -0.0000
 17 H      0.9719     1.0000     0.0281     0.9983     0.9983     0.0000
 18 H      0.9551     1.0000     0.0449     0.9680     0.9680    -0.0000
 19 H      0.9676     1.0000     0.0324     0.9822     0.9822     0.0000
 20 H      1.0198     1.0000    -0.0198     0.9938     0.9938     0.0000
 21 H      1.0160     1.0000    -0.0160     0.9776     0.9776     0.0000
 22 H      1.0151     1.0000    -0.0151     0.9773     0.9773    -0.0000
 23 H      1.0175     1.0000    -0.0175     0.9776     0.9776    -0.0000
 24 H      1.0061     1.0000    -0.0061     0.9906     0.9906    -0.0000
 25 H      1.0163     1.0000    -0.0163     0.9902     0.9902    -0.0000
 26 H      1.0167     1.0000    -0.0167     0.9774     0.9774     0.0000
 27 H      1.0174     1.0000    -0.0174     0.9774     0.9774     0.0000
 28 H      1.0201     1.0000    -0.0201     0.9770     0.9770    -0.0000
 29 H      1.0236     1.0000    -0.0236     0.9944     0.9944     0.0000

  Mayer bond orders larger than 0.100000
B(  0-C ,  1-C ) :   1.0795 B(  0-C , 15-H ) :   0.9662 B(  0-C , 16-H ) :   0.9644 
B(  0-C , 17-H ) :   0.9695 B(  1-C ,  2-P ) :   0.9870 B(  1-C , 18-H ) :   0.9380 
B(  1-C , 19-H ) :   0.9286 B(  2-P ,  3-C ) :   0.9273 B(  2-P ,  9-C ) :   0.9120 
B(  3-C ,  4-C ) :   1.3867 B(  3-C ,  8-C ) :   1.3699 B(  4-C ,  5-C ) :   1.3797 
B(  4-C , 20-H ) :   0.9847 B(  5-C ,  6-C ) :   1.3919 B(  5-C , 21-H ) :   0.9856 
B(  6-C ,  7-C ) :   1.3689 B(  6-C , 22-H ) :   0.9845 B(  7-C ,  8-C ) :   1.4036 
B(  7-C , 23-H ) :   0.9837 B(  8-C , 24-H ) :   0.9766 B(  9-C , 10-C ) :   1.3660 
B(  9-C , 14-C ) :   1.3875 B( 10-C , 11-C ) :   1.4225 B( 10-C , 25-H ) :   0.9804 
B( 11-C , 12-C ) :   1.3662 B( 11-C , 26-H ) :   0.9844 B( 12-C , 13-C ) :   1.3940 
B( 12-C , 27-H ) :   0.9845 B( 13-C , 14-C ) :   1.3818 B( 13-C , 28-H ) :   0.9817 
B( 14-C , 29-H ) :   0.9797 

-------
TIMINGS
-------

Total SCF time: 0 days 0 hours 0 min 9 sec 

Total time                  ....       9.741 sec
Sum of individual times     ....       9.682 sec  ( 99.4%)

SCF preparation             ....       0.103 sec  (  1.1%)
Fock matrix formation       ....       9.315 sec  ( 95.6%)
  Startup                   ....       0.017 sec  (  0.2% of F)
  Exchange formation        ....       6.892 sec  ( 74.0% of F)
  Split-RI-J                ....       0.822 sec  (  8.8% of F)
  XC integration            ....       1.526 sec  ( 16.4% of F)
    Basis function eval.    ....       0.438 sec  ( 28.7% of XC)
    Density eval.           ....       0.428 sec  ( 28.0% of XC)
    XC-Functional eval.     ....       0.033 sec  (  2.2% of XC)
    XC-Potential eval.      ....       0.362 sec  ( 23.7% of XC)
Diagonalization             ....       0.000 sec  (  0.0%)
Density matrix formation    ....       0.029 sec  (  0.3%)
Total Energy calculation    ....       0.012 sec  (  0.1%)
Population analysis         ....       0.068 sec  (  0.7%)
Orbital Transformation      ....       0.021 sec  (  0.2%)
Orbital Orthonormalization  ....       0.000 sec  (  0.0%)
DIIS solution               ....       0.031 sec  (  0.3%)
SOSCF solution              ....       0.103 sec  (  1.1%)
Finished LeanSCF after   9.8 sec

Maximum memory used throughout the entire LEANSCF-calculation: 30.0 MB


-------------------------------------------------------------------------------
                          DFT DISPERSION CORRECTION                            
                                                                               
                              DFTD3 V3.1  Rev 1                                
                          USING Becke-Johnson damping                          
-------------------------------------------------------------------------------
The B3LYP functional is recognized
Active option DFTDOPT                   ...         4   

molecular C6(AA) [au] = 11498.532245 


            DFT-D V3
 parameters
 s6 scaling factor         :     1.0000 
 a1 scaling factor         :     0.3981 
 s8 scaling factor         :     1.9889 
 a2 scaling factor         :     4.4211 
 ad hoc parameters k1-k3   :    16.0000     1.3333    -4.0000 

 Edisp/kcal,au: -42.976474885693  -0.068487364857 
 E6   /kcal   : -19.535894760 
 E8   /kcal   : -23.440580126 
 % E8         :  54.542817177 

-------------------------   ----------------
Dispersion correction           -0.068487365
-------------------------   ----------------


-------------------------   --------------------
FINAL SINGLE POINT ENERGY      -883.047898895198
-------------------------   --------------------

                                *** OPTIMIZATION RUN DONE ***



           ************************************************************
           *        Program running with 6 parallel MPI-processes     *
           *              working on a common directory               *
           ************************************************************

------------------------------------------------------------------------------
                              ORCA PROPERTY CALCULATIONS
------------------------------------------------------------------------------

GBWName                                 ... data/geom_opt/69082/69082.gbw
Number of atoms                         ...     30
Number of basis functions               ...    289
Max core memory                         ...   1024 MB

Electric properties:
Dipole moment                           ... YES
Quadrupole moment                       ...  NO
Static polarizability (Dipole/Dipole)   ...  NO
Static polarizability (Dipole/Quad.)    ...  NO
Static polarizability (Quad./Quad.)     ...  NO
Static polarizability (Velocity)        ...  NO

Atomic electric properties:
Dipole moment                           ...  NO
Quadrupole moment                       ...  NO
Static polarizability                   ...  NO

Choice of electric origin               ... Center of mass
Position of electric origin             ...     0.152744    -0.218671     0.417769

General magnetic properties:
Magnetizability                         ...  NO

EPR properties:
g-Tensor (aka g-matrix)                 ...  NO
Zero-Field splitting spin-orbit         ...  NO
Zero-field splitting spin-spin          ...  NO
Hyperfine couplings                     ...  NO (   0 nuclei)
Quadrupole couplings                    ...  NO (   0 nuclei)
Contact density                         ...  NO (   0 nuclei)

NMR properties:
Chemical shifts                         ...  NO (   0 nuclei)
Spin-rotation constants                 ...  NO (   0 nuclei)
Spin-spin couplings                     ...  NO (   0 nuclei,    0 pairs)

Choice of magnetic origin               ... GIAO
Position of magnetic origin             ...     0.000000     0.000000     0.000000

Properties with geometric perturbations:
SCF Hessian                             ...  NO
IR spectrum                             ...  NO
VCD spectrum                            ...  NO
X-ray spectroscopy properties:
SCF XES/XAS/RIXS spectra                ...  NO


-------------
DIPOLE MOMENT
-------------

Method             : SCF
Type of density    : Electron Density
Multiplicity       :   1
Irrep              :   0
Energy             :  -882.9794115303405988 Eh
Relativity type    : 
Basis              : AO
                                X                 Y                 Z
Electronic contribution:      2.381255158      -4.358807002       4.629125110
Nuclear contribution   :     -2.473327623       4.286958971      -5.116293229
                        -----------------------------------------
Total Dipole Moment    :     -0.092072465      -0.071848032      -0.487168118
                        -----------------------------------------
Magnitude (a.u.)       :      0.500971311
Magnitude (Debye)      :      1.273367875



--------------------
Rotational spectrum 
--------------------
 
Rotational constants in cm-1:             0.027666             0.012807             0.010179 
Rotational constants in MHz :           829.404949           383.957923           305.161279 

Dipole components along the rotational axes: 
x,y,z [a.u.] :    -0.095495    -0.135137    -0.472854 
x,y,z [Debye]:    -0.242728    -0.343491    -1.201900 

 

Dipole moment calculation done in   0.0 sec 

Maximum memory used throughout the entire PROP-calculation: 14.9 MB

--------------------------------
SUGGESTED CITATIONS FOR THIS RUN
--------------------------------

Below you find a list of papers that are relevant to this ORCA run
We neither can nor want to force you to cite these papers, but we appreciate if you do
You receive ORCA, which is the product of decades of hard work by many enthusiastic individuals, for free
The only thing we kindly ask in return is that you cite our papers,
We deeply appreciate it, if you show your appreciation for ORCA by not just citing the generic ORCA reference.

Please note that relegating all ORCA citations to the supporting information does *not* help us.
SI sections are not indexed - citations you put there will not count into any citation statistics
But we need these citations in order to attract the funding resources that allow us to do what we are doing

Therefore, if you are a happy ORCA user, please consider citing a few of the papers listed below in the main body of your paper

In addition to the list printed below, the program has created the file data/geom_opt/69082/69082.bibtex that contains the list in bibtex format
You can import this file easily into all common literature databanks and citation aid programs


List of essential papers. We consider these as the minimum necessary citations

  1. Neese,F.
     Software update: the ORCA program system, version 5.0
     WIRES Comput. Molec. Sci., 2022 12(1)e1606
     doi.org/10.1002/wcms.1606

List of papers to cite with high priority. The work reported in these papers was absolutely
necessary for this run to complete.
Our perspective: the developers of density functionals and basis sets usually get cited in chemistry papers
Good! But without the algorithms to do something with them, the functionals or basis sets would not do anything.
Hence, in our opinion, the algorithm design and method developments papers are equally worthy of getting cited

  1. Neese,F.
     An improvement of the resolution of the identity approximation for the formation of the Coulomb matrix
     J. Comp. Chem., 2003 24(14)1740-1747
     doi.org/10.1002/jcc.10318
  2. Neese,F.
     The SHARK Integral Generation and Digestion System
     J. Comp. Chem., 2022  1-16
     doi.org/10.1002/jcc.26942
  3. Grimme,S.; Antony,J.; Ehrlich,S.; Krieg,H.
     A consistent and accurate ab initio parametrization of density functional dispersion correction (DFT-D) for the 94 elements H-Pu
     J. Chem. Phys., 2010 132 154104-XXXX
     doi.org/10.1063/1.3382344
  4. Grimme,S.; Ehrlich,S.; Goerigk,L.
     Effect of the damping function in dispersion corrected density functional theory
     J. Comput. Chem., 2011 32(7)1456-1465
     doi.org/10.1002/jcc.21759

List of suggested additional citations. These are papers that are important in the 'surrounding' of 
of this run, or papers that preceded the highly important papers. If you like your results we are grateful for a citation.

  1. Neese,F.
     The ORCA program system
     WIRES Comput. Molec. Sci., 2012 2(1)73-78
     doi.org/10.1002/wcms.81
  2. Neese,F.
     Software update: the ORCA program system, version 4.0
     WIRES Comput. Molec. Sci., 2018 8(1)1-6
     doi.org/10.1002/wcms.1327
  3. Neese,F.; Wennmohs,F.; Becker,U.; Riplinger,C.
     The ORCA quantum chemistry program package
     J. Chem. Phys., 2020 152 Art. No. L224108
     doi.org/10.1063/5.0004608

List of optional additional citations

  1. Neese,F.
     Approximate second-order SCF convergence for spin unrestricted wavefunctions
     Chem. Phys. Lett., 2000 325(1-3)93-98
     doi.org/10.1016/s0009-2614(00)00662-x

Timings for individual modules:

Sum of individual times          ...      328.241 sec (=   5.471 min)
Startup calculation              ...       10.825 sec (=   0.180 min)   3.3 %
SCF iterations                   ...      201.619 sec (=   3.360 min)  61.4 %
Property calculations            ...        0.154 sec (=   0.003 min)   0.0 %
SCF Gradient evaluation          ...      115.504 sec (=   1.925 min)  35.2 %
Geometry relaxation              ...        0.139 sec (=   0.002 min)   0.0 %
                             ****ORCA TERMINATED NORMALLY****
TOTAL RUN TIME: 0 days 0 hours 5 minutes 30 seconds 378 msec
