
                                 *****************
                                 * O   R   C   A *
                                 *****************

                                            #,                                       
                                            ###                                      
                                            ####                                     
                                            #####                                    
                                            ######                                   
                                           ########,                                 
                                     ,,################,,,,,                         
                               ,,#################################,,                 
                          ,,##########################################,,             
                       ,#########################################, ''#####,          
                    ,#############################################,,   '####,        
                  ,##################################################,,,,####,       
                ,###########''''           ''''###############################       
              ,#####''   ,,,,##########,,,,          '''####'''          '####       
            ,##' ,,,,###########################,,,                        '##       
           ' ,,###''''                  '''############,,,                           
         ,,##''                                '''############,,,,        ,,,,,,###''
      ,#''                                            '''#######################'''  
     '                                                          ''''####''''         
             ,#######,   #######,   ,#######,      ##                                
            ,#'     '#,  ##    ##  ,#'     '#,    #''#        ,####,   ,####,        
            ##       ##  ##   ,#'  ##            #'  '#       #'       #'  '#        
            ##       ##  #######   ##           ,######,      #####,   #    #        
            '#,     ,#'  ##    ##  '#,     ,#' ,#      #,     #,   #   #,  ,#        
             '#######'   ##     ##  '#######'  #'      '#     '####' # '####'        



                #########################################################
                #                        -***-                          #
                #          Department of theory and spectroscopy        #
                #                                                       #
                #                      Frank Neese                      #
                #                                                       #
                #     Directorship, Architecture, Infrastructure        #
                #                    SHARK, DRIVERS                     #
                #        Core code/Algorithms in most modules           #
                #                                                       #
                #        Max Planck Institute fuer Kohlenforschung      #
                #                Kaiser Wilhelm Platz 1                 #
                #                 D-45470 Muelheim/Ruhr                 #
                #                      Germany                          #
                #                                                       #
                #                  All rights reserved                  #
                #                        -***-                          #
                #########################################################


                         Program Version 6.0.0  -   RELEASE   -


 With contributions from (in alphabetic order):
   Daniel Aravena         : Magnetic Suceptibility
   Michael Atanasov       : Ab Initio Ligand Field Theory (pilot matlab implementation)
   Alexander A. Auer      : GIAO ZORA, VPT2 properties, NMR spectrum
   Ute Becker             : All parallelization in ORCA, NUMFREQ, NUMCALC
   Giovanni Bistoni       : ED, misc. LED, open-shell LED, HFLD
   Martin Brehm           : Molecular dynamics
   Dmytro Bykov           : pre 5.0 version of the SCF Hessian
   Marcos Casanova-Páez   : Triplet and SCS-CIS(D). UHF-(DLPNO)-IP/EA/STEOM-CCSD. UHF-CVS-IP/STEOM-CCSD
   Vijay G. Chilkuri      : MRCI spin determinant printing, contributions to CSF-ICE
   Pauline Colinet        : FMM embedding
   Dipayan Datta          : RHF DLPNO-CCSD density
   Achintya Kumar Dutta   : EOM-CC, STEOM-CC
   Nicolas Foglia         : Exact transition moments, OPA infrastructure, MCD improvements
   Dmitry Ganyushin       : Spin-Orbit,Spin-Spin,Magnetic field MRCI
   Miquel Garcia          : C-PCM and meta-GGA Hessian, CCSD/C-PCM, Gaussian charge scheme
   Tiago L. C. Gouveia    : GS-ROHF, GS-ROCIS
   Yang Guo               : DLPNO-NEVPT2, F12-NEVPT2, CIM, IAO-localization
   Andreas Hansen         : Spin unrestricted coupled pair/coupled cluster methods
   Ingolf Harden          : AUTO-CI MPn and infrastructure 
   Benjamin Helmich-Paris : MC-RPA, TRAH-(SCF,CASSCF), AVAS, COSX integrals, SCF dyn. polar.
   Lee Huntington         : MR-EOM, pCC
   Robert Izsak           : Overlap fitted RIJCOSX, COSX-SCS-MP3, EOM
   Riya Kayal             : Wick's Theorem for AUTO-CI, AUTO-CI UHF-CCSDT
   Emily Kempfer          : AUTO-CI, RHF CISDT and CCSDT
   Christian Kollmar      : KDIIS, OOCD, Brueckner-CCSD(T), CCSD density, CASPT2, CASPT2-K, improved NEVPT2
   Axel Koslowski         : Symmetry handling
   Simone Kossmann        : Meta GGA functionals, TD-DFT gradient, OOMP2, (MP2 Hessian; deprecated post 5.0)
   Lucas Lang             : DCDCAS
   Marvin Lechner         : AUTO-CI (C++ implementation), FIC-MRCC
   Spencer Leger          : CASSCF response
   Dagmar Lenk            : GEPOL surface, SMD, ORCA-2-JSON
   Dimitrios Liakos       : Extrapolation schemes; Compound Job, initial MDCI parallelization
   Dimitrios Manganas     : Further ROCIS development; embedding schemes. LFT, Crystal Embedding
   Dimitrios Pantazis     : SARC Basis sets
   Anastasios Papadopoulos: AUTO-CI, single reference methods and gradients
   Taras Petrenko         : pre 6.0 DFT Hessian and TD-DFT gradient, (ASA, deprecated), ECA, 1-Electron XAS/XES, NRVS
   Peter Pinski           : DLPNO-MP2, DLPNO-MP2 Gradient
   Christoph Reimann      : Effective Core Potentials
   Marius Retegan         : Local ZFS, SOC
   Christoph Riplinger    : Optimizer, TS searches, QM/MM, DLPNO-CCSD(T), (RO)-DLPNO pert. Triples
   Michael Roemelt        : Original ROCIS implementation
   Masaaki Saitow         : Open-shell DLPNO-CCSD energy and density
   Barbara Sandhoefer     : DKH picture change effects
   Kantharuban Sivalingam : CASSCF convergence/infrastructure, NEVPT2 and variants, FIC-MRCI
   Bernardo de Souza      : ESD, SOC TD-DFT
   Georgi Stoychev        : AutoAux, RI-MP2 NMR, DLPNO-MP2 response, X2C
   Van Anh Tran           : RI-MP2 g-tensors
   Willem Van den Heuvel  : Paramagnetic NMR
   Zikuan Wang            : NOTCH, Electric field optimization 
   Frank Wennmohs         : Technical directorship and infrastructure
   Hang Xu                : AUTO-CI-Response properties 


 We gratefully acknowledge several colleagues who have allowed us to
 interface, adapt or use parts of their codes:
   Stefan Grimme, W. Hujo, H. Kruse, P. Pracht,  : VdW corrections, initial TS optimization,
                  C. Bannwarth, S. Ehlert,         DFT functionals, gCP, sTDA/sTD-DF
                  L. Wittmann, M. Mueller
   Ed Valeev, F. Pavosevic, A. Kumar             : LibInt (2-el integral package), F12 methods
   Garnet Chan, S. Sharma, J. Yang, R. Olivares  : DMRG
   Ulf Ekstrom                                   : XCFun DFT Library
   Mihaly Kallay                                 : mrcc  (arbitrary order and MRCC methods)
   Frank Weinhold                                : gennbo (NPA and NBO analysis)
   Simon Mueller                                 : openCOSMO-RS
   Christopher J. Cramer and Donald G. Truhlar   : smd solvation model
   Lars Goerigk                                  : TD-DFT with DH, B97 family of functionals
   V. Asgeirsson, H. Jonsson                     : NEB implementation
   FAccTs GmbH                                   : IRC, NEB, NEB-TS, DLPNO-Multilevel, CI-OPT
                                                   MM, QMMM, 2- and 3-layer-ONIOM, Crystal-QMMM,
                                                   LR-CPCM, SF, NACMEs, symmetry and pop. for TD-DFT,
                                                   nearIR, NL-DFT gradient (VV10), updates on ESD,
                                                   ML-optimized integration grids, MBIS, APM,
                                                   GOAT, DOCKER, SOLVATOR, interface openCOSMO-RS
   S Lehtola, MJT Oliveira, MAL Marques          : LibXC Library
   Liviu Ungur et al                             : ANISO software


 Your calculation uses the libint2 library for the computation of 2-el integrals
 For citations please refer to: http://libint.valeyev.net

 Your ORCA version has been built with support for libXC version: 6.2.2
 For citations please refer to: https://libxc.gitlab.io

 This ORCA versions uses:
   CBLAS   interface :  Fast vector & matrix operations
   LAPACKE interface :  Fast linear algebra routines
   Shared memory     :  Shared parallel matrices


Your calculation utilizes the atom-pairwise dispersion correction
with the Becke-Johnson damping scheme (D3BJ)


Warning: RI is on but no J-basis has been assigned. Assigning Def2/J (nothing to worry about!)
================================================================================

----- Orbital basis set information -----
Your calculation utilizes the basis: def2-SVP
   F. Weigend and R. Ahlrichs, Phys. Chem. Chem. Phys. 7, 3297 (2005).

----- AuxJ basis set information -----
Your calculation utilizes the auxiliary basis: def2/J
   F. Weigend, Phys. Chem. Chem. Phys. 8, 1057 (2006).

================================================================================
                                        WARNINGS
                       Please study these warnings very carefully!
================================================================================


WARNING: Geometry Optimization
  ===> : Switching off AutoStart
         For restart on a previous wavefunction, please use MOREAD

================================================================================
                                       INPUT FILE
================================================================================
NAME = data/geom_opt_P_BP86/69597/69597.inp
|  1> ! RI BP86 def2-SVP D3BJ TIGHTSCF Opt
|  2> %pal
|  3> nprocs 6
|  4> end
|  5> 
|  6> * xyz 0 1
|  7> C     -2.286744   -0.828031   -0.955374
|  8> P     -1.554620   -0.530040    0.699619
|  9> C     -2.106181    1.196557    0.979709
| 10> C      0.207234   -0.312296    0.307404
| 11> C      0.675464    0.578137   -0.667905
| 12> C      2.043938    0.702915   -0.926149
| 13> C      2.962990   -0.061494   -0.212141
| 14> C      2.514525   -0.950893    0.760243
| 15> C      1.146475   -1.074825    1.017561
| 16> H     -3.374958   -0.908953   -0.872489
| 17> H     -2.067044   -0.026141   -1.665760
| 18> H     -1.914153   -1.767431   -1.374953
| 19> H     -1.899710    1.850122    0.127554
| 20> H     -3.185228    1.218423    1.160839
| 21> H     -1.612244    1.617769    1.860590
| 22> H     -0.014201    1.189569   -1.243264
| 23> H      2.390456    1.398357   -1.686091
| 24> H      4.026477    0.035582   -0.412944
| 25> H      3.226816   -1.550290    1.320898
| 26> H      0.820708   -1.777038    1.782651
| 27> **                         ****END OF INPUT****
================================================================================

                       *****************************
                       * Geometry Optimization Run *
                       *****************************

Geometry optimization settings:
Update method            Update   .... BFGS
Choice of coordinates    CoordSys .... (2022) Redundant Internals
Initial Hessian          InHess   .... Almloef's Model
Max. no of cycles        MaxIter  .... 60

Convergence Tolerances:
Energy Change            TolE     ....  5.0000e-06 Eh
Max. Gradient            TolMAXG  ....  3.0000e-04 Eh/bohr
RMS Gradient             TolRMSG  ....  1.0000e-04 Eh/bohr
Max. Displacement        TolMAXD  ....  4.0000e-03 bohr
RMS Displacement         TolRMSD  ....  2.0000e-03 bohr
Strict Convergence                .... False

------------------------------------------------------------------------------
                        ORCA OPTIMIZATION COORDINATE SETUP
------------------------------------------------------------------------------

The optimization will be done in redundant internal coordinates (2022)
Making redundant internal coordinates   ...  (2022 redundants) done
Evaluating the initial hessian          ...  (Almloef) done
Evaluating the coordinates              ...  done
Calculating the B-matrix                .... done
Calculating the G-matrix                .... done
Diagonalizing the G-matrix              .... done
Small eigenvalue found = 2.510e-02
Small eigenvalue found = 2.737e-02
The first mode is                       ....   37
The number of degrees of freedom        ....   54

    -----------------------------------------------------------------
                    Redundant Internal Coordinates


    -----------------------------------------------------------------
         Definition                    Initial Value    Approx d2E/dq
    -----------------------------------------------------------------
      1. B(P   1,C   0)                  1.8341         0.410913   
      2. B(C   2,P   1)                  1.8341         0.410913   
      3. B(C   3,P   1)                  1.8181         0.435789   
      4. B(C   4,C   3)                  1.4012         0.599630   
      5. B(C   5,C   4)                  1.3982         0.606242   
      6. B(C   6,C   5)                  1.3924         0.619306   
      7. B(C   7,C   6)                  1.3920         0.620208   
      8. B(C   8,C   7)                  1.3975         0.607716   
      9. B(C   8,C   3)                  1.4028         0.596020   
     10. B(H   9,C   0)                  1.0944         0.354376   
     11. B(H  10,C   0)                  1.0936         0.355379   
     12. B(H  11,C   0)                  1.0942         0.354545   
     13. B(H  12,C   2)                  1.0936         0.355378   
     14. B(H  13,C   2)                  1.0944         0.354375   
     15. B(H  14,C   2)                  1.0942         0.354544   
     16. B(H  15,C   4)                  1.0865         0.364734   
     17. B(H  16,C   5)                  1.0868         0.364302   
     18. B(H  17,C   6)                  1.0866         0.364595   
     19. B(H  18,C   7)                  1.0867         0.364460   
     20. B(H  19,C   8)                  1.0884         0.362238   
     21. A(H  10,C   0,H  11)          108.1809         0.289531   
     22. A(H   9,C   0,H  11)          107.7071         0.289402   
     23. A(H   9,C   0,H  10)          107.6492         0.289509   
     24. A(P   1,C   0,H  10)          112.7576         0.349099   
     25. A(P   1,C   0,H  11)          110.4610         0.348961   
     26. A(P   1,C   0,H   9)          109.9140         0.348932   
     27. A(C   0,P   1,C   3)          102.2178         0.430698   
     28. A(C   0,P   1,C   2)           99.8293         0.426183   
     29. A(C   2,P   1,C   3)          102.2178         0.430698   
     30. A(H  13,C   2,H  14)          107.7071         0.289402   
     31. A(H  12,C   2,H  14)          108.1809         0.289530   
     32. A(P   1,C   2,H  14)          110.4611         0.348960   
     33. A(H  12,C   2,H  13)          107.6492         0.289509   
     34. A(P   1,C   2,H  13)          109.9139         0.348932   
     35. A(P   1,C   2,H  12)          112.7576         0.349099   
     36. A(C   4,C   3,C   8)          118.2979         0.428423   
     37. A(P   1,C   3,C   8)          118.3280         0.431597   
     38. A(P   1,C   3,C   4)          123.3742         0.432066   
     39. A(C   3,C   4,H  15)          120.9370         0.351680   
     40. A(C   5,C   4,H  15)          118.2438         0.352333   
     41. A(C   3,C   4,C   5)          120.8192         0.429732   
     42. A(C   6,C   5,H  16)          119.9597         0.353536   
     43. A(C   4,C   5,H  16)          119.8874         0.352262   
     44. A(C   4,C   5,C   6)          120.1529         0.432231   
     45. A(C   5,C   6,C   7)          119.7571         0.434005   
     46. A(C   7,C   6,H  17)          120.0980         0.353671   
     47. A(C   5,C   6,H  17)          120.1449         0.353584   
     48. A(C   8,C   7,H  18)          119.8488         0.352433   
     49. A(C   6,C   7,H  18)          120.1083         0.353649   
     50. A(C   6,C   7,C   8)          120.0430         0.432533   
     51. A(C   3,C   8,C   7)          120.9300         0.429453   
     52. A(C   7,C   8,H  19)          118.6617         0.352069   
     53. A(C   3,C   8,H  19)          120.4083         0.350914   
     54. D(C   2,P   1,C   0,H   9)    -71.1611         0.003789   
     55. D(C   2,P   1,C   0,H  10)     48.9490         0.003789   
     56. D(C   3,P   1,C   0,H  10)    -55.9595         0.003789   
     57. D(C   2,P   1,C   0,H  11)    170.1244         0.003789   
     58. D(C   3,P   1,C   0,H   9)   -176.0696         0.003789   
     59. D(H  12,C   2,P   1,C   0)    -48.9489         0.003789   
     60. D(H  12,C   2,P   1,C   3)     55.9595         0.003789   
     61. D(H  13,C   2,P   1,C   3)    176.0696         0.003789   
     62. D(H  14,C   2,P   1,C   0)   -170.1244         0.003789   
     63. D(H  13,C   2,P   1,C   0)     71.1612         0.003789   
     64. D(C   8,C   3,P   1,C   2)    128.4808         0.003867   
     65. D(C   4,C   3,P   1,C   2)    -51.5192         0.003867   
     66. D(C   4,C   3,P   1,C   0)     51.5192         0.003867   
     67. D(C   8,C   3,P   1,C   0)   -128.4808         0.003867   
     68. D(C   5,C   4,C   3,P   1)   -180.0000         0.024785   
     69. D(H  15,C   4,C   3,C   8)   -180.0000         0.024785   
     70. D(H  15,C   4,C   3,P   1)      0.0000         0.024785   
     71. D(C   5,C   4,C   3,C   8)      0.0000         0.024785   
     72. D(H  16,C   5,C   4,H  15)      0.0000         0.025365   
     73. D(H  16,C   5,C   4,C   3)   -180.0000         0.025365   
     74. D(C   6,C   5,C   4,H  15)    180.0000         0.025365   
     75. D(C   6,C   5,C   4,C   3)     -0.0001         0.025365   
     76. D(H  17,C   6,C   5,H  16)     -0.0001         0.026536   
     77. D(H  17,C   6,C   5,C   4)    180.0000         0.026536   
     78. D(C   7,C   6,C   5,H  16)    180.0000         0.026536   
     79. D(C   7,C   6,C   5,C   4)      0.0000         0.026536   
     80. D(H  18,C   7,C   6,H  17)     -0.0000         0.026618   
     81. D(H  18,C   7,C   6,C   5)    179.9999         0.026618   
     82. D(C   8,C   7,C   6,H  17)   -179.9999         0.026618   
     83. D(C   8,C   7,C   6,C   5)      0.0000         0.026618   
     84. D(C   7,C   8,C   3,P   1)    180.0000         0.024472   
     85. D(H  19,C   8,C   7,H  18)      0.0001         0.025496   
     86. D(H  19,C   8,C   7,C   6)    180.0000         0.025496   
     87. D(C   3,C   8,C   7,H  18)   -179.9999         0.025496   
     88. D(C   3,C   8,C   7,C   6)     -0.0000         0.025496   
     89. D(H  19,C   8,C   3,C   4)    180.0000         0.024472   
     90. D(H  19,C   8,C   3,P   1)     -0.0000         0.024472   
     91. D(C   7,C   8,C   3,C   4)     -0.0000         0.024472   
    -----------------------------------------------------------------

Number of atoms                         .... 20
Number of degrees of freedom            .... 91


         *************************************************************
         *                GEOMETRY OPTIMIZATION CYCLE   1            *
         *************************************************************
---------------------------------
CARTESIAN COORDINATES (ANGSTROEM)
---------------------------------
  C     -2.286744   -0.828031   -0.955374
  P     -1.554620   -0.530040    0.699619
  C     -2.106181    1.196557    0.979709
  C      0.207234   -0.312296    0.307404
  C      0.675464    0.578137   -0.667905
  C      2.043938    0.702915   -0.926149
  C      2.962990   -0.061494   -0.212141
  C      2.514525   -0.950893    0.760243
  C      1.146475   -1.074825    1.017561
  H     -3.374958   -0.908953   -0.872489
  H     -2.067044   -0.026141   -1.665760
  H     -1.914153   -1.767431   -1.374953
  H     -1.899710    1.850122    0.127554
  H     -3.185228    1.218423    1.160839
  H     -1.612244    1.617769    1.860590
  H     -0.014201    1.189569   -1.243264
  H      2.390456    1.398357   -1.686091
  H      4.026477    0.035582   -0.412944
  H      3.226816   -1.550290    1.320898
  H      0.820708   -1.777038    1.782651

----------------------------
CARTESIAN COORDINATES (A.U.)
----------------------------
  NO LB      ZA    FRAG     MASS         X           Y           Z
   0 C     6.0000    0    12.011   -4.321320   -1.564752   -1.805395
   1 P    15.0000    0    30.974   -2.937806   -1.001630    1.322088
   2 C     6.0000    0    12.011   -3.980105    2.261165    1.851382
   3 C     6.0000    0    12.011    0.391616   -0.590154    0.580909
   4 C     6.0000    0    12.011    1.276442    1.092521   -1.262158
   5 C     6.0000    0    12.011    3.862483    1.328317   -1.750168
   6 C     6.0000    0    12.011    5.599240   -0.116207   -0.400888
   7 C     6.0000    0    12.011    4.751764   -1.796927    1.436651
   8 C     6.0000    0    12.011    2.166524   -2.031125    1.922912
   9 H     1.0000    0     1.008   -6.377746   -1.717672   -1.648765
  10 H     1.0000    0     1.008   -3.906147   -0.049399   -3.147830
  11 H     1.0000    0     1.008   -3.617225   -3.339961   -2.598285
  12 H     1.0000    0     1.008   -3.589932    3.496224    0.241042
  13 H     1.0000    0     1.008   -6.019209    2.302486    2.193668
  14 H     1.0000    0     1.008   -3.046700    3.057140    3.516006
  15 H     1.0000    0     1.008   -0.026836    2.247960   -2.349428
  16 H     1.0000    0     1.008    4.517307    2.642512   -3.186250
  17 H     1.0000    0     1.008    7.608939    0.067240   -0.780351
  18 H     1.0000    0     1.008    6.097799   -2.929624    2.496135
  19 H     1.0000    0     1.008    1.550913   -3.358115    3.368722

--------------------------------
INTERNAL COORDINATES (ANGSTROEM)
--------------------------------
 C      0   0   0     0.000000000000     0.00000000     0.00000000
 P      1   0   0     1.834068160540     0.00000000     0.00000000
 C      2   1   0     1.834068467978    99.82929075     0.00000000
 C      2   1   3     1.818068913182   102.21782143   255.09155417
 C      4   2   1     1.401191602127   123.37416516    51.51922780
 C      5   4   2     1.398206208503   120.81918723   180.00004889
 C      6   5   4     1.392402643652   120.15290514     0.00000000
 C      7   6   5     1.392006494555   119.75709724     0.00000000
 C      8   7   6     1.397545167874   120.04297781     0.00000000
 H      1   2   3     1.094361915961   109.91396670   288.83885073
 H      1   2   3     1.093592214263   112.75759779    48.94896530
 H      1   2   3     1.094231671321   110.46101029   170.12436252
 H      3   2   1     1.093592989686   112.75762974   311.05106286
 H      3   2   1     1.094362201040   109.91393336    71.16117810
 H      3   2   1     1.094232445632   110.46107413   189.87563955
 H      5   4   2     1.086519618659   120.93700792     0.00000000
 H      6   5   4     1.086842280670   119.88740791   180.00000171
 H      7   6   5     1.086623298919   120.14486627   179.99995133
 H      8   7   6     1.086724096225   120.10825836   179.99992939
 H      9   8   7     1.088388691488   118.66174178   179.99996559

---------------------------
INTERNAL COORDINATES (A.U.)
---------------------------
 C      0   0   0     0.000000000000     0.00000000     0.00000000
 P      1   0   0     3.465886534365     0.00000000     0.00000000
 C      2   1   0     3.465887115338    99.82929075     0.00000000
 C      2   1   3     3.435652338509   102.21782143   255.09155417
 C      4   2   1     2.647868389170   123.37416516    51.51922780
 C      5   4   2     2.642226812819   120.81918723   180.00004889
 C      6   5   4     2.631259664650   120.15290514     0.00000000
 C      7   6   5     2.630511051348   119.75709724     0.00000000
 C      8   7   6     2.640977627067   120.04297781     0.00000000
 H      1   2   3     2.068044312559   109.91396670   288.83885073
 H      1   2   3     2.066589787145   112.75759779    48.94896530
 H      1   2   3     2.067798185860   110.46101029   170.12436252
 H      3   2   1     2.066591252483   112.75762974   311.05106286
 H      3   2   1     2.068044851281   109.91393336    71.16117810
 H      3   2   1     2.067799649096   110.46107413   189.87563955
 H      5   4   2     2.053224518397   120.93700792     0.00000000
 H      6   5   4     2.053834261233   119.88740791   180.00000171
 H      7   6   5     2.053420445695   120.14486627   179.99995133
 H      8   7   6     2.053610924997   120.10825836   179.99992939
 H      9   8   7     2.056756554168   118.66174178   179.99996559

---------------------
BASIS SET INFORMATION
---------------------
There are 3 groups of distinct atoms

 Group   1 Type C   : 7s4p1d contracted to 3s2p1d pattern {511/31/1}
 Group   2 Type P   : 10s7p1d contracted to 4s3p1d pattern {5311/511/1}
 Group   3 Type H   : 4s1p contracted to 2s1p pattern {31/1}

Atom   0C    basis set group =>   1
Atom   1P    basis set group =>   2
Atom   2C    basis set group =>   1
Atom   3C    basis set group =>   1
Atom   4C    basis set group =>   1
Atom   5C    basis set group =>   1
Atom   6C    basis set group =>   1
Atom   7C    basis set group =>   1
Atom   8C    basis set group =>   1
Atom   9H    basis set group =>   3
Atom  10H    basis set group =>   3
Atom  11H    basis set group =>   3
Atom  12H    basis set group =>   3
Atom  13H    basis set group =>   3
Atom  14H    basis set group =>   3
Atom  15H    basis set group =>   3
Atom  16H    basis set group =>   3
Atom  17H    basis set group =>   3
Atom  18H    basis set group =>   3
Atom  19H    basis set group =>   3
---------------------------------
AUXILIARY/J BASIS SET INFORMATION
---------------------------------
There are 3 groups of distinct atoms

 Group   1 Type C   : 12s5p4d2f1g contracted to 6s4p3d1f1g pattern {711111/2111/211/2/1}
 Group   2 Type P   : 14s5p5d2f1g contracted to 8s4p3d1f1g pattern {71111111/2111/311/2/1}
 Group   3 Type H   : 5s2p1d contracted to 3s1p1d pattern {311/2/1}

Atom   0C    basis set group =>   1
Atom   1P    basis set group =>   2
Atom   2C    basis set group =>   1
Atom   3C    basis set group =>   1
Atom   4C    basis set group =>   1
Atom   5C    basis set group =>   1
Atom   6C    basis set group =>   1
Atom   7C    basis set group =>   1
Atom   8C    basis set group =>   1
Atom   9H    basis set group =>   3
Atom  10H    basis set group =>   3
Atom  11H    basis set group =>   3
Atom  12H    basis set group =>   3
Atom  13H    basis set group =>   3
Atom  14H    basis set group =>   3
Atom  15H    basis set group =>   3
Atom  16H    basis set group =>   3
Atom  17H    basis set group =>   3
Atom  18H    basis set group =>   3
Atom  19H    basis set group =>   3


           ************************************************************
           *        Program running with 6 parallel MPI-processes     *
           *              working on a common directory               *
           ************************************************************
------------------------------------------------------------------------------
                             ORCA STARTUP CALCULATIONS
                           -- RI-GTO INTEGRALS CHOSEN --
------------------------------------------------------------------------------
------------------------------------------------------------------------------
                   ___                                                        
                  /   \      - P O W E R E D   B Y -                         
                 /     \                                                     
                 |  |  |   _    _      __       _____    __    __             
                 |  |  |  | |  | |    /  \     |  _  \  |  |  /  |          
                  \  \/   | |  | |   /    \    | | | |  |  | /  /          
                 / \  \   | |__| |  /  /\  \   | |_| |  |  |/  /          
                |  |  |   |  __  | /  /__\  \  |    /   |      \           
                |  |  |   | |  | | |   __   |  |    \   |  |\   \          
                \     /   | |  | | |  |  |  |  | |\  \  |  | \   \       
                 \___/    |_|  |_| |__|  |__|  |_| \__\ |__|  \__/        
                                                                              
                      - O R C A' S   B I G   F R I E N D -                    
                                      &                                       
                       - I N T E G R A L  F E E D E R -                       
                                                                              
 v1 FN, 2020, v2 2021, v3 2022-2024                                           
------------------------------------------------------------------------------


----------------------
SHARK INTEGRAL PACKAGE
----------------------

Number of atoms                             ...     20
Number of basis functions                   ...    185
Number of shells                            ...     89
Maximum angular momentum                    ...      2
Integral batch strategy                     ... SHARK/LIBINT Hybrid
RI-J (if used) integral strategy            ... SPLIT-RIJ (Revised 2003 algorithm where possible)
Printlevel                                  ...      1
Contraction scheme used                     ... SEGMENTED contraction
Prescreening option                         ... SCHWARTZ
   Thresh                                   ... 2.500e-11
   Tcut                                     ... 2.500e-12
   Tpresel                                  ... 2.500e-12 
Coulomb Range Separation                    ... NOT USED
Exchange Range Separation                   ... NOT USED
Multipole approximations                    ... NOT USED
Finite Nucleus Model                        ... NOT USED
CABS basis                                  ... NOT available
Auxiliary Coulomb fitting basis             ... AVAILABLE
   # of basis functions in Aux-J            ...    564
   # of shells in Aux-J                     ...    192
   Maximum angular momentum in Aux-J        ...      4
Auxiliary J/K fitting basis                 ... NOT available
Auxiliary Correlation fitting basis         ... NOT available
Auxiliary 'external' fitting basis          ... NOT available

Checking pre-screening integrals            ... done (  0.0 sec) Dimension = 89
Check shell pair data                       ... done (  0.0 sec)
Shell pair information
Shell pair cut-off parameter TPreSel        ...   2.5e-12
Total number of shell pairs                 ...      4005
Shell pairs after pre-screening             ...      3655
Total number of primitive shell pairs       ...     14525
Primitive shell pairs kept                  ...      9420
          la=0 lb=0:   1167 shell pairs
          la=1 lb=0:   1373 shell pairs
          la=1 lb=1:    417 shell pairs
          la=2 lb=0:    417 shell pairs
          la=2 lb=1:    240 shell pairs
          la=2 lb=2:     41 shell pairs

Calculating one electron integrals          ... done (  0.0 sec)
Calculating RI/J V-Matrix + Cholesky decomp.... done (  0.0 sec)
Calculating Nuclear repulsion               ... done (  0.0 sec) ENN=    496.013125510364 Eh

Diagonalization of the overlap matrix:
Smallest eigenvalue                        ... 2.950e-04
Time for diagonalization                   ...    0.005 sec
Threshold for overlap eigenvalues          ... 1.000e-07
Number of eigenvalues below threshold      ... 0
Time for construction of square roots      ...    0.003 sec
Total time needed                          ...    0.009 sec

-------------------
DFT GRID GENERATION
-------------------

General Integration Accuracy     IntAcc      ... 4.388
Radial Grid Type                 RadialGrid  ... OptM3 with GC (2021)
Angular Grid (max. ang.)         AngularGrid ... 4 (Lebedev-302)
Angular grid pruning method      GridPruning ... 4 (adaptive)
Weight generation scheme         WeightScheme... mBecke (2022)
Basis function cutoff            BFCut       ... 1.0000e-11
Integration weight cutoff        WCut        ... 1.0000e-14
Partially contracted basis set               ... off
Rotationally invariant grid construction     ... off
Angular grids for H and He will be reduced by one unit

Total number of grid points                  ...    90677
Total number of batches                      ...     1427
Average number of points per batch           ...       63
Average number of grid points per atom       ...     4534
Initializing property integral containers    ... done (  0.0 sec)

SHARK setup successfully completed in   0.6 seconds

Maximum memory used throughout the entire STARTUP-calculation: 24.5 MB


           ************************************************************
           *        Program running with 6 parallel MPI-processes     *
           *              working on a common directory               *
           ************************************************************
-------------------------------------------------------------------------------
                                 ORCA GUESS
                   Start orbitals & Density for SCF / CASSCF
-------------------------------------------------------------------------------

------------
SCF SETTINGS
------------
Hamiltonian:
 Density Functional     Method          .... DFT(GTOs)
 Exchange Functional    Exchange        .... B88
   X-Alpha parameter    XAlpha          ....  0.666667
   Becke's b parameter  XBeta           ....  0.004200
 Correlation Functional Correlation     .... P86
 LDA part of GGA corr.  LDAOpt          .... PW91-LDA
 Gradients option       PostSCFGGA      .... off
   NL short-range parameter             ....  4.400000
 RI-approximation to the Coulomb term is turned on
   Number of AuxJ basis functions       .... 564


General Settings:
 Integral files         IntName         .... data/geom_opt_P_BP86/69597/69597
 Hartree-Fock type      HFTyp           .... RHF
 Total Charge           Charge          ....    0
 Multiplicity           Mult            ....    1
 Number of Electrons    NEL             ....   74
 Basis Dimension        Dim             ....  185
 Nuclear Repulsion      ENuc            ....    496.0131255104 Eh

Convergence Acceleration:
 AO-DIIS                CNVDIIS         .... on
   Start iteration      DIISMaxIt       ....    12
   Startup error        DIISStart       ....  0.200000
   # of expansion vecs  DIISMaxEq       ....     5
   Bias factor          DIISBfac        ....   1.050
   Max. coefficient     DIISMaxC        ....  10.000
 MO-DIIS                CNVKDIIS        .... off
 Trust-Rad. Augm. Hess. CNVTRAH         .... auto
   Auto Start mean grad. ratio tolernc. ....  1.125000
   Auto Start start iteration           ....    50
   Auto Start num. interpolation iter.  ....    10
   Max. Number of Micro iterations      ....    24
   Max. Number of Macro iterations      .... Maxiter - #DIIS iter
   Number of Davidson start vectors     ....     2
   Converg. threshold    (grad. norm)   ....   1.000e-05
   Grad. Scal. Fac. for Micro threshold ....   0.100
   Minimum threshold for Micro iter.    ....   1.000e-02
   NR start threshold (gradient norm)   ....   1.000e-04
   Initial trust radius                 ....   0.400
   Minimum AH scaling param. (alpha)    ....   1.000
   Maximum AH scaling param. (alpha)    .... 1000.000
   Quad. conv. algorithm                .... NR
   White noise on init. David. guess    .... on
   Maximum white noise                  ....   0.010
   Pseudo random numbers                .... off
   Inactive MOs                         .... canonical
   Orbital update algorithm             .... Taylor
   Preconditioner                       .... Diag
   Full preconditioner red. dimension   ....   250
 SOSCF                  CNVSOSCF        .... on
   Start iteration      SOSCFMaxIt      ....   150
   Startup grad/error   SOSCFStart      ....  0.003300
   Hessian update       SOSCFHessUp     .... L-BFGS
 Level Shifting         CNVShift        .... on
   Level shift para.    LevelShift      ....    0.2500
   Turn off err/grad.   ShiftErr        ....    0.0010
 Zerner damping         CNVZerner       .... off
 Static damping         CNVDamp         .... on
   Fraction old density DampFac         ....    0.7000
   Max. Damping (<1)    DampMax         ....    0.9800
   Min. Damping (>=0)   DampMin         ....    0.0000
   Turn off err/grad.   DampErr         ....    0.1000

SCF Procedure:
 Maximum # iterations   MaxIter         ....   125
 SCF integral mode      SCFMode         .... Direct
   Integral package                     .... SHARK and LIBINT hybrid scheme
 Reset frequency        DirectResetFreq ....    20
 Integral Threshold     Thresh          ....  2.500e-11 Eh
 Primitive CutOff       TCut            ....  2.500e-12 Eh

Convergence Tolerance:
 Convergence Check Mode ConvCheckMode   .... Total+1el-Energy
 Convergence forced     ConvForced      .... 0
 Energy Change          TolE            ....  1.000e-08 Eh
 1-El. energy change                    ....  1.000e-05 Eh
 Orbital Gradient       TolG            ....  1.000e-05
 Orbital Rotation angle TolX            ....  1.000e-05
 DIIS Error             TolErr          ....  5.000e-07

------------------------------
INITIAL GUESS: MODEL POTENTIAL
------------------------------
Loading Hartree-Fock densities                     ... done
Calculating cut-offs                               ... done
Initializing the effective Hamiltonian             ... done
Setting up the integral package (SHARK)            ... done
Starting the Coulomb interaction                   ... done (   0.0 sec)
Making the grid                                    ... done (   0.1 sec)
Mapping shells                                     ... done
Starting the XC term evaluation                    ... done (   0.1 sec)
  promolecular density results
     # of electrons  =     73.997675052
     EX              =    -67.026499066
     EC              =     -2.753099156
     EX+EC           =    -69.779598222
Transforming the Hamiltonian                       ... done (   0.0 sec)
Diagonalizing the Hamiltonian                      ... done (   0.0 sec)
Back transforming the eigenvectors                 ... done (   0.0 sec)
Now organizing SCF variables                       ... done
                      ------------------
                      INITIAL GUESS DONE (   0.2 sec)
                      ------------------
             **** ENERGY FILE WAS UPDATED (data/geom_opt_P_BP86/69597/69597.en.tmp) ****
Finished Guess after   0.3 sec
Maximum memory used throughout the entire GUESS-calculation: 13.1 MB


           ************************************************************
           *        Program running with 6 parallel MPI-processes     *
           *              working on a common directory               *
           ************************************************************

-------------------------------------------------------------------------------------------
                                      ORCA LEAN-SCF
                              memory conserving SCF solver
-------------------------------------------------------------------------------------------

----------------------------------------D-I-I-S--------------------------------------------
Iteration    Energy (Eh)           Delta-E    RMSDP     MaxDP     DIISErr   Damp  Time(sec)
-------------------------------------------------------------------------------------------
               ***  Starting incremental Fock matrix formation  ***
    1    -652.3110846939639487     0.00e+00  3.05e-03  8.56e-02  1.67e-01  0.700   0.3
    2    -652.4162151972473112    -1.05e-01  2.19e-03  5.38e-02  7.79e-02  0.700   0.3
                               ***Turning on AO-DIIS***
    3    -652.4540668440711215    -3.79e-02  9.85e-04  3.71e-02  2.08e-02  0.700   0.3
    4    -652.4760010314514602    -2.19e-02  1.86e-03  7.68e-02  8.60e-03  0.000   0.3
    5    -652.5250642213406991    -4.91e-02  3.38e-04  9.39e-03  5.98e-03  0.000   0.3
                              *** Initializing SOSCF ***
---------------------------------------S-O-S-C-F--------------------------------------
Iteration    Energy (Eh)           Delta-E    RMSDP     MaxDP     MaxGrad    Time(sec)
--------------------------------------------------------------------------------------
    6    -652.5255177093724797    -4.53e-04  1.19e-04  1.72e-03  1.53e-03     0.3
               *** Restarting incremental Fock matrix formation ***
    7    -652.5255490679467130    -3.14e-05  8.61e-05  1.63e-03  2.00e-04     0.4
    8    -652.5255484254005296     6.43e-07  3.27e-05  5.06e-04  4.58e-04     0.2
    9    -652.5255516925628854    -3.27e-06  3.63e-05  9.55e-04  2.09e-04     0.3
   10    -652.5255512421122148     4.50e-07  1.86e-05  3.00e-04  1.82e-04     0.3
   11    -652.5255524049400719    -1.16e-06  8.18e-06  2.88e-04  2.25e-05     0.2
   12    -652.5255523796195121     2.53e-08  3.61e-06  1.12e-04  5.11e-05     0.2
   13    -652.5255524219592189    -4.23e-08  4.04e-06  1.37e-04  1.81e-05     0.2
   14    -652.5255524188269192     3.13e-09  2.47e-06  9.31e-05  1.97e-05     0.2
                 **** Energy Check signals convergence ****

               *****************************************************
               *                     SUCCESS                       *
               *           SCF CONVERGED AFTER  14 CYCLES          *
               *****************************************************

             **** ENERGY FILE WAS UPDATED (data/geom_opt_P_BP86/69597/69597.en.tmp) ****

----------------
TOTAL SCF ENERGY
----------------

Total Energy       :       -652.52555241882692 Eh          -17756.12299 eV

Components:
Nuclear Repulsion  :        496.01312551036443 Eh           13497.20333 eV
Electronic Energy  :      -1148.53867792919141 Eh          -31253.32631 eV
One Electron Energy:      -1874.74453915551135 Eh          -51014.39243 eV
Two Electron Energy:        726.20586122631994 Eh           19761.06612 eV

Virial components:
Potential Energy   :      -1300.34371748211265 Eh          -35384.15145 eV
Kinetic Energy     :        647.81816506328573 Eh           17628.02846 eV
Virial Ratio       :          2.00726652571572

DFT components:
N(Alpha)           :       37.000120545657 electrons
N(Beta)            :       37.000120545657 electrons
N(Total)           :       74.000241091315 electrons
E(X)               :      -67.995549973713 Eh       
E(C)               :       -2.757895206657 Eh       
E(XC)              :      -70.753445180370 Eh       

---------------
SCF CONVERGENCE
---------------

  Last Energy change         ...   -3.1323e-09  Tolerance :   1.0000e-08
  Last MAX-Density change    ...    9.3098e-05  Tolerance :   1.0000e-07
  Last RMS-Density change    ...    2.4694e-06  Tolerance :   5.0000e-09
  Last DIIS Error            ...    1.5284e-03  Tolerance :   5.0000e-07
  Last Orbital Gradient      ...    1.9695e-05  Tolerance :   1.0000e-05
  Last Orbital Rotation      ...    3.3891e-05  Tolerance :   1.0000e-05


----------------
ORBITAL ENERGIES
----------------

  NO   OCC          E(Eh)            E(eV) 
   0   2.0000     -76.327155     -2076.9675 
   1   2.0000      -9.921110      -269.9671 
   2   2.0000      -9.919729      -269.9295 
   3   2.0000      -9.919397      -269.9205 
   4   2.0000      -9.918903      -269.9071 
   5   2.0000      -9.918181      -269.8874 
   6   2.0000      -9.917600      -269.8716 
   7   2.0000      -9.907251      -269.5900 
   8   2.0000      -9.907217      -269.5891 
   9   2.0000      -6.298406      -171.3883 
  10   2.0000      -4.519917      -122.9932 
  11   2.0000      -4.519552      -122.9833 
  12   2.0000      -4.515849      -122.8825 
  13   2.0000      -0.777423       -21.1548 
  14   2.0000      -0.696171       -18.9438 
  15   2.0000      -0.673017       -18.3137 
  16   2.0000      -0.655997       -17.8506 
  17   2.0000      -0.618881       -16.8406 
  18   2.0000      -0.551331       -15.0025 
  19   2.0000      -0.543484       -14.7890 
  20   2.0000      -0.494564       -13.4578 
  21   2.0000      -0.453862       -12.3502 
  22   2.0000      -0.410426       -11.1683 
  23   2.0000      -0.401749       -10.9321 
  24   2.0000      -0.386249       -10.5104 
  25   2.0000      -0.381043       -10.3687 
  26   2.0000      -0.371588       -10.1114 
  27   2.0000      -0.366175        -9.9641 
  28   2.0000      -0.354211        -9.6386 
  29   2.0000      -0.342144        -9.3102 
  30   2.0000      -0.334505        -9.1023 
  31   2.0000      -0.307349        -8.3634 
  32   2.0000      -0.301482        -8.2037 
  33   2.0000      -0.284557        -7.7432 
  34   2.0000      -0.234658        -6.3854 
  35   2.0000      -0.233309        -6.3486 
  36   2.0000      -0.189591        -5.1590 
  37   0.0000      -0.054439        -1.4814 
  38   0.0000      -0.044210        -1.2030 
  39   0.0000       0.035982         0.9791 
  40   0.0000       0.037797         1.0285 
  41   0.0000       0.047758         1.2996 
  42   0.0000       0.069028         1.8783 
  43   0.0000       0.072439         1.9712 
  44   0.0000       0.089264         2.4290 
  45   0.0000       0.091221         2.4823 
  46   0.0000       0.094433         2.5697 
  47   0.0000       0.110912         3.0181 
*Only the first 10 virtual orbitals were printed.

                    ********************************
                    * MULLIKEN POPULATION ANALYSIS *
                    ********************************

-----------------------
MULLIKEN ATOMIC CHARGES
-----------------------
   0 C :   -0.168892
   1 P :    0.106457
   2 C :   -0.168674
   3 C :   -0.085748
   4 C :   -0.008232
   5 C :    0.011718
   6 C :    0.011259
   7 C :    0.006894
   8 C :    0.003378
   9 H :    0.058904
  10 H :    0.038690
  11 H :    0.066128
  12 H :    0.038661
  13 H :    0.058897
  14 H :    0.066059
  15 H :   -0.014274
  16 H :   -0.006997
  17 H :   -0.003108
  18 H :   -0.003309
  19 H :   -0.007812
Sum of atomic charges:   -0.0000000

--------------------------------
MULLIKEN REDUCED ORBITAL CHARGES
--------------------------------
  0 C s       :     3.062844  s :     3.062844
      pz      :     1.018089  p :     3.085515
      px      :     1.029767
      py      :     1.037658
      dz2     :     0.004162  d :     0.020533
      dxz     :     0.002124
      dyz     :     0.006341
      dx2y2   :     0.005982
      dxy     :     0.001924

  1 P s       :     5.791675  s :     5.791675
      pz      :     3.088815  p :     8.923403
      px      :     2.784189
      py      :     3.050399
      dz2     :     0.042974  d :     0.178465
      dxz     :     0.034441
      dyz     :     0.020972
      dx2y2   :     0.051072
      dxy     :     0.029006

  2 C s       :     3.062739  s :     3.062739
      pz      :     1.036563  p :     3.085403
      px      :     1.031842
      py      :     1.016998
      dz2     :     0.003766  d :     0.020532
      dxz     :     0.002757
      dyz     :     0.006277
      dx2y2   :     0.005899
      dxy     :     0.001834

  3 C s       :     3.054196  s :     3.054196
      pz      :     0.998705  p :     2.996499
      px      :     0.997641
      py      :     1.000153
      dz2     :     0.006730  d :     0.035053
      dxz     :     0.007967
      dyz     :     0.005101
      dx2y2   :     0.007822
      dxy     :     0.007434

  4 C s       :     3.222319  s :     3.222319
      pz      :     0.940693  p :     2.753010
      px      :     0.875070
      py      :     0.937248
      dz2     :     0.005062  d :     0.032903
      dxz     :     0.008763
      dyz     :     0.004121
      dx2y2   :     0.006555
      dxy     :     0.008402

  5 C s       :     3.167194  s :     3.167194
      pz      :     0.911568  p :     2.788212
      px      :     0.953928
      py      :     0.922716
      dz2     :     0.004458  d :     0.032876
      dxz     :     0.008305
      dyz     :     0.004216
      dx2y2   :     0.007706
      dxy     :     0.008192

  6 C s       :     3.168354  s :     3.168354
      pz      :     0.967359  p :     2.787267
      px      :     0.848819
      py      :     0.971089
      dz2     :     0.006951  d :     0.033120
      dxz     :     0.006543
      dyz     :     0.005196
      dx2y2   :     0.008436
      dxy     :     0.005994

  7 C s       :     3.169845  s :     3.169845
      pz      :     0.941239  p :     2.790521
      px      :     0.911695
      py      :     0.937588
      dz2     :     0.005172  d :     0.032740
      dxz     :     0.008593
      dyz     :     0.004099
      dx2y2   :     0.006582
      dxy     :     0.008293

  8 C s       :     3.234471  s :     3.234471
      pz      :     0.907454  p :     2.729391
      px      :     0.902969
      py      :     0.918968
      dz2     :     0.004421  d :     0.032760
      dxz     :     0.008156
      dyz     :     0.004263
      dx2y2   :     0.007884
      dxy     :     0.008036

  9 H s       :     0.917568  s :     0.917568
      pz      :     0.005139  p :     0.023528
      px      :     0.012895
      py      :     0.005495

 10 H s       :     0.937716  s :     0.937716
      pz      :     0.008386  p :     0.023594
      px      :     0.005747
      py      :     0.009460

 11 H s       :     0.910596  s :     0.910596
      pz      :     0.006040  p :     0.023276
      px      :     0.006206
      py      :     0.011030

 12 H s       :     0.937739  s :     0.937739
      pz      :     0.010024  p :     0.023600
      px      :     0.005704
      py      :     0.007872

 13 H s       :     0.917573  s :     0.917573
      pz      :     0.005689  p :     0.023530
      px      :     0.012772
      py      :     0.005069

 14 H s       :     0.910666  s :     0.910666
      pz      :     0.010336  p :     0.023274
      px      :     0.006917
      py      :     0.006021

 15 H s       :     0.991629  s :     0.991629
      pz      :     0.007102  p :     0.022645
      px      :     0.008007
      py      :     0.007537

 16 H s       :     0.984597  s :     0.984597
      pz      :     0.009185  p :     0.022400
      px      :     0.004759
      py      :     0.008457

 17 H s       :     0.980758  s :     0.980758
      pz      :     0.004665  p :     0.022350
      px      :     0.013222
      py      :     0.004463

 18 H s       :     0.980927  s :     0.980927
      pz      :     0.006988  p :     0.022382
      px      :     0.007971
      py      :     0.007423

 19 H s       :     0.985276  s :     0.985276
      pz      :     0.009216  p :     0.022537
      px      :     0.004883
      py      :     0.008437



                     *******************************
                     * LOEWDIN POPULATION ANALYSIS *
                     *******************************

----------------------
LOEWDIN ATOMIC CHARGES
----------------------
   0 C :   -0.220481
   1 P :    0.446770
   2 C :   -0.220454
   3 C :   -0.181150
   4 C :   -0.028764
   5 C :   -0.028594
   6 C :   -0.023941
   7 C :   -0.028852
   8 C :   -0.028594
   9 H :    0.033127
  10 H :    0.018079
  11 H :    0.035713
  12 H :    0.018069
  13 H :    0.033137
  14 H :    0.035690
  15 H :    0.022950
  16 H :    0.029244
  17 H :    0.030226
  18 H :    0.030500
  19 H :    0.027325

-------------------------------
LOEWDIN REDUCED ORBITAL CHARGES
-------------------------------
  0 C s       :     2.897237  s :     2.897237
      pz      :     1.094840  p :     3.267868
      px      :     1.085052
      py      :     1.087976
      dz2     :     0.011972  d :     0.055377
      dxz     :     0.006017
      dyz     :     0.016392
      dx2y2   :     0.016015
      dxy     :     0.004982

  1 P s       :     5.281031  s :     5.281031
      pz      :     3.126948  p :     9.033032
      px      :     2.822358
      py      :     3.083727
      dz2     :     0.058259  d :     0.239168
      dxz     :     0.045889
      dyz     :     0.025590
      dx2y2   :     0.072244
      dxy     :     0.037186

  2 C s       :     2.897232  s :     2.897232
      pz      :     1.087834  p :     3.267844
      px      :     1.084930
      py      :     1.095080
      dz2     :     0.010328  d :     0.055377
      dxz     :     0.007342
      dyz     :     0.015987
      dx2y2   :     0.016855
      dxy     :     0.004867

  3 C s       :     2.912882  s :     2.912882
      pz      :     1.043376  p :     3.176178
      px      :     1.095224
      py      :     1.037578
      dz2     :     0.015609  d :     0.092090
      dxz     :     0.021488
      dyz     :     0.015565
      dx2y2   :     0.019555
      dxy     :     0.019873

  4 C s       :     2.866478  s :     2.866478
      pz      :     1.011495  p :     3.071972
      px      :     1.055077
      py      :     1.005399
      dz2     :     0.012630  d :     0.090315
      dxz     :     0.024156
      dyz     :     0.011634
      dx2y2   :     0.019401
      dxy     :     0.022494

  5 C s       :     2.864291  s :     2.864291
      pz      :     1.006541  p :     3.075138
      px      :     1.064201
      py      :     1.004396
      dz2     :     0.011164  d :     0.089165
      dxz     :     0.022546
      dyz     :     0.011033
      dx2y2   :     0.022379
      dxy     :     0.022043

  6 C s       :     2.863629  s :     2.863629
      pz      :     1.016870  p :     3.070610
      px      :     1.041195
      py      :     1.012545
      dz2     :     0.016702  d :     0.089702
      dxz     :     0.018366
      dyz     :     0.015545
      dx2y2   :     0.022234
      dxy     :     0.016855

  7 C s       :     2.864355  s :     2.864355
      pz      :     1.012545  p :     3.075671
      px      :     1.056375
      py      :     1.006751
      dz2     :     0.012786  d :     0.088825
      dxz     :     0.023155
      dyz     :     0.011758
      dx2y2   :     0.019333
      dxy     :     0.021792

  8 C s       :     2.871300  s :     2.871300
      pz      :     1.002218  p :     3.067714
      px      :     1.066683
      py      :     0.998814
      dz2     :     0.011356  d :     0.089579
      dxz     :     0.022194
      dyz     :     0.011057
      dx2y2   :     0.023177
      dxy     :     0.021796

  9 H s       :     0.897511  s :     0.897511
      pz      :     0.014845  p :     0.069362
      px      :     0.040977
      py      :     0.013540

 10 H s       :     0.910928  s :     0.910928
      pz      :     0.028696  p :     0.070992
      px      :     0.014628
      py      :     0.027668

 11 H s       :     0.895057  s :     0.895057
      pz      :     0.019007  p :     0.069231
      px      :     0.016498
      py      :     0.033726

 12 H s       :     0.910938  s :     0.910938
      pz      :     0.029610  p :     0.070993
      px      :     0.014331
      py      :     0.027052

 13 H s       :     0.897501  s :     0.897501
      pz      :     0.014154  p :     0.069362
      px      :     0.040194
      py      :     0.015013

 14 H s       :     0.895080  s :     0.895080
      pz      :     0.031223  p :     0.069229
      px      :     0.018755
      py      :     0.019251

 15 H s       :     0.908018  s :     0.908018
      pz      :     0.021609  p :     0.069032
      px      :     0.024567
      py      :     0.022856

 16 H s       :     0.902501  s :     0.902501
      pz      :     0.027810  p :     0.068256
      px      :     0.014903
      py      :     0.025542

 17 H s       :     0.901691  s :     0.901691
      pz      :     0.014102  p :     0.068083
      px      :     0.040547
      py      :     0.013434

 18 H s       :     0.901319  s :     0.901319
      pz      :     0.021095  p :     0.068181
      px      :     0.024715
      py      :     0.022371

 19 H s       :     0.903516  s :     0.903516
      pz      :     0.028464  p :     0.069159
      px      :     0.014662
      py      :     0.026033



                      *****************************
                      * MAYER POPULATION ANALYSIS *
                      *****************************

  NA   - Mulliken gross atomic population
  ZA   - Total nuclear charge
  QA   - Mulliken gross atomic charge
  VA   - Mayer's total valence
  BVA  - Mayer's bonded valence
  FA   - Mayer's free valence

  ATOM       NA         ZA         QA         VA         BVA        FA
  0 C      6.1689     6.0000    -0.1689     3.8930     3.8930    -0.0000
  1 P     14.8935    15.0000     0.1065     3.1021     3.1021    -0.0000
  2 C      6.1687     6.0000    -0.1687     3.8930     3.8930    -0.0000
  3 C      6.0857     6.0000    -0.0857     3.7450     3.7450    -0.0000
  4 C      6.0082     6.0000    -0.0082     3.8826     3.8826    -0.0000
  5 C      5.9883     6.0000     0.0117     3.8568     3.8568    -0.0000
  6 C      5.9887     6.0000     0.0113     3.8312     3.8312    -0.0000
  7 C      5.9931     6.0000     0.0069     3.8442     3.8442    -0.0000
  8 C      5.9966     6.0000     0.0034     3.8813     3.8813    -0.0000
  9 H      0.9411     1.0000     0.0589     0.9860     0.9860     0.0000
 10 H      0.9613     1.0000     0.0387     0.9964     0.9964    -0.0000
 11 H      0.9339     1.0000     0.0661     0.9870     0.9870    -0.0000
 12 H      0.9613     1.0000     0.0387     0.9964     0.9964    -0.0000
 13 H      0.9411     1.0000     0.0589     0.9860     0.9860     0.0000
 14 H      0.9339     1.0000     0.0661     0.9870     0.9870    -0.0000
 15 H      1.0143     1.0000    -0.0143     0.9892     0.9892     0.0000
 16 H      1.0070     1.0000    -0.0070     0.9779     0.9779    -0.0000
 17 H      1.0031     1.0000    -0.0031     0.9781     0.9781    -0.0000
 18 H      1.0033     1.0000    -0.0033     0.9783     0.9783    -0.0000
 19 H      1.0078     1.0000    -0.0078     0.9971     0.9971     0.0000

  Mayer bond orders larger than 0.100000
B(  0-C ,  1-P ) :   0.9994 B(  0-C ,  9-H ) :   0.9620 B(  0-C , 10-H ) :   0.9450 
B(  0-C , 11-H ) :   0.9623 B(  1-P ,  2-C ) :   0.9995 B(  1-P ,  3-C ) :   0.9261 
B(  2-C , 12-H ) :   0.9450 B(  2-C , 13-H ) :   0.9620 B(  2-C , 14-H ) :   0.9623 
B(  3-C ,  4-C ) :   1.3499 B(  3-C ,  8-C ) :   1.3869 B(  4-C ,  5-C ) :   1.4060 
B(  4-C , 15-H ) :   0.9757 B(  5-C ,  6-C ) :   1.3747 B(  5-C , 16-H ) :   0.9782 
B(  6-C ,  7-C ) :   1.3866 B(  6-C , 17-H ) :   0.9806 B(  7-C ,  8-C ) :   1.3828 
B(  7-C , 18-H ) :   0.9812 B(  8-C , 19-H ) :   0.9812 

-------
TIMINGS
-------

Total SCF time: 0 days 0 hours 0 min 3 sec 

Total time                  ....       3.889 sec
Sum of individual times     ....       3.842 sec  ( 98.8%)

SCF preparation             ....       0.070 sec  (  1.8%)
Fock matrix formation       ....       3.415 sec  ( 87.8%)
  Startup                   ....       0.033 sec  (  1.0% of F)
  Split-RI-J                ....       0.895 sec  ( 26.2% of F)
  XC integration            ....       2.372 sec  ( 69.5% of F)
    Basis function eval.    ....       0.685 sec  ( 28.9% of XC)
    Density eval.           ....       0.516 sec  ( 21.8% of XC)
    XC-Functional eval.     ....       0.087 sec  (  3.7% of XC)
    XC-Potential eval.      ....       0.553 sec  ( 23.3% of XC)
Diagonalization             ....       0.000 sec  (  0.0%)
Density matrix formation    ....       0.062 sec  (  1.6%)
Total Energy calculation    ....       0.029 sec  (  0.7%)
Population analysis         ....       0.029 sec  (  0.7%)
Orbital Transformation      ....       0.023 sec  (  0.6%)
Orbital Orthonormalization  ....       0.000 sec  (  0.0%)
DIIS solution               ....       0.118 sec  (  3.0%)
SOSCF solution              ....       0.096 sec  (  2.5%)
Finished LeanSCF after   3.9 sec

Maximum memory used throughout the entire LEANSCF-calculation: 17.6 MB


-------------------------------------------------------------------------------
                          DFT DISPERSION CORRECTION                            
                                                                               
                              DFTD3 V3.1  Rev 1                                
                          USING Becke-Johnson damping                          
-------------------------------------------------------------------------------
The BP86 functional is recognized
Active option DFTDOPT                   ...         4   

molecular C6(AA) [au] = 4912.322169 


            DFT-D V3
 parameters
 s6 scaling factor         :     1.0000 
 a1 scaling factor         :     0.3946 
 s8 scaling factor         :     3.2822 
 a2 scaling factor         :     4.8516 
 ad hoc parameters k1-k3   :    16.0000     1.3333    -4.0000 

 Edisp/kcal,au: -22.840229275913  -0.036398218328 
 E6   /kcal   :  -8.239072424 
 E8   /kcal   : -14.601156852 
 % E8         :  63.927365506 

-------------------------   ----------------
Dispersion correction           -0.036398218
-------------------------   ----------------


-------------------------   --------------------
FINAL SINGLE POINT ENERGY      -652.561950637154
-------------------------   --------------------



           ************************************************************
           *        Program running with 6 parallel MPI-processes     *
           *              working on a common directory               *
           ************************************************************
------------------------------------------------------------------------------
                         ORCA SCF GRADIENT CALCULATION
------------------------------------------------------------------------------

Nuc. rep. gradient        (SHARK) ... done (  0.0 sec)
HCore & Overlap gradient  (SHARK) ... done (  0.1 sec)
Split-RIJ-J gradient      (SHARK) ... done (  0.2 sec)
XC gradient                       ... done (  1.3 sec)
Dispersion correction             ... done (  0.1 sec)

-------------------
DISPERSION GRADIENT
-------------------

   1   C   :   -0.000488142   -0.000285267   -0.000296569
   2   P   :   -0.000608180   -0.000202916    0.000269051
   3   C   :   -0.000431306    0.000352009    0.000312534
   4   C   :    0.000327295   -0.000110120    0.000084673
   5   C   :    0.000439892   -0.000075756    0.000038213
   6   C   :    0.000450620    0.000157563   -0.000206898
   7   C   :    0.000189785    0.000001504   -0.000019283
   8   C   :    0.000404537   -0.000114562    0.000082114
   9   C   :    0.000119715   -0.000005093   -0.000005841
  10   H   :   -0.000189522   -0.000129177   -0.000123344
  11   H   :   -0.000209716   -0.000066284   -0.000234776
  12   H   :   -0.000203207   -0.000206951   -0.000180324
  13   H   :   -0.000180996    0.000255741    0.000073013
  14   H   :   -0.000165018    0.000145579    0.000139265
  15   H   :   -0.000166314    0.000206714    0.000215053
  16   H   :    0.000102070    0.000219673   -0.000239357
  17   H   :    0.000114754    0.000153265   -0.000171062
  18   H   :    0.000230729    0.000020200   -0.000042664
  19   H   :    0.000174348   -0.000127990    0.000117642
  20   H   :    0.000088657   -0.000188130    0.000188559

Difference to translation invariance:
           :    0.0000000000    0.0000000000    0.0000000000

Difference to rotation invariance:
           :   -0.0000000000    0.0000000000   -0.0000000000

Norm of the Dispersion gradient    ...    0.0017559805
RMS gradient                       ...    0.0002266961
MAX gradient                       ...    0.0006081799

------------------
CARTESIAN GRADIENT
------------------

   1   C   :   -0.000844495   -0.001417246    0.003971885
   2   P   :    0.010388841    0.017178250   -0.018811210
   3   C   :   -0.001021795   -0.003763973    0.001636426
   4   C   :   -0.003939456   -0.001994984    0.002456946
   5   C   :   -0.006763148   -0.001051217    0.001733210
   6   C   :    0.004994727   -0.001168035    0.000758868
   7   C   :   -0.002456063    0.000434355   -0.000234245
   8   C   :    0.002468223    0.000580452   -0.000836221
   9   C   :   -0.003435223    0.000703519   -0.000419381
  10   H   :    0.009411394    0.000967128   -0.002438431
  11   H   :   -0.002646540   -0.008257016    0.008189398
  12   H   :   -0.003566598    0.008172423    0.002188434
  13   H   :   -0.002531911   -0.007676560    0.008836250
  14   H   :    0.009455475    0.001522709   -0.001896550
  15   H   :   -0.004490329   -0.002189259   -0.007696585
  16   H   :    0.008076891   -0.005268164    0.004717799
  17   H   :   -0.002846525   -0.006379973    0.006941380
  18   H   :   -0.009661626   -0.000977692    0.001922597
  19   H   :   -0.006219030    0.005456967   -0.005128540
  20   H   :    0.005627185    0.005128315   -0.005892031

Difference to translation invariance:
           :    0.0000000000    0.0000000000    0.0000000000

Difference to rotation invariance:
           :   -0.0003265480    0.0005529593    0.0000364750

Norm of the Cartesian gradient     ...    0.0454315758
RMS gradient                       ...    0.0058651912
MAX gradient                       ...    0.0188112100

-------
TIMINGS
-------

Total SCF gradient time     ....        1.710 sec

Densities                   ....       0.001 sec  (  0.1%)
One electron gradient       ....       0.064 sec  (  3.7%)
RI-J Coulomb gradient       ....       0.246 sec  ( 14.4%)
XC gradient                 ....       1.323 sec  ( 77.4%)

Maximum memory used throughout the entire SCFGRAD-calculation: 29.9 MB
------------------------------------------------------------------------------
                         ORCA GEOMETRY RELAXATION STEP
------------------------------------------------------------------------------

Reading the OPT-File                    .... done
Getting information on internals        .... done
Copying old internal coords+grads       .... done
Making the new internal coordinates     .... (2022 redundants) done
Validating the new internal coordinates .... (2022 redundants) done
Calculating the B-matrix                .... done
Calculating the G,G- and P matrices     .... done
Transforming gradient to internals      .... done
Projecting the internal gradient        .... done
Number of atoms                         ....  20
Number of internal coordinates          ....  91
Current Energy                          ....  -652.561950637 Eh
Current gradient norm                   ....     0.045431576 Eh/bohr
Maximum allowed component of the step   ....  0.300
Current trust radius                    ....  0.300
Evaluating the initial hessian          ....  (Almloef) done
Projecting the Hessian                  .... done
Forming the augmented Hessian           .... done
Diagonalizing the augmented Hessian     .... done
Last element of RFO vector              ....  0.990669590
Lowest eigenvalues of augmented Hessian:
 -0.005825643  0.003789066  0.003815659  0.003866823  0.018116190
Length of the computed step             ....  0.137569172
The final length of the internal step   ....  0.137569172
Converting the step to Cartesian space:
 Initial RMS(Int)=    0.0144211677
Transforming coordinates:
 Iter   0:  RMS(Cart)=    0.0265794241 RMS(Int)=    1.1408849903
done
Storing new coordinates                 .... done

                                .--------------------.
          ----------------------|Geometry convergence|-------------------------
          Item                value                   Tolerance       Converged
          ---------------------------------------------------------------------
          RMS gradient        0.0050818754            0.0001000000      NO
          MAX gradient        0.0155683931            0.0003000000      NO
          RMS step            0.0144211677            0.0020000000      NO
          MAX step            0.0352533770            0.0040000000      NO
          ........................................................
          Max(Bonds)      0.0187      Max(Angles)    1.10
          Max(Dihed)        2.00      Max(Improp)    0.00
          ---------------------------------------------------------------------

The optimization has not yet converged - more geometry cycles are needed


    ---------------------------------------------------------------------------
                         Redundant Internal Coordinates
                            (Angstroem and degrees)

        Definition                    Value    dE/dq     Step     New-Value
    ----------------------------------------------------------------------------
     1. B(P   1,C   0)                1.8341 -0.011575  0.0147    1.8488   
     2. B(C   2,P   1)                1.8341 -0.011699  0.0149    1.8489   
     3. B(C   3,P   1)                1.8181 -0.015568  0.0187    1.8367   
     4. B(C   4,C   3)                1.4012 -0.011095  0.0096    1.4108   
     5. B(C   5,C   4)                1.3982 -0.006059  0.0052    1.4034   
     6. B(C   6,C   5)                1.3924 -0.012639  0.0108    1.4032   
     7. B(C   7,C   6)                1.3920 -0.011994  0.0102    1.4022   
     8. B(C   8,C   7)                1.3975 -0.008189  0.0071    1.4046   
     9. B(C   8,C   3)                1.4028 -0.008028  0.0070    1.4098   
    10. B(H   9,C   0)                1.0944 -0.009618  0.0141    1.1085   
    11. B(H  10,C   0)                1.0936 -0.011897  0.0174    1.1110   
    12. B(H  11,C   0)                1.0942 -0.009069  0.0133    1.1075   
    13. B(H  12,C   2)                1.0936 -0.011953  0.0175    1.1111   
    14. B(H  13,C   2)                1.0944 -0.009604  0.0141    1.1085   
    15. B(H  14,C   2)                1.0942 -0.009069  0.0133    1.1075   
    16. B(H  15,C   4)                1.0865 -0.010591  0.0151    1.1016   
    17. B(H  16,C   5)                1.0868 -0.009846  0.0141    1.1009   
    18. B(H  17,C   6)                1.0866 -0.009899  0.0141    1.1008   
    19. B(H  18,C   7)                1.0867 -0.009730  0.0139    1.1006   
    20. B(H  19,C   8)                1.0884 -0.009132  0.0131    1.1015   
    21. A(H  10,C   0,H  11)          108.18 -0.001197    0.16    108.34   
    22. A(H   9,C   0,H  11)          107.71 -0.000421   -0.00    107.70   
    23. A(H   9,C   0,H  10)          107.65 -0.001051    0.32    107.97   
    24. A(P   1,C   0,H  10)          112.76 -0.002059    0.35    113.10   
    25. A(P   1,C   0,H  11)          110.46  0.001991   -0.39    110.07   
    26. A(P   1,C   0,H   9)          109.91  0.002669   -0.42    109.50   
    27. A(C   0,P   1,C   3)          102.22  0.003149   -1.10    101.12   
    28. A(C   0,P   1,C   2)           99.83 -0.000002   -0.48     99.35   
    29. A(C   2,P   1,C   3)          102.22  0.003039   -1.07    101.14   
    30. A(H  13,C   2,H  14)          107.71 -0.000409   -0.00    107.70   
    31. A(H  12,C   2,H  14)          108.18 -0.001137    0.15    108.33   
    32. A(P   1,C   2,H  14)          110.46  0.001986   -0.39    110.07   
    33. A(H  12,C   2,H  13)          107.65 -0.000980    0.30    107.95   
    34. A(P   1,C   2,H  13)          109.91  0.002706   -0.42    109.49   
    35. A(P   1,C   2,H  12)          112.76 -0.002224    0.37    113.13   
    36. A(C   4,C   3,C   8)          118.30 -0.000765    0.07    118.37   
    37. A(P   1,C   3,C   8)          118.33  0.001446   -0.18    118.15   
    38. A(P   1,C   3,C   4)          123.37 -0.000681    0.10    123.48   
    39. A(C   3,C   4,H  15)          120.94  0.002099   -0.32    120.61   
    40. A(C   5,C   4,H  15)          118.24 -0.001523    0.26    118.50   
    41. A(C   3,C   4,C   5)          120.82 -0.000576    0.06    120.88   
    42. A(C   6,C   5,H  16)          119.96 -0.000667    0.09    120.05   
    43. A(C   4,C   5,H  16)          119.89 -0.000023   -0.01    119.88   
    44. A(C   4,C   5,C   6)          120.15  0.000690   -0.08    120.07   
    45. A(C   5,C   6,C   7)          119.76  0.000436   -0.03    119.73   
    46. A(C   7,C   6,H  17)          120.10 -0.000363    0.04    120.14   
    47. A(C   5,C   6,H  17)          120.14 -0.000073   -0.01    120.14   
    48. A(C   8,C   7,H  18)          119.85  0.000157   -0.03    119.81   
    49. A(C   6,C   7,H  18)          120.11 -0.000267    0.03    120.14   
    50. A(C   6,C   7,C   8)          120.04  0.000111    0.00    120.04   
    51. A(C   3,C   8,C   7)          120.93  0.000104   -0.03    120.90   
    52. A(C   7,C   8,H  19)          118.66 -0.003174    0.51    119.18   
    53. A(C   3,C   8,H  19)          120.41  0.003069   -0.49    119.92   
    54. D(C   2,P   1,C   0,H   9)    -71.16  0.002222    0.14    -71.02   
    55. D(C   2,P   1,C   0,H  10)     48.95  0.001379    0.48     49.43   
    56. D(C   3,P   1,C   0,H  10)    -55.96 -0.002558    2.00    -53.96   
    57. D(C   2,P   1,C   0,H  11)    170.12 -0.000154    0.64    170.77   
    58. D(C   3,P   1,C   0,H   9)   -176.07 -0.001715    1.66   -174.41   
    59. D(H  12,C   2,P   1,C   0)    -48.95 -0.001433   -0.43    -49.37   
    60. D(H  12,C   2,P   1,C   3)     55.96  0.002594   -1.96     54.00   
    61. D(H  13,C   2,P   1,C   3)    176.07  0.001757   -1.62    174.45   
    62. D(H  14,C   2,P   1,C   0)   -170.12  0.000140   -0.59   -170.72   
    63. D(H  13,C   2,P   1,C   0)     71.16 -0.002270   -0.09     71.08   
    64. D(C   8,C   3,P   1,C   2)    128.48 -0.000835    0.48    128.96   
    65. D(C   4,C   3,P   1,C   2)    -51.52 -0.000819    0.44    -51.08   
    66. D(C   4,C   3,P   1,C   0)     51.52  0.000864   -0.65     50.87   
    67. D(C   8,C   3,P   1,C   0)   -128.48  0.000848   -0.61   -129.10   
    68. D(C   5,C   4,C   3,P   1)   -180.00 -0.000032    0.06   -179.94   
    69. D(H  15,C   4,C   3,C   8)   -180.00 -0.000007    0.01   -179.99   
    70. D(H  15,C   4,C   3,P   1)      0.00 -0.000023    0.05      0.05   
    71. D(C   5,C   4,C   3,C   8)      0.00 -0.000016    0.03      0.03   
    72. D(H  16,C   5,C   4,H  15)      0.00  0.000006   -0.01     -0.01   
    73. D(H  16,C   5,C   4,C   3)   -180.00  0.000014   -0.03   -180.03   
    74. D(C   6,C   5,C   4,H  15)    180.00  0.000002   -0.00    180.00   
    75. D(C   6,C   5,C   4,C   3)     -0.00  0.000011   -0.02     -0.02   
    76. D(H  17,C   6,C   5,H  16)     -0.00 -0.000001    0.00      0.00   
    77. D(H  17,C   6,C   5,C   4)    180.00  0.000002   -0.00    180.00   
    78. D(C   7,C   6,C   5,H  16)    180.00 -0.000002    0.00    180.00   
    79. D(C   7,C   6,C   5,C   4)      0.00  0.000001   -0.00     -0.00   
    80. D(H  18,C   7,C   6,H  17)     -0.00 -0.000003    0.00      0.00   
    81. D(H  18,C   7,C   6,C   5)    180.00 -0.000002    0.00    180.00   
    82. D(C   8,C   7,C   6,H  17)   -180.00 -0.000009    0.02   -179.98   
    83. D(C   8,C   7,C   6,C   5)      0.00 -0.000008    0.01      0.01   
    84. D(C   7,C   8,C   3,P   1)    180.00  0.000023   -0.05    179.95   
    85. D(H  19,C   8,C   7,H  18)      0.00  0.000001   -0.00     -0.00   
    86. D(H  19,C   8,C   7,C   6)    180.00  0.000007   -0.01    179.99   
    87. D(C   3,C   8,C   7,H  18)   -180.00 -0.000003    0.00   -180.00   
    88. D(C   3,C   8,C   7,C   6)     -0.00  0.000004   -0.01     -0.01   
    89. D(H  19,C   8,C   3,C   4)    180.00  0.000005   -0.01    179.99   
    90. D(H  19,C   8,C   3,P   1)     -0.00  0.000020   -0.04     -0.04   
    91. D(C   7,C   8,C   3,C   4)     -0.00  0.000009   -0.01     -0.01   
    ----------------------------------------------------------------------------

Geometry step timings:
Preparation and reading OPT file:      0.001 s (14.286 %)
Internal coordinates            :      0.000 s ( 0.000 %)
B/P matrices and projection     :      0.001 s (14.286 %)
Hessian update/contruction      :      0.002 s (28.571 %)
Making the step                 :      0.001 s (14.286 %)
Converting the step to Cartesian:      0.000 s ( 0.000 %)
Storing new data                :      0.001 s (14.286 %)
Checking convergence            :      0.000 s ( 0.000 %)
Final printing                  :      0.001 s (14.286 %)
Total time                      :      0.007 s

Time for energy+gradient        :      6.953 s
Time for complete geometry iter :      7.077 s

         *************************************************************
         *                GEOMETRY OPTIMIZATION CYCLE   2            *
         *************************************************************
---------------------------------
CARTESIAN COORDINATES (ANGSTROEM)
---------------------------------
  C     -2.288035   -0.830629   -0.961223
  P     -1.573285   -0.548796    0.720335
  C     -2.108090    1.201320    0.984143
  C      0.203596   -0.319522    0.315757
  C      0.668082    0.578270   -0.668397
  C      2.039880    0.709104   -0.934289
  C      2.971234   -0.057779   -0.217760
  C      2.525376   -0.954297    0.763942
  C      1.151649   -1.082820    1.027175
  H     -3.392662   -0.888175   -0.888835
  H     -2.033398   -0.025889   -1.683665
  H     -1.926743   -1.794001   -1.371157
  H     -1.867058    1.865384    0.126544
  H     -3.204637    1.233036    1.143173
  H     -1.624208    1.614041    1.890887
  H     -0.040352    1.192970   -1.246226
  H      2.384028    1.414549   -1.706256
  H      4.047428    0.043945   -0.425470
  H      3.249970   -1.559143    1.330078
[...]
      py      :     0.007464

 13 H s       :     0.914914  s :     0.914914
      pz      :     0.005265  p :     0.022582
      px      :     0.012468
      py      :     0.004849

 14 H s       :     0.906781  s :     0.906781
      pz      :     0.010269  p :     0.022404
      px      :     0.006513
      py      :     0.005622

 15 H s       :     0.983993  s :     0.983993
      pz      :     0.006784  p :     0.021984
      px      :     0.008010
      py      :     0.007189

 16 H s       :     0.976721  s :     0.976721
      pz      :     0.008999  p :     0.021717
      px      :     0.004496
      py      :     0.008221

 17 H s       :     0.972808  s :     0.972808
      pz      :     0.004480  p :     0.021660
      px      :     0.012895
      py      :     0.004285

 18 H s       :     0.973220  s :     0.973220
      pz      :     0.006752  p :     0.021709
      px      :     0.007816
      py      :     0.007141

 19 H s       :     0.978084  s :     0.978084
      pz      :     0.008999  p :     0.021918
      px      :     0.004741
      py      :     0.008177



                     *******************************
                     * LOEWDIN POPULATION ANALYSIS *
                     *******************************

----------------------
LOEWDIN ATOMIC CHARGES
----------------------
   0 C :   -0.225115
   1 P :    0.446712
   2 C :   -0.225113
   3 C :   -0.175292
   4 C :   -0.033340
   5 C :   -0.031655
   6 C :   -0.027648
   7 C :   -0.031800
   8 C :   -0.034990
   9 H :    0.033382
  10 H :    0.022287
  11 H :    0.036587
  12 H :    0.022403
  13 H :    0.033324
  14 H :    0.036539
  15 H :    0.025540
  16 H :    0.032339
  17 H :    0.033009
  18 H :    0.033333
  19 H :    0.029496

-------------------------------
LOEWDIN REDUCED ORBITAL CHARGES
-------------------------------
  0 C s       :     2.915892  s :     2.915892
      pz      :     1.089497  p :     3.257090
      px      :     1.081631
      py      :     1.085961
      dz2     :     0.011872  d :     0.052133
      dxz     :     0.005494
      dyz     :     0.014377
      dx2y2   :     0.015683
      dxy     :     0.004707

  1 P s       :     5.332562  s :     5.332562
      pz      :     3.109061  p :     9.003644
      px      :     2.822928
      py      :     3.071655
      dz2     :     0.055694  d :     0.217082
      dxz     :     0.040224
      dyz     :     0.022390
      dx2y2   :     0.066946
      dxy     :     0.031829

  2 C s       :     2.916060  s :     2.916060
      pz      :     1.085848  p :     3.256931
      px      :     1.081474
      py      :     1.089609
      dz2     :     0.010471  d :     0.052122
      dxz     :     0.006961
      dyz     :     0.014033
      dx2y2   :     0.016282
      dxy     :     0.004377

  3 C s       :     2.925288  s :     2.925288
      pz      :     1.040134  p :     3.162301
      px      :     1.088387
      py      :     1.033780
      dz2     :     0.014957  d :     0.087703
      dxz     :     0.020489
      dyz     :     0.015105
      dx2y2   :     0.018295
      dxy     :     0.018858

  4 C s       :     2.874500  s :     2.874500
      pz      :     1.012652  p :     3.071323
      px      :     1.052792
      py      :     1.005878
      dz2     :     0.012324  d :     0.087517
      dxz     :     0.023468
      dyz     :     0.011271
      dx2y2   :     0.018733
      dxy     :     0.021721

  5 C s       :     2.873034  s :     2.873034
      pz      :     1.006321  p :     3.072384
      px      :     1.062448
      py      :     1.003616
      dz2     :     0.010821  d :     0.086236
      dxz     :     0.022002
      dyz     :     0.010459
      dx2y2   :     0.021640
      dxy     :     0.021314

  6 C s       :     2.873796  s :     2.873796
      pz      :     1.017131  p :     3.068074
      px      :     1.038746
      py      :     1.012197
      dz2     :     0.015937  d :     0.085778
      dxz     :     0.017827
      dyz     :     0.014966
      dx2y2   :     0.020879
      dxy     :     0.016169

  7 C s       :     2.873369  s :     2.873369
      pz      :     1.012432  p :     3.072618
      px      :     1.054004
      py      :     1.006181
      dz2     :     0.012506  d :     0.085813
      dxz     :     0.022351
      dyz     :     0.011370
      dx2y2   :     0.018761
      dxy     :     0.020826

  8 C s       :     2.878985  s :     2.878985
      pz      :     1.003910  p :     3.068961
      px      :     1.064802
      py      :     1.000249
      dz2     :     0.011001  d :     0.087043
      dxz     :     0.021971
      dyz     :     0.010426
      dx2y2   :     0.022246
      dxy     :     0.021399

  9 H s       :     0.899578  s :     0.899578
      pz      :     0.013989  p :     0.067040
      px      :     0.040600
      py      :     0.012452

 10 H s       :     0.909643  s :     0.909643
      pz      :     0.027475  p :     0.068070
      px      :     0.014171
      py      :     0.026424

 11 H s       :     0.896307  s :     0.896307
      pz      :     0.017609  p :     0.067106
      px      :     0.015366
      py      :     0.034132

 12 H s       :     0.909604  s :     0.909604
      pz      :     0.028362  p :     0.067993
      px      :     0.013796
      py      :     0.025835

 13 H s       :     0.899639  s :     0.899639
      pz      :     0.012920  p :     0.067037
      px      :     0.039906
      py      :     0.014211

 14 H s       :     0.896356  s :     0.896356
      pz      :     0.031753  p :     0.067105
      px      :     0.017569
      py      :     0.017783

 15 H s       :     0.907894  s :     0.907894
      pz      :     0.020452  p :     0.066566
      px      :     0.024504
      py      :     0.021610

 16 H s       :     0.901786  s :     0.901786
      pz      :     0.027250  p :     0.065876
      px      :     0.013831
      py      :     0.024795

 17 H s       :     0.901163  s :     0.901163
      pz      :     0.013362  p :     0.065828
      px      :     0.039774
      py      :     0.012691

 18 H s       :     0.900804  s :     0.900804
      pz      :     0.020282  p :     0.065863
      px      :     0.024156
      py      :     0.021424

 19 H s       :     0.903638  s :     0.903638
      pz      :     0.027658  p :     0.066865
      px      :     0.014178
      py      :     0.025029



                      *****************************
                      * MAYER POPULATION ANALYSIS *
                      *****************************

  NA   - Mulliken gross atomic population
  ZA   - Total nuclear charge
  QA   - Mulliken gross atomic charge
  VA   - Mayer's total valence
  BVA  - Mayer's bonded valence
  FA   - Mayer's free valence

  ATOM       NA         ZA         QA         VA         BVA        FA
  0 C      6.1947     6.0000    -0.1947     3.8948     3.8948    -0.0000
  1 P     14.8656    15.0000     0.1344     3.0675     3.0675     0.0000
  2 C      6.1942     6.0000    -0.1942     3.8944     3.8944    -0.0000
  3 C      6.1062     6.0000    -0.1062     3.7750     3.7750    -0.0000
  4 C      6.0128     6.0000    -0.0128     3.8900     3.8900    -0.0000
  5 C      5.9966     6.0000     0.0034     3.8604     3.8604     0.0000
  6 C      5.9990     6.0000     0.0010     3.8349     3.8349     0.0000
  7 C      6.0000     6.0000     0.0000     3.8445     3.8445    -0.0000
  8 C      6.0013     6.0000    -0.0013     3.8842     3.8842     0.0000
  9 H      0.9375     1.0000     0.0625     0.9836     0.9836     0.0000
 10 H      0.9513     1.0000     0.0487     0.9953     0.9953    -0.0000
 11 H      0.9290     1.0000     0.0710     0.9838     0.9838    -0.0000
 12 H      0.9513     1.0000     0.0487     0.9952     0.9952    -0.0000
 13 H      0.9375     1.0000     0.0625     0.9836     0.9836    -0.0000
 14 H      0.9292     1.0000     0.0708     0.9839     0.9839    -0.0000
 15 H      1.0060     1.0000    -0.0060     0.9903     0.9903    -0.0000
 16 H      0.9984     1.0000     0.0016     0.9785     0.9785     0.0000
 17 H      0.9945     1.0000     0.0055     0.9786     0.9786     0.0000
 18 H      0.9949     1.0000     0.0051     0.9789     0.9789    -0.0000
 19 H      1.0000     1.0000    -0.0000     0.9951     0.9951     0.0000

  Mayer bond orders larger than 0.100000
B(  0-C ,  1-P ) :   0.9954 B(  0-C ,  9-H ) :   0.9616 B(  0-C , 10-H ) :   0.9494 
B(  0-C , 11-H ) :   0.9627 B(  1-P ,  2-C ) :   0.9951 B(  1-P ,  3-C ) :   0.9181 
B(  2-C , 12-H ) :   0.9495 B(  2-C , 13-H ) :   0.9617 B(  2-C , 14-H ) :   0.9627 
B(  3-C ,  4-C ) :   1.3594 B(  3-C ,  8-C ) :   1.3988 B(  4-C ,  5-C ) :   1.4116 
B(  4-C , 15-H ) :   0.9669 B(  5-C ,  6-C ) :   1.3722 B(  5-C , 16-H ) :   0.9737 
B(  6-C ,  7-C ) :   1.3914 B(  6-C , 17-H ) :   0.9757 B(  7-C ,  8-C ) :   1.3793 
B(  7-C , 18-H ) :   0.9766 B(  8-C , 19-H ) :   0.9743 

-------
TIMINGS
-------

Total SCF time: 0 days 0 hours 0 min 1 sec 

Total time                  ....       1.218 sec
Sum of individual times     ....       1.177 sec  ( 96.6%)

SCF preparation             ....       0.073 sec  (  6.0%)
Fock matrix formation       ....       0.967 sec  ( 79.4%)
  Startup                   ....       0.012 sec  (  1.2% of F)
  Split-RI-J                ....       0.272 sec  ( 28.1% of F)
  XC integration            ....       0.650 sec  ( 67.2% of F)
    Basis function eval.    ....       0.169 sec  ( 26.0% of XC)
    Density eval.           ....       0.137 sec  ( 21.1% of XC)
    XC-Functional eval.     ....       0.022 sec  (  3.4% of XC)
    XC-Potential eval.      ....       0.156 sec  ( 24.0% of XC)
Diagonalization             ....       0.000 sec  (  0.0%)
Density matrix formation    ....       0.016 sec  (  1.3%)
Total Energy calculation    ....       0.007 sec  (  0.6%)
Population analysis         ....       0.042 sec  (  3.4%)
Orbital Transformation      ....       0.014 sec  (  1.1%)
Orbital Orthonormalization  ....       0.000 sec  (  0.0%)
DIIS solution               ....       0.016 sec  (  1.3%)
SOSCF solution              ....       0.042 sec  (  3.4%)
Finished LeanSCF after   1.2 sec

Maximum memory used throughout the entire LEANSCF-calculation: 18.3 MB


-------------------------------------------------------------------------------
                          DFT DISPERSION CORRECTION                            
                                                                               
                              DFTD3 V3.1  Rev 1                                
                          USING Becke-Johnson damping                          
-------------------------------------------------------------------------------
The BP86 functional is recognized
Active option DFTDOPT                   ...         4   

molecular C6(AA) [au] = 4923.671122 


            DFT-D V3
 parameters
 s6 scaling factor         :     1.0000 
 a1 scaling factor         :     0.3946 
 s8 scaling factor         :     3.2822 
 a2 scaling factor         :     4.8516 
 ad hoc parameters k1-k3   :    16.0000     1.3333    -4.0000 

 Edisp/kcal,au: -22.695920681767  -0.036168247969 
 E6   /kcal   :  -8.187888120 
 E8   /kcal   : -14.508032562 
 % E8         :  63.923525138 

-------------------------   ----------------
Dispersion correction           -0.036168248
-------------------------   ----------------


-------------------------   --------------------
FINAL SINGLE POINT ENERGY      -652.566071204135
-------------------------   --------------------

                                *** OPTIMIZATION RUN DONE ***



           ************************************************************
           *        Program running with 6 parallel MPI-processes     *
           *              working on a common directory               *
           ************************************************************

------------------------------------------------------------------------------
                              ORCA PROPERTY CALCULATIONS
------------------------------------------------------------------------------

GBWName                                 ... data/geom_opt_P_BP86/69597/69597.gbw
Number of atoms                         ...     20
Number of basis functions               ...    185
Max core memory                         ...   1024 MB

Electric properties:
Dipole moment                           ... YES
Quadrupole moment                       ...  NO
Static polarizability (Dipole/Dipole)   ...  NO
Static polarizability (Dipole/Quad.)    ...  NO
Static polarizability (Quad./Quad.)     ...  NO
Static polarizability (Velocity)        ...  NO

Atomic electric properties:
Dipole moment                           ...  NO
Quadrupole moment                       ...  NO
Static polarizability                   ...  NO

Choice of electric origin               ... Center of mass
Position of electric origin             ...     0.127262    -0.344402     0.345650

General magnetic properties:
Magnetizability                         ...  NO

EPR properties:
g-Tensor (aka g-matrix)                 ...  NO
Zero-Field splitting spin-orbit         ...  NO
Zero-field splitting spin-spin          ...  NO
Hyperfine couplings                     ...  NO (   0 nuclei)
Quadrupole couplings                    ...  NO (   0 nuclei)
Contact density                         ...  NO (   0 nuclei)

NMR properties:
Chemical shifts                         ...  NO (   0 nuclei)
Spin-rotation constants                 ...  NO (   0 nuclei)
Spin-spin couplings                     ...  NO (   0 nuclei,    0 pairs)

Choice of magnetic origin               ... GIAO
Position of magnetic origin             ...     0.000000     0.000000     0.000000

Properties with geometric perturbations:
SCF Hessian                             ...  NO
IR spectrum                             ...  NO
VCD spectrum                            ...  NO
X-ray spectroscopy properties:
SCF XES/XAS/RIXS spectra                ...  NO


-------------
DIPOLE MOMENT
-------------

Method             : SCF
Type of density    : Electron Density
Multiplicity       :   1
Irrep              :   0
Energy             :  -652.5299029561660973 Eh
Relativity type    : 
Basis              : AO
                                X                 Y                 Z
Electronic contribution:      2.695711420      -3.147375123       3.015970582
Nuclear contribution   :     -2.578021124       3.455793281      -3.347417118
                        -----------------------------------------
Total Dipole Moment    :      0.117690296       0.308418158      -0.331446537
                        -----------------------------------------
Magnitude (a.u.)       :      0.467792232
Magnitude (Debye)      :      1.189033360



--------------------
Rotational spectrum 
--------------------
 
Rotational constants in cm-1:             0.094036             0.028605             0.026638 
Rotational constants in MHz :          2819.134760           857.556130           798.595302 

Dipole components along the rotational axes: 
x,y,z [a.u.] :    -0.135773    -0.447595     0.007332 
x,y,z [Debye]:    -0.345107    -1.137697     0.018637 

 

Dipole moment calculation done in   0.0 sec 

Maximum memory used throughout the entire PROP-calculation: 8.8 MB

--------------------------------
SUGGESTED CITATIONS FOR THIS RUN
--------------------------------

Below you find a list of papers that are relevant to this ORCA run
We neither can nor want to force you to cite these papers, but we appreciate if you do
You receive ORCA, which is the product of decades of hard work by many enthusiastic individuals, for free
The only thing we kindly ask in return is that you cite our papers,
We deeply appreciate it, if you show your appreciation for ORCA by not just citing the generic ORCA reference.

Please note that relegating all ORCA citations to the supporting information does *not* help us.
SI sections are not indexed - citations you put there will not count into any citation statistics
But we need these citations in order to attract the funding resources that allow us to do what we are doing

Therefore, if you are a happy ORCA user, please consider citing a few of the papers listed below in the main body of your paper

In addition to the list printed below, the program has created the file data/geom_opt_P_BP86/69597/69597.bibtex that contains the list in bibtex format
You can import this file easily into all common literature databanks and citation aid programs


List of essential papers. We consider these as the minimum necessary citations

  1. Neese,F.
     Software update: the ORCA program system, version 5.0
     WIRES Comput. Molec. Sci., 2022 12(1)e1606
     doi.org/10.1002/wcms.1606

List of papers to cite with high priority. The work reported in these papers was absolutely
necessary for this run to complete.
Our perspective: the developers of density functionals and basis sets usually get cited in chemistry papers
Good! But without the algorithms to do something with them, the functionals or basis sets would not do anything.
Hence, in our opinion, the algorithm design and method developments papers are equally worthy of getting cited

  1. Neese,F.
     An improvement of the resolution of the identity approximation for the formation of the Coulomb matrix
     J. Comp. Chem., 2003 24(14)1740-1747
     doi.org/10.1002/jcc.10318
  2. Neese,F.
     The SHARK Integral Generation and Digestion System
     J. Comp. Chem., 2022  1-16
     doi.org/10.1002/jcc.26942
  3. Grimme,S.; Antony,J.; Ehrlich,S.; Krieg,H.
     A consistent and accurate ab initio parametrization of density functional dispersion correction (DFT-D) for the 94 elements H-Pu
     J. Chem. Phys., 2010 132 154104-XXXX
     doi.org/10.1063/1.3382344
  4. Grimme,S.; Ehrlich,S.; Goerigk,L.
     Effect of the damping function in dispersion corrected density functional theory
     J. Comput. Chem., 2011 32(7)1456-1465
     doi.org/10.1002/jcc.21759

List of suggested additional citations. These are papers that are important in the 'surrounding' of 
of this run, or papers that preceded the highly important papers. If you like your results we are grateful for a citation.

  1. Neese,F.
     The ORCA program system
     WIRES Comput. Molec. Sci., 2012 2(1)73-78
     doi.org/10.1002/wcms.81
  2. Neese,F.
     Software update: the ORCA program system, version 4.0
     WIRES Comput. Molec. Sci., 2018 8(1)1-6
     doi.org/10.1002/wcms.1327
  3. Neese,F.; Wennmohs,F.; Becker,U.; Riplinger,C.
     The ORCA quantum chemistry program package
     J. Chem. Phys., 2020 152 Art. No. L224108
     doi.org/10.1063/5.0004608

List of optional additional citations

  1. Neese,F.
     Approximate second-order SCF convergence for spin unrestricted wavefunctions
     Chem. Phys. Lett., 2000 325(1-3)93-98
     doi.org/10.1016/s0009-2614(00)00662-x

Timings for individual modules:

Sum of individual times          ...       34.101 sec (=   0.568 min)
Startup calculation              ...        4.411 sec (=   0.074 min)  12.9 %
SCF iterations                   ...       18.287 sec (=   0.305 min)  53.6 %
Property calculations            ...        0.131 sec (=   0.002 min)   0.4 %
SCF Gradient evaluation          ...       11.224 sec (=   0.187 min)  32.9 %
Geometry relaxation              ...        0.048 sec (=   0.001 min)   0.1 %
                             ****ORCA TERMINATED NORMALLY****
TOTAL RUN TIME: 0 days 0 hours 0 minutes 35 seconds 356 msec
