
                                 *****************
                                 * O   R   C   A *
                                 *****************

                                            #,                                       
                                            ###                                      
                                            ####                                     
                                            #####                                    
                                            ######                                   
                                           ########,                                 
                                     ,,################,,,,,                         
                               ,,#################################,,                 
                          ,,##########################################,,             
                       ,#########################################, ''#####,          
                    ,#############################################,,   '####,        
                  ,##################################################,,,,####,       
                ,###########''''           ''''###############################       
              ,#####''   ,,,,##########,,,,          '''####'''          '####       
            ,##' ,,,,###########################,,,                        '##       
           ' ,,###''''                  '''############,,,                           
         ,,##''                                '''############,,,,        ,,,,,,###''
      ,#''                                            '''#######################'''  
     '                                                          ''''####''''         
             ,#######,   #######,   ,#######,      ##                                
            ,#'     '#,  ##    ##  ,#'     '#,    #''#        ,####,   ,####,        
            ##       ##  ##   ,#'  ##            #'  '#       #'       #'  '#        
            ##       ##  #######   ##           ,######,      #####,   #    #        
            '#,     ,#'  ##    ##  '#,     ,#' ,#      #,     #,   #   #,  ,#        
             '#######'   ##     ##  '#######'  #'      '#     '####' # '####'        



                #########################################################
                #                        -***-                          #
                #          Department of theory and spectroscopy        #
                #                                                       #
                #                      Frank Neese                      #
                #                                                       #
                #     Directorship, Architecture, Infrastructure        #
                #                    SHARK, DRIVERS                     #
                #        Core code/Algorithms in most modules           #
                #                                                       #
                #        Max Planck Institute fuer Kohlenforschung      #
                #                Kaiser Wilhelm Platz 1                 #
                #                 D-45470 Muelheim/Ruhr                 #
                #                      Germany                          #
                #                                                       #
                #                  All rights reserved                  #
                #                        -***-                          #
                #########################################################


                         Program Version 6.0.0  -   RELEASE   -


 With contributions from (in alphabetic order):
   Daniel Aravena         : Magnetic Suceptibility
   Michael Atanasov       : Ab Initio Ligand Field Theory (pilot matlab implementation)
   Alexander A. Auer      : GIAO ZORA, VPT2 properties, NMR spectrum
   Ute Becker             : All parallelization in ORCA, NUMFREQ, NUMCALC
   Giovanni Bistoni       : ED, misc. LED, open-shell LED, HFLD
   Martin Brehm           : Molecular dynamics
   Dmytro Bykov           : pre 5.0 version of the SCF Hessian
   Marcos Casanova-Páez   : Triplet and SCS-CIS(D). UHF-(DLPNO)-IP/EA/STEOM-CCSD. UHF-CVS-IP/STEOM-CCSD
   Vijay G. Chilkuri      : MRCI spin determinant printing, contributions to CSF-ICE
   Pauline Colinet        : FMM embedding
   Dipayan Datta          : RHF DLPNO-CCSD density
   Achintya Kumar Dutta   : EOM-CC, STEOM-CC
   Nicolas Foglia         : Exact transition moments, OPA infrastructure, MCD improvements
   Dmitry Ganyushin       : Spin-Orbit,Spin-Spin,Magnetic field MRCI
   Miquel Garcia          : C-PCM and meta-GGA Hessian, CCSD/C-PCM, Gaussian charge scheme
   Tiago L. C. Gouveia    : GS-ROHF, GS-ROCIS
   Yang Guo               : DLPNO-NEVPT2, F12-NEVPT2, CIM, IAO-localization
   Andreas Hansen         : Spin unrestricted coupled pair/coupled cluster methods
   Ingolf Harden          : AUTO-CI MPn and infrastructure 
   Benjamin Helmich-Paris : MC-RPA, TRAH-(SCF,CASSCF), AVAS, COSX integrals, SCF dyn. polar.
   Lee Huntington         : MR-EOM, pCC
   Robert Izsak           : Overlap fitted RIJCOSX, COSX-SCS-MP3, EOM
   Riya Kayal             : Wick's Theorem for AUTO-CI, AUTO-CI UHF-CCSDT
   Emily Kempfer          : AUTO-CI, RHF CISDT and CCSDT
   Christian Kollmar      : KDIIS, OOCD, Brueckner-CCSD(T), CCSD density, CASPT2, CASPT2-K, improved NEVPT2
   Axel Koslowski         : Symmetry handling
   Simone Kossmann        : Meta GGA functionals, TD-DFT gradient, OOMP2, (MP2 Hessian; deprecated post 5.0)
   Lucas Lang             : DCDCAS
   Marvin Lechner         : AUTO-CI (C++ implementation), FIC-MRCC
   Spencer Leger          : CASSCF response
   Dagmar Lenk            : GEPOL surface, SMD, ORCA-2-JSON
   Dimitrios Liakos       : Extrapolation schemes; Compound Job, initial MDCI parallelization
   Dimitrios Manganas     : Further ROCIS development; embedding schemes. LFT, Crystal Embedding
   Dimitrios Pantazis     : SARC Basis sets
   Anastasios Papadopoulos: AUTO-CI, single reference methods and gradients
   Taras Petrenko         : pre 6.0 DFT Hessian and TD-DFT gradient, (ASA, deprecated), ECA, 1-Electron XAS/XES, NRVS
   Peter Pinski           : DLPNO-MP2, DLPNO-MP2 Gradient
   Christoph Reimann      : Effective Core Potentials
   Marius Retegan         : Local ZFS, SOC
   Christoph Riplinger    : Optimizer, TS searches, QM/MM, DLPNO-CCSD(T), (RO)-DLPNO pert. Triples
   Michael Roemelt        : Original ROCIS implementation
   Masaaki Saitow         : Open-shell DLPNO-CCSD energy and density
   Barbara Sandhoefer     : DKH picture change effects
   Kantharuban Sivalingam : CASSCF convergence/infrastructure, NEVPT2 and variants, FIC-MRCI
   Bernardo de Souza      : ESD, SOC TD-DFT
   Georgi Stoychev        : AutoAux, RI-MP2 NMR, DLPNO-MP2 response, X2C
   Van Anh Tran           : RI-MP2 g-tensors
   Willem Van den Heuvel  : Paramagnetic NMR
   Zikuan Wang            : NOTCH, Electric field optimization 
   Frank Wennmohs         : Technical directorship and infrastructure
   Hang Xu                : AUTO-CI-Response properties 


 We gratefully acknowledge several colleagues who have allowed us to
 interface, adapt or use parts of their codes:
   Stefan Grimme, W. Hujo, H. Kruse, P. Pracht,  : VdW corrections, initial TS optimization,
                  C. Bannwarth, S. Ehlert,         DFT functionals, gCP, sTDA/sTD-DF
                  L. Wittmann, M. Mueller
   Ed Valeev, F. Pavosevic, A. Kumar             : LibInt (2-el integral package), F12 methods
   Garnet Chan, S. Sharma, J. Yang, R. Olivares  : DMRG
   Ulf Ekstrom                                   : XCFun DFT Library
   Mihaly Kallay                                 : mrcc  (arbitrary order and MRCC methods)
   Frank Weinhold                                : gennbo (NPA and NBO analysis)
   Simon Mueller                                 : openCOSMO-RS
   Christopher J. Cramer and Donald G. Truhlar   : smd solvation model
   Lars Goerigk                                  : TD-DFT with DH, B97 family of functionals
   V. Asgeirsson, H. Jonsson                     : NEB implementation
   FAccTs GmbH                                   : IRC, NEB, NEB-TS, DLPNO-Multilevel, CI-OPT
                                                   MM, QMMM, 2- and 3-layer-ONIOM, Crystal-QMMM,
                                                   LR-CPCM, SF, NACMEs, symmetry and pop. for TD-DFT,
                                                   nearIR, NL-DFT gradient (VV10), updates on ESD,
                                                   ML-optimized integration grids, MBIS, APM,
                                                   GOAT, DOCKER, SOLVATOR, interface openCOSMO-RS
   S Lehtola, MJT Oliveira, MAL Marques          : LibXC Library
   Liviu Ungur et al                             : ANISO software


 Your calculation uses the libint2 library for the computation of 2-el integrals
 For citations please refer to: http://libint.valeyev.net

 Your ORCA version has been built with support for libXC version: 6.2.2
 For citations please refer to: https://libxc.gitlab.io

 This ORCA versions uses:
   CBLAS   interface :  Fast vector & matrix operations
   LAPACKE interface :  Fast linear algebra routines
   Shared memory     :  Shared parallel matrices


Your calculation utilizes the atom-pairwise dispersion correction
with the zero-damping scheme (D30)


XCFun DFT library Copyright 2009-2010 Ulf Ekstrom and contributors.
See http://admol.org/xcfun for more information.
This is free software; see the source code for copying conditions.
There is ABSOLUTELY NO WARRANTY; not even for MERCHANTABILITY or FITNESS FOR A PARTICULAR PURPOSE.
For details see the documentation.
Scientific users of this library should cite U. Ekstrom, L. Visscher, R. Bast, A. J. Thorvaldsen and K. Ruud;
J.Chem.Theor.Comp. 2010, DOI: 10.1021/ct100117s
XCFun Version 0.99 

Warning: RI is on but no J-basis has been assigned. Assigning Def2/J (nothing to worry about!)
================================================================================

----- Orbital basis set information -----
Your calculation utilizes the basis: def2-TZVP
   F. Weigend and R. Ahlrichs, Phys. Chem. Chem. Phys. 7, 3297 (2005).

----- AuxJ basis set information -----
Your calculation utilizes the auxiliary basis: def2/J
   F. Weigend, Phys. Chem. Chem. Phys. 8, 1057 (2006).

================================================================================
                                        WARNINGS
                       Please study these warnings very carefully!
================================================================================

WARNING: Functional chosen is sensitive to the integration grid.
         DEFGRID3 seems to be a minimum grid for robust results!

================================================================================
                                       INPUT FILE
================================================================================
NAME = data/single_point_P_M06-2x/80757/80757.inp
|  1> ! RIJCOSX M062X def2-TZVP D3ZERO NormalSCF
|  2> %pal
|  3> nprocs 6
|  4> end
|  5> 
|  6> * xyz 0 1
|  7>   C           5.26375510509812      0.92752150980335      0.23849489566882
|  8>   C           3.87931623767667      1.55044326362582      0.44301013757469
|  9>   C           2.76874447758885      0.82261883389982     -0.32711450827052
| 10>   C           1.37812279791728      1.43096833953029     -0.11581156408037
| 11>   P           0.05131129758436      0.54944709513311     -1.11234396454510
| 12>   C          -1.47108780832594      1.33092912758856     -0.33891668720337
| 13>   C          -2.76588302168219      0.60916393563772     -0.72828261962371
| 14>   C          -4.02706997085134      1.25428334162920     -0.13726442462579
| 15>   C          -5.31548764974615      0.51492417225059     -0.51104359938421
| 16>   C           0.05737084766827     -1.09178608913770     -0.23663341613754
| 17>   C          -0.13284146078663     -1.23009901582607      1.15571378120619
| 18>   C          -0.10590312844504     -2.49558025167535      1.76100636119291
| 19>   C           0.11473311074007     -3.64554425472416      0.98142173948077
| 20>   C           0.30615925623019     -3.52232213117459     -0.40395577544071
| 21>   C           0.27530183040639     -2.25294430803979     -1.00703736066674
| 22>   H           6.04671499648252      1.46780368965376      0.80876918170222
| 23>   H           5.27975680066163     -0.13265573184514      0.56841061263118
| 24>   H           5.55828913714661      0.94343765956958     -0.83210244204782
| 25>   H           3.62582517854045      1.55504828861226      1.52702323123777
| 26>   H           3.89809494526629      2.62005925877285      0.13473784823562
| 27>   H           2.74927442219028     -0.24671656720151     -0.01907882522505
| 28>   H           3.01066799822223      0.81857592884178     -1.41390174454101
| 29>   H           1.10993132606629      1.42502500633078      0.96476297473746
| 30>   H           1.36471006284779      2.49471303349628     -0.44207161298804
| 31>   H          -1.36602721963401      1.37293874223892      0.76869211848900
| 32>   H          -1.49339659541283      2.38587503804822     -0.69177687219023
| 33>   H          -2.70698321756833     -0.45122158153880     -0.39533602816188
| 34>   H          -2.85047841450710      0.57170575995416     -1.83771866570683
| 35>   H          -4.08924188798759      2.31380177969985     -0.47357991318478
| 36>   H          -3.92680394287830      1.29696746146500      0.97074217162905
| 37>   H          -6.21061756039193      0.99841155545826     -0.06933573746691
| 38>   H          -5.45869079694292      0.48681686813287     -1.61186267276456
| 39>   H          -5.29213021231166     -0.53680240600297     -0.15555764312783
| 40>   H          -0.30482098882569     -0.33863099403621      1.78033113766275
| 41>   H          -0.25688043198168     -2.58781524709533      2.84804550261743
| 42>   H           0.13621720309549     -4.63840045296136      1.45679336338085
| 43>   H           0.47845693545340     -4.41898570908193     -1.01941068447818
| 44>   H           0.42158734139616     -2.15197294903211     -2.09451429558552
| 45> **                         ****END OF INPUT****
================================================================================

                       ****************************
                       * Single Point Calculation *
                       ****************************

---------------------------------
CARTESIAN COORDINATES (ANGSTROEM)
---------------------------------
  C      5.263755    0.927522    0.238495
  C      3.879316    1.550443    0.443010
  C      2.768744    0.822619   -0.327115
  C      1.378123    1.430968   -0.115812
  P      0.051311    0.549447   -1.112344
  C     -1.471088    1.330929   -0.338917
  C     -2.765883    0.609164   -0.728283
  C     -4.027070    1.254283   -0.137264
  C     -5.315488    0.514924   -0.511044
  C      0.057371   -1.091786   -0.236633
  C     -0.132841   -1.230099    1.155714
  C     -0.105903   -2.495580    1.761006
  C      0.114733   -3.645544    0.981422
  C      0.306159   -3.522322   -0.403956
  C      0.275302   -2.252944   -1.007037
  H      6.046715    1.467804    0.808769
  H      5.279757   -0.132656    0.568411
  H      5.558289    0.943438   -0.832102
  H      3.625825    1.555048    1.527023
  H      3.898095    2.620059    0.134738
  H      2.749274   -0.246717   -0.019079
  H      3.010668    0.818576   -1.413902
  H      1.109931    1.425025    0.964763
  H      1.364710    2.494713   -0.442072
  H     -1.366027    1.372939    0.768692
  H     -1.493397    2.385875   -0.691777
  H     -2.706983   -0.451222   -0.395336
  H     -2.850478    0.571706   -1.837719
  H     -4.089242    2.313802   -0.473580
  H     -3.926804    1.296967    0.970742
  H     -6.210618    0.998412   -0.069336
  H     -5.458691    0.486817   -1.611863
  H     -5.292130   -0.536802   -0.155558
  H     -0.304821   -0.338631    1.780331
  H     -0.256880   -2.587815    2.848046
  H      0.136217   -4.638400    1.456793
  H      0.478457   -4.418986   -1.019411
  H      0.421587   -2.151973   -2.094514

----------------------------
CARTESIAN COORDINATES (A.U.)
----------------------------
  NO LB      ZA    FRAG     MASS         X           Y           Z
   0 C     6.0000    0    12.011    9.947056    1.752762    0.450690
   1 C     6.0000    0    12.011    7.330845    2.929913    0.837168
   2 C     6.0000    0    12.011    5.232169    1.554524   -0.618157
   3 C     6.0000    0    12.011    2.604275    2.704138   -0.218852
   4 P    15.0000    0    30.974    0.096964    1.038305   -2.102025
   5 C     6.0000    0    12.011   -2.779953    2.515092   -0.640460
   6 C     6.0000    0    12.011   -5.226761    1.151153   -1.376255
   7 C     6.0000    0    12.011   -7.610059    2.370252   -0.259392
   8 C     6.0000    0    12.011  -10.044816    0.973066   -0.965732
   9 C     6.0000    0    12.011    0.108415   -2.063177   -0.447172
  10 C     6.0000    0    12.011   -0.251034   -2.324550    2.183983
  11 C     6.0000    0    12.011   -0.200128   -4.715963    3.327820
  12 C     6.0000    0    12.011    0.216814   -6.889080    1.854618
  13 C     6.0000    0    12.011    0.578557   -6.656224   -0.763366
  14 C     6.0000    0    12.011    0.520245   -4.257448   -1.903025
  15 H     1.0000    0     1.008   11.426635    2.773747    1.528352
  16 H     1.0000    0     1.008    9.977294   -0.250683    1.074140
  17 H     1.0000    0     1.008   10.503644    1.782839   -1.572446
  18 H     1.0000    0     1.008    6.851817    2.938615    2.885656
  19 H     1.0000    0     1.008    7.366332    4.951194    0.254618
  20 H     1.0000    0     1.008    5.195376   -0.466227   -0.036054
  21 H     1.0000    0     1.008    5.689338    1.546884   -2.671887
  22 H     1.0000    0     1.008    2.097466    2.692907    1.823138
  23 H     1.0000    0     1.008    2.578928    4.714324   -0.835394
  24 H     1.0000    0     1.008   -2.581417    2.594478    1.452618
  25 H     1.0000    0     1.008   -2.822111    4.508650   -1.307269
  26 H     1.0000    0     1.008   -5.115457   -0.852685   -0.747077
  27 H     1.0000    0     1.008   -5.386624    1.080367   -3.472785
  28 H     1.0000    0     1.008   -7.727547    4.372452   -0.894936
  29 H     1.0000    0     1.008   -7.420584    2.450913    1.834437
  30 H     1.0000    0     1.008  -11.736366    1.886724   -0.131026
  31 H     1.0000    0     1.008  -10.315431    0.919951   -3.045979
  32 H     1.0000    0     1.008  -10.000677   -1.014410   -0.293961
  33 H     1.0000    0     1.008   -0.576028   -0.639920    3.364338
  34 H     1.0000    0     1.008   -0.485434   -4.890262    5.382026
  35 H     1.0000    0     1.008    0.257413   -8.765307    2.752940
  36 H     1.0000    0     1.008    0.904153   -8.350673   -1.926407
  37 H     1.0000    0     1.008    0.796685   -4.066640   -3.958058

--------------------------------
INTERNAL COORDINATES (ANGSTROEM)
--------------------------------
 C      0   0   0     0.000000000000     0.00000000     0.00000000
 C      1   0   0     1.531838429203     0.00000000     0.00000000
 C      2   1   0     1.534988600918   113.20905959     0.00000000
 C      3   2   1     1.532503413111   113.52328086   179.38813714
 P      4   3   2     1.878985174746   112.42018712   178.26552655
 C      5   4   3     1.877925173713    99.13655396   169.37855687
 C      6   5   4     1.532659605448   112.59818463   192.11961353
 C      7   6   5     1.534950838157   113.47747521   181.55135214
 C      8   7   6     1.531790771651   113.22133978   180.95128244
 C      5   4   3     1.860255909248    99.31991933    67.43511861
 C     10   5   4     1.412070078264   123.37740427    55.14238390
 C     11  10   5     1.403049371698   120.74023883   180.56957378
 C     12  11  10     1.406715941745   120.08312231     0.11599205
 C     13  12  11     1.403958161684   119.76806829   359.92413428
 C     14  13  12     1.405695428261   119.97437127   359.92567908
 H      1   2   3     1.109118472793   111.79369660   180.29142094
 H      1   2   3     1.110439650890   111.19853824   300.56281084
 H      1   2   3     1.110487406225   111.25956202    60.02854858
 H      2   1   3     1.113266953857   109.72301577   122.02189189
 H      2   1   3     1.113311646085   109.78409220   237.69251090
 H      3   2   1     1.112988438904   109.22988980    57.38478116
 H      3   2   1     1.113395631318   109.52625792   302.06764259
 H      4   3   2     1.113374744964   110.50445551   301.59405696
 H      4   3   2     1.112734602192   110.48719096    59.40556030
 H      6   5   4     1.113373163619   110.42149253   316.15824206
 H      6   5   4     1.112618023459   106.27267949    71.10195639
 H      7   6   5     1.112987001150   109.14514589    59.53495678
 H      7   6   5     1.113286951222   109.46349229   304.32697738
 H      8   7   6     1.113352044834   109.24062479    58.26344227
 H      8   7   6     1.113352517308   108.98430363   303.32992309
 H      9   8   7     1.109109301166   111.79286897   179.80350593
 H      9   8   7     1.110450266437   111.25907779   300.08623492
 H      9   8   7     1.110425427656   111.18319401    59.52660428
 H     11  10   5     1.102015895496   120.04394794     0.56512572
 H     12  11  10     1.101342605892   119.91493207   180.06161120
 H     13  12  11     1.101000988833   120.06404571   179.97513583
 H     14  13  12     1.101125245951   120.09265317   180.05039225
 H     15  14  13     1.101907777469   120.21468222   180.21216878

---------------------------
INTERNAL COORDINATES (A.U.)
---------------------------
 C      0   0   0     0.000000000000     0.00000000     0.00000000
 C      1   0   0     2.894755112610     0.00000000     0.00000000
 C      2   1   0     2.900708074426   113.20905959     0.00000000
 C      3   2   1     2.896011750079   113.52328086   179.38813714
 P      4   3   2     3.550767389968   112.42018712   178.26552655
 C      5   4   3     3.548764278313    99.13655396   169.37855687
 C      6   5   4     2.896306910820   112.59818463   192.11961353
 C      7   6   5     2.900636713150   113.47747521   181.55135214
 C      8   7   6     2.894665052889   113.22133978   180.95128244
 C      5   4   3     3.515374207487    99.31991933    67.43511861
 C     10   5   4     2.668425729823   123.37740427    55.14238390
 C     11  10   5     2.651379064880   120.74023883   180.56957378
 C     12  11  10     2.658307878119   120.08312231     0.11599205
 C     13  12  11     2.653096429066   119.76806829   359.92413428
 C     14  13  12     2.656379387118   119.97437127   359.92567908
 H      1   2   3     2.095930163652   111.79369660   180.29142094
 H      1   2   3     2.098426828430   111.19853824   300.56281084
 H      1   2   3     2.098517072934   111.25956202    60.02854858
 H      2   1   3     2.103769656735   109.72301577   122.02189189
 H      2   1   3     2.103854112805   109.78409220   237.69251090
 H      3   2   1     2.103243339750   109.22988980    57.38478116
 H      3   2   1     2.104012821895   109.52625792   302.06764259
 H      4   3   2     2.103973352407   110.50445551   301.59405696
 H      4   3   2     2.102763657881   110.48719096    59.40556030
 H      6   5   4     2.103970364097   110.42149253   316.15824206
 H      6   5   4     2.102543356002   106.27267949    71.10195639
 H      7   6   5     2.103240622787   109.14514589    59.53495678
 H      7   6   5     2.103807446278   109.46349229   304.32697738
 H      8   7   6     2.103930455378   109.24062479    58.26344227
 H      8   7   6     2.103931348224   108.98430363   303.32992309
 H      9   8   7     2.095912831789   111.79286897   179.80350593
 H      9   8   7     2.098446888906   111.25907779   300.08623492
 H      9   8   7     2.098399950411   111.18319401    59.52660428
 H     11  10   5     2.082508237715   120.04394794     0.56512572
 H     12  11  10     2.081235904754   119.91493207   180.06161120
 H     13  12  11     2.080590342071   120.06404571   179.97513583
 H     14  13  12     2.080825153993   120.09265317   180.05039225
 H     15  14  13     2.082303924253   120.21468222   180.21216878

---------------------
BASIS SET INFORMATION
---------------------
There are 3 groups of distinct atoms

 Group   1 Type C   : 11s6p2d1f contracted to 5s3p2d1f pattern {62111/411/11/1}
 Group   2 Type P   : 14s9p3d1f contracted to 5s5p2d1f pattern {73211/51111/21/1}
 Group   3 Type H   : 5s1p contracted to 3s1p pattern {311/1}

Atom   0C    basis set group =>   1
Atom   1C    basis set group =>   1
Atom   2C    basis set group =>   1
Atom   3C    basis set group =>   1
Atom   4P    basis set group =>   2
Atom   5C    basis set group =>   1
Atom   6C    basis set group =>   1
Atom   7C    basis set group =>   1
Atom   8C    basis set group =>   1
Atom   9C    basis set group =>   1
Atom  10C    basis set group =>   1
Atom  11C    basis set group =>   1
Atom  12C    basis set group =>   1
Atom  13C    basis set group =>   1
Atom  14C    basis set group =>   1
Atom  15H    basis set group =>   3
Atom  16H    basis set group =>   3
Atom  17H    basis set group =>   3
Atom  18H    basis set group =>   3
Atom  19H    basis set group =>   3
Atom  20H    basis set group =>   3
Atom  21H    basis set group =>   3
Atom  22H    basis set group =>   3
Atom  23H    basis set group =>   3
Atom  24H    basis set group =>   3
Atom  25H    basis set group =>   3
Atom  26H    basis set group =>   3
Atom  27H    basis set group =>   3
Atom  28H    basis set group =>   3
Atom  29H    basis set group =>   3
Atom  30H    basis set group =>   3
Atom  31H    basis set group =>   3
Atom  32H    basis set group =>   3
Atom  33H    basis set group =>   3
Atom  34H    basis set group =>   3
Atom  35H    basis set group =>   3
Atom  36H    basis set group =>   3
Atom  37H    basis set group =>   3
---------------------------------
AUXILIARY/J BASIS SET INFORMATION
---------------------------------
There are 3 groups of distinct atoms

 Group   1 Type C   : 12s5p4d2f1g contracted to 6s4p3d1f1g pattern {711111/2111/211/2/1}
 Group   2 Type P   : 14s5p5d2f1g contracted to 8s4p3d1f1g pattern {71111111/2111/311/2/1}
 Group   3 Type H   : 5s2p1d contracted to 3s1p1d pattern {311/2/1}

Atom   0C    basis set group =>   1
Atom   1C    basis set group =>   1
Atom   2C    basis set group =>   1
Atom   3C    basis set group =>   1
Atom   4P    basis set group =>   2
Atom   5C    basis set group =>   1
Atom   6C    basis set group =>   1
Atom   7C    basis set group =>   1
Atom   8C    basis set group =>   1
Atom   9C    basis set group =>   1
Atom  10C    basis set group =>   1
Atom  11C    basis set group =>   1
Atom  12C    basis set group =>   1
Atom  13C    basis set group =>   1
Atom  14C    basis set group =>   1
Atom  15H    basis set group =>   3
Atom  16H    basis set group =>   3
Atom  17H    basis set group =>   3
Atom  18H    basis set group =>   3
Atom  19H    basis set group =>   3
Atom  20H    basis set group =>   3
Atom  21H    basis set group =>   3
Atom  22H    basis set group =>   3
Atom  23H    basis set group =>   3
Atom  24H    basis set group =>   3
Atom  25H    basis set group =>   3
Atom  26H    basis set group =>   3
Atom  27H    basis set group =>   3
Atom  28H    basis set group =>   3
Atom  29H    basis set group =>   3
Atom  30H    basis set group =>   3
Atom  31H    basis set group =>   3
Atom  32H    basis set group =>   3
Atom  33H    basis set group =>   3
Atom  34H    basis set group =>   3
Atom  35H    basis set group =>   3
Atom  36H    basis set group =>   3
Atom  37H    basis set group =>   3


           ************************************************************
           *        Program running with 6 parallel MPI-processes     *
           *              working on a common directory               *
           ************************************************************
------------------------------------------------------------------------------
                             ORCA STARTUP CALCULATIONS
                           -- RI-GTO INTEGRALS CHOSEN --
------------------------------------------------------------------------------
------------------------------------------------------------------------------
                   ___                                                        
                  /   \      - P O W E R E D   B Y -                         
                 /     \                                                     
                 |  |  |   _    _      __       _____    __    __             
                 |  |  |  | |  | |    /  \     |  _  \  |  |  /  |          
                  \  \/   | |  | |   /    \    | | | |  |  | /  /          
                 / \  \   | |__| |  /  /\  \   | |_| |  |  |/  /          
                |  |  |   |  __  | /  /__\  \  |    /   |      \           
                |  |  |   | |  | | |   __   |  |    \   |  |\   \          
                \     /   | |  | | |  |  |  |  | |\  \  |  | \   \       
                 \___/    |_|  |_| |__|  |__|  |_| \__\ |__|  \__/        
                                                                              
                      - O R C A' S   B I G   F R I E N D -                    
                                      &                                       
                       - I N T E G R A L  F E E D E R -                       
                                                                              
 v1 FN, 2020, v2 2021, v3 2022-2024                                           
------------------------------------------------------------------------------


----------------------
SHARK INTEGRAL PACKAGE
----------------------

Number of atoms                             ...     38
Number of basis functions                   ...    609
Number of shells                            ...    259
Maximum angular momentum                    ...      3
Integral batch strategy                     ... SHARK/LIBINT Hybrid
RI-J (if used) integral strategy            ... SPLIT-RIJ (Revised 2003 algorithm where possible)
Printlevel                                  ...      1
Contraction scheme used                     ... SEGMENTED contraction
Prescreening option                         ... SCHWARTZ
   Thresh                                   ... 1.000e-10
   Tcut                                     ... 1.000e-11
   Tpresel                                  ... 1.000e-11 
Coulomb Range Separation                    ... NOT USED
Exchange Range Separation                   ... NOT USED
Multipole approximations                    ... NOT USED
Finite Nucleus Model                        ... NOT USED
CABS basis                                  ... NOT available
Auxiliary Coulomb fitting basis             ... AVAILABLE
   # of basis functions in Aux-J            ...    990
   # of shells in Aux-J                     ...    342
   Maximum angular momentum in Aux-J        ...      4
Auxiliary J/K fitting basis                 ... NOT available
Auxiliary Correlation fitting basis         ... NOT available
Auxiliary 'external' fitting basis          ... NOT available

Checking pre-screening integrals            ... done (  0.0 sec) Dimension = 259
Check shell pair data                       ... done (  0.0 sec)
Shell pair information
Shell pair cut-off parameter TPreSel        ...   1.0e-11
Total number of shell pairs                 ...     33670
Shell pairs after pre-screening             ...     24161
Total number of primitive shell pairs       ...     99648
Primitive shell pairs kept                  ...     49057
          la=0 lb=0:   7399 shell pairs
          la=1 lb=0:   7322 shell pairs
          la=1 lb=1:   1868 shell pairs
          la=2 lb=0:   3066 shell pairs
          la=2 lb=1:   1564 shell pairs
          la=2 lb=2:    359 shell pairs
          la=3 lb=0:   1459 shell pairs
          la=3 lb=1:    734 shell pairs
          la=3 lb=2:    310 shell pairs
          la=3 lb=3:     80 shell pairs

Calculating one electron integrals          ... done (  0.0 sec)
Calculating RI/J V-Matrix + Cholesky decomp.... done (  0.0 sec)
Calculating Nuclear repulsion               ... done (  0.0 sec) ENN=   1079.744915748961 Eh

Diagonalization of the overlap matrix:
Smallest eigenvalue                        ... 8.441e-06
Time for diagonalization                   ...    0.063 sec
Threshold for overlap eigenvalues          ... 1.000e-07
Number of eigenvalues below threshold      ... 0
Time for construction of square roots      ...    0.031 sec
Total time needed                          ...    0.098 sec

-------------------
DFT GRID GENERATION
-------------------

General Integration Accuracy     IntAcc      ... 4.388
Radial Grid Type                 RadialGrid  ... OptM3 with GC (2021)
Angular Grid (max. ang.)         AngularGrid ... 4 (Lebedev-302)
Angular grid pruning method      GridPruning ... 4 (adaptive)
Weight generation scheme         WeightScheme... mBecke (2022)
Basis function cutoff            BFCut       ... 1.0000e-10
Integration weight cutoff        WCut        ... 1.0000e-14
Partially contracted basis set               ... off
Rotationally invariant grid construction     ... off
Angular grids for H and He will be reduced by one unit

Total number of grid points                  ...   164124
Total number of batches                      ...     2582
Average number of points per batch           ...       63
Average number of grid points per atom       ...     4319

--------------------
COSX GRID GENERATION
--------------------

GRIDX 1
-------
General Integration Accuracy     IntAcc      ... 3.816
Radial Grid Type                 RadialGrid  ... OptM3 with GC (2021)
Angular Grid (max. ang.)         AngularGrid ... 1 (Lebedev-50)
Angular grid pruning method      GridPruning ... 4 (adaptive)
Weight generation scheme         WeightScheme... mBecke (2022)
Basis function cutoff            BFCut       ... 1.0000e-10
Integration weight cutoff        WCut        ... 1.0000e-14
Partially contracted basis set               ... on
Rotationally invariant grid construction     ... off
Angular grids for H and He will be reduced by one unit

Total number of grid points                  ...    21973
Total number of batches                      ...      194
Average number of points per batch           ...      113
Average number of grid points per atom       ...      578
UseSFitting                                  ... on

GRIDX 2
-------
General Integration Accuracy     IntAcc      ... 4.020
Radial Grid Type                 RadialGrid  ... OptM3 with GC (2021)
Angular Grid (max. ang.)         AngularGrid ... 2 (Lebedev-110)
Angular grid pruning method      GridPruning ... 4 (adaptive)
Weight generation scheme         WeightScheme... mBecke (2022)
Basis function cutoff            BFCut       ... 1.0000e-10
Integration weight cutoff        WCut        ... 1.0000e-14
Partially contracted basis set               ... on
Rotationally invariant grid construction     ... off
Angular grids for H and He will be reduced by one unit

Total number of grid points                  ...    43675
Total number of batches                      ...      361
Average number of points per batch           ...      120
Average number of grid points per atom       ...     1149
UseSFitting                                  ... on

GRIDX 3
-------
General Integration Accuracy     IntAcc      ... 4.338
Radial Grid Type                 RadialGrid  ... OptM3 with GC (2021)
Angular Grid (max. ang.)         AngularGrid ... 3 (Lebedev-194)
Angular grid pruning method      GridPruning ... 4 (adaptive)
Weight generation scheme         WeightScheme... mBecke (2022)
Basis function cutoff            BFCut       ... 1.0000e-10
Integration weight cutoff        WCut        ... 1.0000e-14
Partially contracted basis set               ... on
Rotationally invariant grid construction     ... off
Angular grids for H and He will be reduced by one unit

Total number of grid points                  ...    95298
Total number of batches                      ...      763
Average number of points per batch           ...      124
Average number of grid points per atom       ...     2508
UseSFitting                                  ... on
Initializing property integral containers    ... done (  0.0 sec)

SHARK setup successfully completed in   2.8 seconds

Maximum memory used throughout the entire STARTUP-calculation: 61.0 MB


           ************************************************************
           *        Program running with 6 parallel MPI-processes     *
           *              working on a common directory               *
           ************************************************************
-------------------------------------------------------------------------------
                                 ORCA GUESS
                   Start orbitals & Density for SCF / CASSCF
-------------------------------------------------------------------------------

------------
SCF SETTINGS
------------
Hamiltonian:
 Density Functional     Method          .... DFT(GTOs)
 Exchange Functional    Exchange        .... M062X
 Correlation Functional Correlation     .... M062X
 Gradients option       PostSCFGGA      .... off
 Hybrid DFT is turned on
   Fraction HF Exchange ScalHFX         ....  0.540000
   Scaling of DF-GGA-X  ScalDFX         ....  0.460000
   Scaling of DF-GGA-C  ScalDFC         ....  1.000000
   Scaling of DF-LDA-C  ScalLDAC        ....  1.000000
   Perturbative correction              ....  0.000000
 RI-approximation to the Coulomb term is turned on
   Number of AuxJ basis functions       .... 990
   RIJ-COSX (HFX calculated with COS-X)).... on


General Settings:
 Integral files         IntName         .... data/single_point_P_M06-2x/80757/80757
 Hartree-Fock type      HFTyp           .... RHF
 Total Charge           Charge          ....    0
 Multiplicity           Mult            ....    1
 Number of Electrons    NEL             ....  122
 Basis Dimension        Dim             ....  609
 Nuclear Repulsion      ENuc            ....   1079.7449157490 Eh

Convergence Acceleration:
 AO-DIIS                CNVDIIS         .... on
   Start iteration      DIISMaxIt       ....    12
   Startup error        DIISStart       ....  0.200000
   # of expansion vecs  DIISMaxEq       ....     5
   Bias factor          DIISBfac        ....   1.050
   Max. coefficient     DIISMaxC        ....  10.000
 MO-DIIS                CNVKDIIS        .... off
 Trust-Rad. Augm. Hess. CNVTRAH         .... auto
   Auto Start mean grad. ratio tolernc. ....  1.125000
   Auto Start start iteration           ....    50
   Auto Start num. interpolation iter.  ....    10
   Max. Number of Micro iterations      ....    24
   Max. Number of Macro iterations      .... Maxiter - #DIIS iter
   Number of Davidson start vectors     ....     2
   Converg. threshold    (grad. norm)   ....   5.000e-05
   Grad. Scal. Fac. for Micro threshold ....   0.100
   Minimum threshold for Micro iter.    ....   1.000e-02
   NR start threshold (gradient norm)   ....   1.000e-04
   Initial trust radius                 ....   0.400
   Minimum AH scaling param. (alpha)    ....   1.000
   Maximum AH scaling param. (alpha)    .... 1000.000
   Quad. conv. algorithm                .... NR
   White noise on init. David. guess    .... on
   Maximum white noise                  ....   0.010
   Pseudo random numbers                .... off
   Inactive MOs                         .... canonical
   Orbital update algorithm             .... Taylor
   Preconditioner                       .... Diag
   Full preconditioner red. dimension   ....   250
 SOSCF                  CNVSOSCF        .... on
   Start iteration      SOSCFMaxIt      ....   150
   Startup grad/error   SOSCFStart      ....  0.003300
   Hessian update       SOSCFHessUp     .... L-BFGS
 Level Shifting         CNVShift        .... on
   Level shift para.    LevelShift      ....    0.2500
   Turn off err/grad.   ShiftErr        ....    0.0010
 Zerner damping         CNVZerner       .... off
 Static damping         CNVDamp         .... on
   Fraction old density DampFac         ....    0.7000
   Max. Damping (<1)    DampMax         ....    0.9800
   Min. Damping (>=0)   DampMin         ....    0.0000
   Turn off err/grad.   DampErr         ....    0.1000

SCF Procedure:
 Maximum # iterations   MaxIter         ....   125
 SCF integral mode      SCFMode         .... Direct
   Integral package                     .... SHARK and LIBINT hybrid scheme
 Reset frequency        DirectResetFreq ....    20
 Integral Threshold     Thresh          ....  1.000e-10 Eh
 Primitive CutOff       TCut            ....  1.000e-11 Eh

Convergence Tolerance:
 Convergence Check Mode ConvCheckMode   .... Total+1el-Energy
 Convergence forced     ConvForced      .... 0
 Energy Change          TolE            ....  1.000e-06 Eh
 1-El. energy change                    ....  1.000e-03 Eh
 Orbital Gradient       TolG            ....  5.000e-05
 Orbital Rotation angle TolX            ....  5.000e-05
 DIIS Error             TolErr          ....  1.000e-05

------------------------------
INITIAL GUESS: MODEL POTENTIAL
------------------------------
Loading Hartree-Fock densities                     ... done
Calculating cut-offs                               ... done
Initializing the effective Hamiltonian             ... done
Setting up the integral package (SHARK)            ... done
Starting the Coulomb interaction                   ... done (   0.3 sec)
Making the grid                                    ... done (   0.2 sec)
Mapping shells                                     ... done
Starting the XC term evaluation                    ... done (   0.3 sec)
  promolecular density results
     # of electrons  =    121.976022423
     EX              =   -100.808395386
     EC              =     -4.065888047
     EX+EC           =   -104.874283433
Transforming the Hamiltonian                       ... done (   0.0 sec)
Diagonalizing the Hamiltonian                      ... done (   0.1 sec)
Back transforming the eigenvectors                 ... done (   0.0 sec)
Now organizing SCF variables                       ... done
                      ------------------
                      INITIAL GUESS DONE (   1.0 sec)
                      ------------------
             **** ENERGY FILE WAS UPDATED (data/single_point_P_M06-2x/80757/80757.en.tmp) ****
Finished Guess after   1.2 sec
Maximum memory used throughout the entire GUESS-calculation: 41.7 MB


           ************************************************************
           *        Program running with 6 parallel MPI-processes     *
           *              working on a common directory               *
           ************************************************************

-------------------------------------------------------------------------------------------
                                      ORCA LEAN-SCF
                              memory conserving SCF solver
-------------------------------------------------------------------------------------------

----------------------------------------D-I-I-S--------------------------------------------
Iteration    Energy (Eh)           Delta-E    RMSDP     MaxDP     DIISErr   Damp  Time(sec)
-------------------------------------------------------------------------------------------
               ***  Starting incremental Fock matrix formation  ***
    1    -888.1434271413602346     0.00e+00  1.12e-03  3.54e-02  1.87e-01  0.700  10.4
    2    -888.3496819249403416    -2.06e-01  8.88e-04  2.95e-02  1.06e-01  0.700   5.9
                               ***Turning on AO-DIIS***
    3    -888.4478375095022784    -9.82e-02  5.72e-04  2.14e-02  4.85e-02  0.700   5.6
    4    -888.5046505303491813    -5.68e-02  1.30e-03  4.88e-02  2.83e-02  0.000   5.4
    5    -888.6250810049600659    -1.20e-01  1.17e-04  1.30e-02  3.48e-03  0.000   6.0
                              *** Initializing SOSCF ***
---------------------------------------S-O-S-C-F--------------------------------------
Iteration    Energy (Eh)           Delta-E    RMSDP     MaxDP     MaxGrad    Time(sec)
--------------------------------------------------------------------------------------
    6    -888.6253113506913905    -2.30e-04  4.57e-05  4.25e-03  8.46e-04     5.2
               *** Restarting incremental Fock matrix formation ***
    7    -888.6252406484682069     7.07e-05  5.55e-05  3.68e-03  1.52e-04    11.0
    8    -888.6252431879154301    -2.54e-06  2.24e-05  1.59e-03  2.50e-04     7.1
    9    -888.6252444113556521    -1.22e-06  1.39e-05  6.24e-04  7.67e-05     8.2
   10    -888.6252445649881793    -1.54e-07  2.93e-06  1.47e-04  2.44e-05     6.4
                 **** Energy Check signals convergence ****

               *****************************************************
               *                     SUCCESS                       *
               *           SCF CONVERGED AFTER  10 CYCLES          *
               *****************************************************

Recomputing exchange energy using gridx3       ... done (   14.440 sec)
Old exchange energy                            :    -55.765544190 Eh
New exchange energy                            :    -55.765444837 Eh
Exchange energy change after final integration :      0.000099353 Eh
Total energy after final integration           :   -888.625145212 Eh
             **** ENERGY FILE WAS UPDATED (data/single_point_P_M06-2x/80757/80757.en.tmp) ****

----------------
TOTAL SCF ENERGY
----------------

Total Energy       :       -888.62514521205719 Eh          -24180.71953 eV

Components:
Nuclear Repulsion  :       1079.74491574896138 Eh           29381.35288 eV
Electronic Energy  :      -1968.37016031394955 Eh          -53562.07511 eV
One Electron Energy:      -3353.97819160614245 Eh          -91266.38649 eV
Two Electron Energy:       1385.60803129219289 Eh           37704.31138 eV

Virial components:
Potential Energy   :      -1772.82708667388670 Eh          -48241.07756 eV
Kinetic Energy     :        884.20194146182962 Eh           24060.35803 eV
Virial Ratio       :          2.00500248138215

DFT components:
N(Alpha)           :       61.000153387953 electrons
N(Beta)            :       61.000153387953 electrons
N(Total)           :      122.000306775906 electrons
E(XC)              :      -51.717103570978 Eh       

---------------
SCF CONVERGENCE
---------------

  Last Energy change         ...    1.5363e-07  Tolerance :   1.0000e-06
  Last MAX-Density change    ...    1.4669e-04  Tolerance :   1.0000e-05
  Last RMS-Density change    ...    2.9262e-06  Tolerance :   1.0000e-06
  Last DIIS Error            ...    8.4637e-04  Tolerance :   1.0000e-05
  Last Orbital Gradient      ...    2.4380e-05  Tolerance :   5.0000e-05
  Last Orbital Rotation      ...    4.6809e-05  Tolerance :   5.0000e-05


----------------
ORBITAL ENERGIES
----------------

  NO   OCC          E(Eh)            E(eV) 
   0   2.0000     -78.017661     -2122.9685 
   1   2.0000     -10.552241      -287.1411 
   2   2.0000     -10.551859      -287.1307 
   3   2.0000     -10.551027      -287.1080 
   4   2.0000     -10.550209      -287.0858 
   5   2.0000     -10.549746      -287.0732 
   6   2.0000     -10.549202      -287.0584 
   7   2.0000     -10.538205      -286.7591 
   8   2.0000     -10.537874      -286.7501 
   9   2.0000     -10.533912      -286.6423 
  10   2.0000     -10.533438      -286.6294 
  11   2.0000     -10.533200      -286.6229 
  12   2.0000     -10.532741      -286.6105 
  13   2.0000     -10.526045      -286.4282 
  14   2.0000     -10.525747      -286.4201 
  15   2.0000      -6.833640      -185.9528 
  16   2.0000      -4.948104      -134.6447 
  17   2.0000      -4.947852      -134.6379 
  18   2.0000      -4.947645      -134.6323 
  19   2.0000      -0.955426       -25.9985 
  20   2.0000      -0.897269       -24.4159 
  21   2.0000      -0.889710       -24.2102 
  22   2.0000      -0.851229       -23.1631 
  23   2.0000      -0.840442       -22.8696 
  24   2.0000      -0.821774       -22.3616 
  25   2.0000      -0.811009       -22.0687 
  26   2.0000      -0.739879       -20.1331 
  27   2.0000      -0.702729       -19.1222 
  28   2.0000      -0.688519       -18.7356 
  29   2.0000      -0.681803       -18.5528 
  30   2.0000      -0.658527       -17.9194 
  31   2.0000      -0.650687       -17.7061 
  32   2.0000      -0.616358       -16.7720 
  33   2.0000      -0.575460       -15.6591 
  34   2.0000      -0.541101       -14.7241 
  35   2.0000      -0.537075       -14.6145 
  36   2.0000      -0.517845       -14.0913 
  37   2.0000      -0.515410       -14.0250 
  38   2.0000      -0.494636       -13.4597 
  39   2.0000      -0.493429       -13.4269 
  40   2.0000      -0.491628       -13.3779 
  41   2.0000      -0.482591       -13.1320 
  42   2.0000      -0.476080       -12.9548 
  43   2.0000      -0.464037       -12.6271 
  44   2.0000      -0.459616       -12.5068 
  45   2.0000      -0.441064       -12.0020 
  46   2.0000      -0.437363       -11.9012 
  47   2.0000      -0.423192       -11.5156 
  48   2.0000      -0.416019       -11.3205 
  49   2.0000      -0.407510       -11.0889 
  50   2.0000      -0.406124       -11.0512 
  51   2.0000      -0.403024       -10.9668 
  52   2.0000      -0.394590       -10.7373 
  53   2.0000      -0.389073       -10.5872 
  54   2.0000      -0.380256       -10.3473 
  55   2.0000      -0.377650       -10.2764 
  56   2.0000      -0.360072        -9.7981 
  57   2.0000      -0.347201        -9.4478 
  58   2.0000      -0.309782        -8.4296 
  59   2.0000      -0.303357        -8.2548 
  60   2.0000      -0.279290        -7.5999 
  61   0.0000       0.001928         0.0525 
  62   0.0000       0.015188         0.4133 
  63   0.0000       0.060571         1.6482 
  64   0.0000       0.066136         1.7997 
  65   0.0000       0.072673         1.9775 
  66   0.0000       0.076986         2.0949 
  67   0.0000       0.084445         2.2979 
  68   0.0000       0.090568         2.4645 
  69   0.0000       0.101412         2.7596 
  70   0.0000       0.102825         2.7980 
  71   0.0000       0.110135         2.9969 
*Only the first 10 virtual orbitals were printed.

                    ********************************
                    * MULLIKEN POPULATION ANALYSIS *
                    ********************************

-----------------------
MULLIKEN ATOMIC CHARGES
-----------------------
   0 C :   -0.430023
   1 C :   -0.233059
   2 C :   -0.291114
   3 C :   -0.408369
   4 P :    0.191521
   5 C :   -0.422831
   6 C :   -0.288611
   7 C :   -0.232085
   8 C :   -0.429388
   9 C :   -0.113456
  10 C :   -0.150978
  11 C :   -0.171837
  12 C :   -0.131271
  13 C :   -0.155133
  14 C :   -0.095936
  15 H :    0.141196
  16 H :    0.138942
  17 H :    0.136826
  18 H :    0.129658
  19 H :    0.129754
  20 H :    0.161378
  21 H :    0.147872
  22 H :    0.163296
  23 H :    0.159451
  24 H :    0.164233
  25 H :    0.162569
  26 H :    0.161288
  27 H :    0.149512
  28 H :    0.130026
  29 H :    0.128460
  30 H :    0.141239
  31 H :    0.136844
  32 H :    0.138965
  33 H :    0.152052
  34 H :    0.144266
  35 H :    0.145860
  36 H :    0.145282
  37 H :    0.153602
Sum of atomic charges:   -0.0000000

--------------------------------
MULLIKEN REDUCED ORBITAL CHARGES
--------------------------------
  0 C s       :     3.315907  s :     3.315907
      pz      :     1.063772  p :     3.055471
      px      :     0.948691
      py      :     1.043007
      dz2     :     0.011079  d :     0.055347
      dxz     :     0.015069
      dyz     :     0.003777
      dx2y2   :     0.015827
      dxy     :     0.009595
      f0      :     0.000680  f :     0.003297
      f+1     :     0.000415
      f-1     :     0.000122
      f+2     :     0.000329
      f-2     :     0.000400
      f+3     :     0.000659
      f-3     :     0.000691

  1 C s       :     3.249663  s :     3.249663
      pz      :     1.006092  p :     2.889439
      px      :     0.899032
      py      :     0.984315
      dz2     :     0.024336  d :     0.088984
      dxz     :     0.017468
      dyz     :     0.004379
      dx2y2   :     0.028085
      dxy     :     0.014716
      f0      :     0.000767  f :     0.004973
      f+1     :     0.000834
      f-1     :     0.000292
      f+2     :     0.000615
      f-2     :     0.000545
      f+3     :     0.001096
      f-3     :     0.000825

  2 C s       :     3.275304  s :     3.275304
      pz      :     1.025951  p :     2.919526
      px      :     0.890045
      py      :     1.003530
      dz2     :     0.026413  d :     0.091114
      dxz     :     0.016857
      dyz     :     0.005162
      dx2y2   :     0.028615
      dxy     :     0.014067
      f0      :     0.000808  f :     0.005169
      f+1     :     0.000833
      f-1     :     0.000292
      f+2     :     0.000655
      f-2     :     0.000557
      f+3     :     0.001180
      f-3     :     0.000844

  3 C s       :     3.275850  s :     3.275850
      pz      :     1.043954  p :     3.055681
      px      :     0.961716
      py      :     1.050011
      dz2     :     0.019023  d :     0.073090
      dxz     :     0.016767
      dyz     :     0.005462
      dx2y2   :     0.019575
      dxy     :     0.012263
      f0      :     0.000726  f :     0.003748
      f+1     :     0.000573
      f-1     :     0.000181
      f+2     :     0.000342
      f-2     :     0.000364
      f+3     :     0.000860
      f-3     :     0.000703

  4 P s       :     5.705268  s :     5.705268
      pz      :     3.365668  p :     8.839059
      px      :     2.767788
      py      :     2.705603
      dz2     :     0.025999  d :     0.238443
      dxz     :     0.047684
      dyz     :     0.047308
      dx2y2   :     0.058016
      dxy     :     0.059437
      f0      :     0.002639  f :     0.025709
      f+1     :     0.003154
      f-1     :     0.002656
      f+2     :     0.005188
      f-2     :     0.004695
      f+3     :     0.004796
      f-3     :     0.002580

  5 C s       :     3.283361  s :     3.283361
      pz      :     1.044658  p :     3.062911
      px      :     0.969517
      py      :     1.048735
      dz2     :     0.020903  d :     0.072819
      dxz     :     0.013480
      dyz     :     0.006119
      dx2y2   :     0.021067
      dxy     :     0.011251
      f0      :     0.000758  f :     0.003740
      f+1     :     0.000594
      f-1     :     0.000193
      f+2     :     0.000288
      f-2     :     0.000386
      f+3     :     0.000853
      f-3     :     0.000667

  6 C s       :     3.274626  s :     3.274626
      pz      :     1.030034  p :     2.918399
      px      :     0.892022
      py      :     0.996342
      dz2     :     0.027524  d :     0.090438
      dxz     :     0.013617
      dyz     :     0.005781
      dx2y2   :     0.029169
      dxy     :     0.014346
      f0      :     0.000810  f :     0.005148
      f+1     :     0.000866
      f-1     :     0.000245
      f+2     :     0.000511
      f-2     :     0.000610
      f+3     :     0.001286
      f-3     :     0.000820

  7 C s       :     3.249275  s :     3.249275
      pz      :     1.013727  p :     2.888756
      px      :     0.891599
      py      :     0.983429
      dz2     :     0.025660  d :     0.089074
      dxz     :     0.014178
      dyz     :     0.005141
      dx2y2   :     0.029263
      dxy     :     0.014832
      f0      :     0.000800  f :     0.004979
      f+1     :     0.000827
      f-1     :     0.000244
      f+2     :     0.000501
      f-2     :     0.000598
      f+3     :     0.001192
      f-3     :     0.000817

  8 C s       :     3.315575  s :     3.315575
      pz      :     1.056267  p :     3.055205
      px      :     0.966849
      py      :     1.032089
      dz2     :     0.015027  d :     0.055315
      dxz     :     0.010024
      dyz     :     0.004293
      dx2y2   :     0.017693
      dxy     :     0.008280
      f0      :     0.000750  f :     0.003293
      f+1     :     0.000363
      f-1     :     0.000145
      f+2     :     0.000307
      f-2     :     0.000402
      f+3     :     0.000621
      f-3     :     0.000704

  9 C s       :     3.279911  s :     3.279911
      pz      :     0.879234  p :     2.754115
      px      :     0.969063
      py      :     0.905817
      dz2     :     0.014922  d :     0.072535
      dxz     :     0.017544
      dyz     :     0.018035
      dx2y2   :     0.008829
      dxy     :     0.013205
      f0      :     0.000938  f :     0.006895
      f+1     :     0.001159
      f-1     :     0.001897
      f+2     :     0.000734
      f-2     :     0.000487
      f+3     :     0.000914
      f-3     :     0.000768

 10 C s       :     3.188538  s :     3.188538
      pz      :     0.880627  p :     2.889056
      px      :     0.961512
      py      :     1.046917
      dz2     :     0.012337  d :     0.066847
      dxz     :     0.014924
      dyz     :     0.021156
      dx2y2   :     0.006920
      dxy     :     0.011511
      f0      :     0.000890  f :     0.006538
      f+1     :     0.001012
      f-1     :     0.001744
      f+2     :     0.000818
      f-2     :     0.000422
      f+3     :     0.000951
      f-3     :     0.000701

 11 C s       :     3.237177  s :     3.237177
      pz      :     1.007147  p :     2.867785
      px      :     0.965005
      py      :     0.895633
      dz2     :     0.013257  d :     0.060603
      dxz     :     0.004914
      dyz     :     0.014746
      dx2y2   :     0.007494
      dxy     :     0.020193
      f0      :     0.000754  f :     0.006271
      f+1     :     0.000217
      f-1     :     0.001462
      f+2     :     0.000907
      f-2     :     0.000845
      f+3     :     0.001241
      f-3     :     0.000845

 12 C s       :     3.220251  s :     3.220251
      pz      :     0.906214  p :     2.843481
      px      :     0.958689
      py      :     0.978577
      dz2     :     0.012412  d :     0.061233
      dxz     :     0.017213
      dyz     :     0.015733
      dx2y2   :     0.008132
      dxy     :     0.007743
      f0      :     0.000941  f :     0.006306
      f+1     :     0.001081
      f-1     :     0.001558
      f+2     :     0.000798
      f-2     :     0.000483
      f+3     :     0.000654
      f-3     :     0.000791

 13 C s       :     3.230899  s :     3.230899
      pz      :     0.918976  p :     2.857053
      px      :     0.967268
      py      :     0.970810
      dz2     :     0.012234  d :     0.060888
      dxz     :     0.015421
      dyz     :     0.015183
      dx2y2   :     0.007817
      dxy     :     0.010232
      f0      :     0.000896  f :     0.006293
      f+1     :     0.001063
      f-1     :     0.001557
      f+2     :     0.000800
      f-2     :     0.000375
      f+3     :     0.000921
      f-3     :     0.000681

 14 C s       :     3.184143  s :     3.184143
      pz      :     1.003121  p :     2.841162
      px      :     0.945140
      py      :     0.892901
      dz2     :     0.016140  d :     0.064150
      dxz     :     0.004674
      dyz     :     0.015254
      dx2y2   :     0.007469
      dxy     :     0.020614
      f0      :     0.000724  f :     0.006481
      f+1     :     0.000189
      f-1     :     0.001615
      f+2     :     0.000903
      f-2     :     0.000812
      f+3     :     0.001280
      f-3     :     0.000958

 15 H s       :     0.840339  s :     0.840339
      pz      :     0.005488  p :     0.018465
      px      :     0.007834
      py      :     0.005143

 16 H s       :     0.842809  s :     0.842809
      pz      :     0.004152  p :     0.018249
      px      :     0.003462
      py      :     0.010636

 17 H s       :     0.844929  s :     0.844929
      pz      :     0.010567  p :     0.018246
      px      :     0.004165
      py      :     0.003514

 18 H s       :     0.851937  s :     0.851937
      pz      :     0.011209  p :     0.018404
      px      :     0.003764
      py      :     0.003432

 19 H s       :     0.851876  s :     0.851876
      pz      :     0.003859  p :     0.018369
      px      :     0.003303
      py      :     0.011208

 20 H s       :     0.820093  s :     0.820093
      pz      :     0.003834  p :     0.018529
      px      :     0.003271
      py      :     0.011424

 21 H s       :     0.833593  s :     0.833593
      pz      :     0.011463  p :     0.018536
      px      :     0.003652
      py      :     0.003421

 22 H s       :     0.817392  s :     0.817392
      pz      :     0.011378  p :     0.019312
      px      :     0.004290
      py      :     0.003644

 23 H s       :     0.821416  s :     0.821416
      pz      :     0.004181  p :     0.019134
      px      :     0.003799
      py      :     0.011155

 24 H s       :     0.816378  s :     0.816378
      pz      :     0.011702  p :     0.019389
      px      :     0.004011
      py      :     0.003676

 25 H s       :     0.818256  s :     0.818256
      pz      :     0.004237  p :     0.019175
      px      :     0.003914
      py      :     0.011025

 26 H s       :     0.820106  s :     0.820106
      pz      :     0.003974  p :     0.018605
      px      :     0.003324
      py      :     0.011307

 27 H s       :     0.831943  s :     0.831943
      pz      :     0.011785  p :     0.018545
      px      :     0.003309
      py      :     0.003451

 28 H s       :     0.851596  s :     0.851596
      pz      :     0.003963  p :     0.018379
      px      :     0.003329
      py      :     0.011087

 29 H s       :     0.853146  s :     0.853146
      pz      :     0.011527  p :     0.018394
      px      :     0.003392
      py      :     0.003475

 30 H s       :     0.840292  s :     0.840292
      pz      :     0.004663  p :     0.018468
      px      :     0.009035
      py      :     0.004771

 31 H s       :     0.844895  s :     0.844895
      pz      :     0.011056  p :     0.018261
      px      :     0.003668
      py      :     0.003537

 32 H s       :     0.842781  s :     0.842781
      pz      :     0.004229  p :     0.018253
      px      :     0.003443
      py      :     0.010582

 33 H s       :     0.827999  s :     0.827999
      pz      :     0.006056  p :     0.019949
      px      :     0.004107
      py      :     0.009786

 34 H s       :     0.836111  s :     0.836111
      pz      :     0.012882  p :     0.019623
      px      :     0.003981
      py      :     0.002760

 35 H s       :     0.834532  s :     0.834532
      pz      :     0.004638  p :     0.019608
      px      :     0.003783
      py      :     0.011187

 36 H s       :     0.835074  s :     0.835074
      pz      :     0.005963  p :     0.019644
      px      :     0.004046
      py      :     0.009635

 37 H s       :     0.826422  s :     0.826422
      pz      :     0.013209  p :     0.019976
      px      :     0.003879
      py      :     0.002888



                     *******************************
                     * LOEWDIN POPULATION ANALYSIS *
                     *******************************

----------------------
LOEWDIN ATOMIC CHARGES
----------------------
   0 C :   -0.325830
   1 C :   -0.305632
   2 C :   -0.305963
   3 C :   -0.414180
   4 P :    0.601170
   5 C :   -0.416375
   6 C :   -0.305645
   7 C :   -0.305674
   8 C :   -0.325666
   9 C :   -0.285196
  10 C :   -0.142348
  11 C :   -0.144881
  12 C :   -0.141051
  13 C :   -0.142964
  14 C :   -0.146730
  15 H :    0.121452
  16 H :    0.122526
  17 H :    0.122015
  18 H :    0.136445
  19 H :    0.136126
  20 H :    0.144150
  21 H :    0.140139
  22 H :    0.127713
  23 H :    0.135315
  24 H :    0.126351
  25 H :    0.135927
  26 H :    0.143964
  27 H :    0.140454
  28 H :    0.136194
  29 H :    0.136225
  30 H :    0.121476
  31 H :    0.122109
  32 H :    0.122544
  33 H :    0.146176
  34 H :    0.146944
  35 H :    0.146947
  36 H :    0.147344
  37 H :    0.148428

-------------------------------
LOEWDIN REDUCED ORBITAL CHARGES
-------------------------------
  0 C s       :     2.845073  s :     2.845073
      pz      :     1.074339  p :     3.195455
      px      :     1.048546
      py      :     1.072570
      dz2     :     0.050550  d :     0.261183
      dxz     :     0.065272
      dyz     :     0.018735
      dx2y2   :     0.073237
      dxy     :     0.053388
      f0      :     0.003922  f :     0.024119
      f+1     :     0.002471
      f-1     :     0.001096
      f+2     :     0.003270
      f-2     :     0.004368
      f+3     :     0.004525
      f-3     :     0.004468

  1 C s       :     2.792173  s :     2.792173
      pz      :     1.028037  p :     3.076298
      px      :     1.020346
      py      :     1.027915
      dz2     :     0.100284  d :     0.399419
      dxz     :     0.077096
      dyz     :     0.028309
      dx2y2   :     0.118332
      dxy     :     0.075398
      f0      :     0.004616  f :     0.037742
      f+1     :     0.005660
      f-1     :     0.002361
      f+2     :     0.005815
      f-2     :     0.005865
      f+3     :     0.007418
      f-3     :     0.006006

  2 C s       :     2.790028  s :     2.790028
      pz      :     1.032494  p :     3.076024
      px      :     1.011877
      py      :     1.031654
      dz2     :     0.101385  d :     0.401899
      dxz     :     0.075910
      dyz     :     0.028379
      dx2y2   :     0.121224
      dxy     :     0.075001
      f0      :     0.004660  f :     0.038013
      f+1     :     0.005678
      f-1     :     0.002360
      f+2     :     0.005855
      f-2     :     0.005794
      f+3     :     0.007564
      f-3     :     0.006101

  3 C s       :     2.850711  s :     2.850711
      pz      :     1.072239  p :     3.192436
      px      :     1.060519
      py      :     1.059678
      dz2     :     0.081740  d :     0.343251
      dxz     :     0.080568
      dyz     :     0.028766
      dx2y2   :     0.090633
      dxy     :     0.061543
      f0      :     0.004310  f :     0.027782
      f+1     :     0.003930
      f-1     :     0.001586
      f+2     :     0.003612
      f-2     :     0.004144
      f+3     :     0.005383
      f-3     :     0.004816

  4 P s       :     4.968026  s :     4.968026
      pz      :     3.338185  p :     8.849126
      px      :     2.765492
      py      :     2.745450
      dz2     :     0.075244  d :     0.484922
      dxz     :     0.084762
      dyz     :     0.087519
      dx2y2   :     0.115197
      dxy     :     0.122199
      f0      :     0.008023  f :     0.096756
      f+1     :     0.011102
      f-1     :     0.010171
      f+2     :     0.019241
      f-2     :     0.018520
      f+3     :     0.015453
      f-3     :     0.014247

  5 C s       :     2.850203  s :     2.850203
      pz      :     1.067049  p :     3.195262
      px      :     1.068907
      py      :     1.059307
      dz2     :     0.087137  d :     0.343106
      dxz     :     0.071199
      dyz     :     0.029715
      dx2y2   :     0.094850
      dxy     :     0.060203
      f0      :     0.004541  f :     0.027805
      f+1     :     0.003585
      f-1     :     0.001350
      f+2     :     0.004072
      f-2     :     0.004571
      f+3     :     0.005338
      f-3     :     0.004347

  6 C s       :     2.789877  s :     2.789877
      pz      :     1.032619  p :     3.075975
      px      :     1.012289
      py      :     1.031067
      dz2     :     0.104801  d :     0.401774
      dxz     :     0.066677
      dyz     :     0.028694
      dx2y2   :     0.122708
      dxy     :     0.078894
      f0      :     0.004725  f :     0.038019
      f+1     :     0.005439
      f-1     :     0.001843
      f+2     :     0.005693
      f-2     :     0.006359
      f+3     :     0.008091
      f-3     :     0.005869

  7 C s       :     2.792161  s :     2.792161
      pz      :     1.028979  p :     3.076198
      px      :     1.018393
      py      :     1.028825
      dz2     :     0.103962  d :     0.399570
      dxz     :     0.067647
      dyz     :     0.029077
      dx2y2   :     0.119360
      dxy     :     0.079524
      f0      :     0.004771  f :     0.037745
      f+1     :     0.005350
      f-1     :     0.001840
      f+2     :     0.005620
      f-2     :     0.006358
      f+3     :     0.007997
      f-3     :     0.005809

  8 C s       :     2.845044  s :     2.845044
      pz      :     1.074045  p :     3.195379
      px      :     1.050113
      py      :     1.071221
      dz2     :     0.064588  d :     0.261127
      dxz     :     0.046927
      dyz     :     0.021545
      dx2y2   :     0.078455
      dxy     :     0.049611
      f0      :     0.004023  f :     0.024117
      f+1     :     0.002258
      f-1     :     0.001150
      f+2     :     0.003815
      f-2     :     0.004391
      f+3     :     0.004158
      f-3     :     0.004322

  9 C s       :     2.783271  s :     2.783271
      pz      :     1.078403  p :     3.003963
      px      :     0.874148
      py      :     1.051411
      dz2     :     0.117840  d :     0.453228
      dxz     :     0.066974
      dyz     :     0.166972
      dx2y2   :     0.056979
      dxy     :     0.044463
      f0      :     0.007101  f :     0.044735
      f+1     :     0.005300
      f-1     :     0.016106
      f+2     :     0.004932
      f-2     :     0.004141
      f+3     :     0.003448
      f-3     :     0.003707

 10 C s       :     2.775792  s :     2.775792
      pz      :     1.035865  p :     2.942256
      px      :     0.887577
      py      :     1.018814
      dz2     :     0.089612  d :     0.383653
      dxz     :     0.054693
      dyz     :     0.159831
      dx2y2   :     0.042914
      dxy     :     0.036604
      f0      :     0.006817  f :     0.040647
      f+1     :     0.005386
      f-1     :     0.013618
      f+2     :     0.004685
      f-2     :     0.002449
      f+3     :     0.003754
      f-3     :     0.003938

 11 C s       :     2.778683  s :     2.778683
      pz      :     0.991027  p :     2.949727
      px      :     0.892257
      py      :     1.066443
      dz2     :     0.114689  d :     0.375901
      dxz     :     0.015384
      dyz     :     0.100857
      dx2y2   :     0.068770
      dxy     :     0.076202
      f0      :     0.003933  f :     0.040571
      f+1     :     0.000712
      f-1     :     0.013068
      f+2     :     0.006387
      f-2     :     0.006855
      f+3     :     0.004120
      f-3     :     0.005495

 12 C s       :     2.779095  s :     2.779095
      pz      :     1.052661  p :     2.946780
      px      :     0.888478
      py      :     1.005641
      dz2     :     0.102947  d :     0.374625
      dxz     :     0.063762
      dyz     :     0.135504
      dx2y2   :     0.047157
      dxy     :     0.025254
      f0      :     0.007004  f :     0.040551
      f+1     :     0.005313
      f-1     :     0.013486
      f+2     :     0.004492
      f-2     :     0.003891
      f+3     :     0.002518
      f-3     :     0.003848

 13 C s       :     2.778732  s :     2.778732
      pz      :     1.042295  p :     2.949758
      px      :     0.890426
      py      :     1.017038
      dz2     :     0.089850  d :     0.374049
      dxz     :     0.054649
      dyz     :     0.151402
      dx2y2   :     0.042152
      dxy     :     0.035996
      f0      :     0.006946  f :     0.040424
      f+1     :     0.005508
      f-1     :     0.013345
      f+2     :     0.004617
      f-2     :     0.002399
      f+3     :     0.003642
      f-3     :     0.003969

 14 C s       :     2.780014  s :     2.780014
      pz      :     0.994658  p :     2.943208
      px      :     0.880227
      py      :     1.068323
      dz2     :     0.118586  d :     0.383055
      dxz     :     0.015092
      dyz     :     0.101251
      dx2y2   :     0.072223
      dxy     :     0.075903
      f0      :     0.003899  f :     0.040454
      f+1     :     0.000656
      f-1     :     0.013150
      f+2     :     0.006356
      f-2     :     0.006734
      f+3     :     0.004156
      f-3     :     0.005502

 15 H s       :     0.820872  s :     0.820872
      pz      :     0.018037  p :     0.057677
      px      :     0.022230
      py      :     0.017410

 16 H s       :     0.819963  s :     0.819963
      pz      :     0.014064  p :     0.057511
      px      :     0.011555
      py      :     0.031892

 17 H s       :     0.820516  s :     0.820516
      pz      :     0.032447  p :     0.057469
      px      :     0.012931
      py      :     0.012091

 18 H s       :     0.808529  s :     0.808529
      pz      :     0.030882  p :     0.055026
      px      :     0.012359
      py      :     0.011785

 19 H s       :     0.808893  s :     0.808893
      pz      :     0.013520  p :     0.054981
      px      :     0.011319
      py      :     0.030142

 20 H s       :     0.799648  s :     0.799648
      pz      :     0.013633  p :     0.056202
      px      :     0.011177
      py      :     0.031391

 21 H s       :     0.804373  s :     0.804373
      pz      :     0.031565  p :     0.055488
      px      :     0.011954
      py      :     0.011969

 22 H s       :     0.813151  s :     0.813151
      pz      :     0.033530  p :     0.059136
      px      :     0.013310
      py      :     0.012296

 23 H s       :     0.806013  s :     0.806013
      pz      :     0.014094  p :     0.058672
      px      :     0.012682
      py      :     0.031896

 24 H s       :     0.814410  s :     0.814410
      pz      :     0.034125  p :     0.059239
      px      :     0.012740
      py      :     0.012375

 25 H s       :     0.805366  s :     0.805366
      pz      :     0.014360  p :     0.058707
      px      :     0.012980
      py      :     0.031367

 26 H s       :     0.799813  s :     0.799813
      pz      :     0.013968  p :     0.056223
      px      :     0.011273
      py      :     0.030981

 27 H s       :     0.804029  s :     0.804029
      pz      :     0.032387  p :     0.055517
      px      :     0.011177
      py      :     0.011954

 28 H s       :     0.808817  s :     0.808817
      pz      :     0.013851  p :     0.054988
      px      :     0.011369
      py      :     0.029768

 29 H s       :     0.808778  s :     0.808778
      pz      :     0.031725  p :     0.054997
      px      :     0.011479
      py      :     0.011793

 30 H s       :     0.820841  s :     0.820841
      pz      :     0.015712  p :     0.057683
      px      :     0.025636
      py      :     0.016336

 31 H s       :     0.820401  s :     0.820401
      pz      :     0.033515  p :     0.057490
      px      :     0.011916
      py      :     0.012060

 32 H s       :     0.819940  s :     0.819940
      pz      :     0.014386  p :     0.057516
      px      :     0.011645
      py      :     0.031486

 33 H s       :     0.797620  s :     0.797620
      pz      :     0.017424  p :     0.056204
      px      :     0.012757
      py      :     0.026023

 34 H s       :     0.797326  s :     0.797326
      pz      :     0.033280  p :     0.055729
      px      :     0.012391
      py      :     0.010058

 35 H s       :     0.797282  s :     0.797282
      pz      :     0.014405  p :     0.055771
      px      :     0.011881
      py      :     0.029486

 36 H s       :     0.796863  s :     0.796863
      pz      :     0.017433  p :     0.055793
      px      :     0.012515
      py      :     0.025845

 37 H s       :     0.795253  s :     0.795253
      pz      :     0.034241  p :     0.056320
      px      :     0.012205
      py      :     0.009874



                      *****************************
                      * MAYER POPULATION ANALYSIS *
                      *****************************

  NA   - Mulliken gross atomic population
  ZA   - Total nuclear charge
  QA   - Mulliken gross atomic charge
  VA   - Mayer's total valence
  BVA  - Mayer's bonded valence
  FA   - Mayer's free valence

  ATOM       NA         ZA         QA         VA         BVA        FA
  0 C      6.4300     6.0000    -0.4300     3.8537     3.8537    -0.0000
  1 C      6.2331     6.0000    -0.2331     3.7839     3.7839    -0.0000
  2 C      6.2911     6.0000    -0.2911     3.7186     3.7186    -0.0000
  3 C      6.4084     6.0000    -0.4084     3.7791     3.7791    -0.0000
  4 P     14.8085    15.0000     0.1915     3.0311     3.0311    -0.0000
  5 C      6.4228     6.0000    -0.4228     3.7748     3.7748     0.0000
  6 C      6.2886     6.0000    -0.2886     3.7056     3.7056    -0.0000
  7 C      6.2321     6.0000    -0.2321     3.7810     3.7810     0.0000
  8 C      6.4294     6.0000    -0.4294     3.8551     3.8551    -0.0000
  9 C      6.1135     6.0000    -0.1135     3.7237     3.7237     0.0000
 10 C      6.1510     6.0000    -0.1510     3.8381     3.8381    -0.0000
 11 C      6.1718     6.0000    -0.1718     4.0228     4.0228    -0.0000
 12 C      6.1313     6.0000    -0.1313     3.9245     3.9245    -0.0000
 13 C      6.1551     6.0000    -0.1551     3.9614     3.9614    -0.0000
 14 C      6.0959     6.0000    -0.0959     3.8795     3.8795     0.0000
 15 H      0.8588     1.0000     0.1412     0.9585     0.9585     0.0000
 16 H      0.8611     1.0000     0.1389     0.9564     0.9564    -0.0000
 17 H      0.8632     1.0000     0.1368     0.9559     0.9559    -0.0000
 18 H      0.8703     1.0000     0.1297     0.9501     0.9501    -0.0000
 19 H      0.8702     1.0000     0.1298     0.9510     0.9510     0.0000
 20 H      0.8386     1.0000     0.1614     0.9491     0.9491    -0.0000
 21 H      0.8521     1.0000     0.1479     0.9573     0.9573    -0.0000
 22 H      0.8367     1.0000     0.1633     0.9465     0.9465     0.0000
 23 H      0.8405     1.0000     0.1595     0.9558     0.9558    -0.0000
 24 H      0.8358     1.0000     0.1642     0.9460     0.9460     0.0000
 25 H      0.8374     1.0000     0.1626     0.9568     0.9568     0.0000
 26 H      0.8387     1.0000     0.1613     0.9504     0.9504     0.0000
 27 H      0.8505     1.0000     0.1495     0.9574     0.9574    -0.0000
 28 H      0.8700     1.0000     0.1300     0.9509     0.9509     0.0000
 29 H      0.8715     1.0000     0.1285     0.9503     0.9503     0.0000
 30 H      0.8588     1.0000     0.1412     0.9585     0.9585     0.0000
 31 H      0.8632     1.0000     0.1368     0.9560     0.9560     0.0000
 32 H      0.8610     1.0000     0.1390     0.9563     0.9563     0.0000
 33 H      0.8479     1.0000     0.1521     0.9655     0.9655     0.0000
 34 H      0.8557     1.0000     0.1443     0.9659     0.9659    -0.0000
 35 H      0.8541     1.0000     0.1459     0.9635     0.9635    -0.0000
 36 H      0.8547     1.0000     0.1453     0.9651     0.9651     0.0000
 37 H      0.8464     1.0000     0.1536     0.9784     0.9784     0.0000

  Mayer bond orders larger than 0.100000
B(  0-C ,  1-C ) :   0.9508 B(  0-C , 15-H ) :   0.9805 B(  0-C , 16-H ) :   0.9742 
B(  0-C , 17-H ) :   0.9733 B(  1-C ,  2-C ) :   0.9327 B(  1-C , 18-H ) :   0.9738 
B(  1-C , 19-H ) :   0.9753 B(  2-C ,  3-C ) :   0.9107 B(  2-C , 20-H ) :   0.9687 
B(  2-C , 21-H ) :   0.9682 B(  3-C ,  4-P ) :   0.9637 B(  3-C , 22-H ) :   0.9699 
B(  3-C , 23-H ) :   0.9494 B(  4-P ,  5-C ) :   0.9640 B(  4-P ,  9-C ) :   0.9374 
B(  5-C ,  6-C ) :   0.9020 B(  5-C , 24-H ) :   0.9727 B(  5-C , 25-H ) :   0.9505 
B(  6-C ,  7-C ) :   0.9299 B(  6-C , 26-H ) :   0.9730 B(  6-C , 27-H ) :   0.9669 
B(  7-C ,  8-C ) :   0.9520 B(  7-C , 28-H ) :   0.9750 B(  7-C , 29-H ) :   0.9733 
B(  8-C , 30-H ) :   0.9804 B(  8-C , 31-H ) :   0.9733 B(  8-C , 32-H ) :   0.9741 
B(  9-C , 10-C ) :   1.2876 B(  9-C , 14-C ) :   1.4023 B( 10-C , 11-C ) :   1.4912 
B( 10-C , 33-H ) :   0.9345 B( 11-C , 12-C ) :   1.4274 B( 11-C , 34-H ) :   0.9430 
B( 12-C , 13-C ) :   1.4499 B( 12-C , 35-H ) :   0.9462 B( 13-C , 14-C ) :   1.4481 
B( 13-C , 36-H ) :   0.9477 B( 14-C , 37-H ) :   0.9269 

-------
TIMINGS
-------

Total SCF time: 0 days 0 hours 1 min 26 sec 

Total time                  ....      86.191 sec
Sum of individual times     ....      86.224 sec  (100.0%)

SCF preparation             ....       0.240 sec  (  0.3%)
Fock matrix formation       ....      83.362 sec  ( 96.7%)
  Startup                   ....       0.094 sec  (  0.1% of F)
  Split-RI-J                ....       5.546 sec  (  6.7% of F)
  Chain of spheres X        ....      58.059 sec  ( 69.6% of F)
  XC integration            ....      19.405 sec  ( 23.3% of F)
    Basis function eval.    ....       3.122 sec  ( 16.1% of XC)
    Density eval.           ....       7.979 sec  ( 41.1% of XC)
    XC-Functional eval.     ....       0.455 sec  (  2.3% of XC)
    XC-Potential eval.      ....       6.781 sec  ( 34.9% of XC)
Diagonalization             ....       0.000 sec  (  0.0%)
Density matrix formation    ....       0.247 sec  (  0.3%)
Total Energy calculation    ....       0.085 sec  (  0.1%)
Population analysis         ....       0.146 sec  (  0.2%)
Orbital Transformation      ....       0.309 sec  (  0.4%)
Orbital Orthonormalization  ....       0.000 sec  (  0.0%)
DIIS solution               ....       1.247 sec  (  1.4%)
SOSCF solution              ....       0.588 sec  (  0.7%)
Finished LeanSCF after  86.2 sec

Maximum memory used throughout the entire LEANSCF-calculation: 80.9 MB


-------------------------------------------------------------------------------
                          DFT DISPERSION CORRECTION                            
                                                                               
                              DFTD3 V3.1  Rev 1                                
                              USING zero damping                               
-------------------------------------------------------------------------------
The M062X functional is recognized
Active option DFTDOPT                   ...         3   

molecular C6(AA) [au] = 13635.610149 


            DFT-D V3
 parameters
 s6 scaling factor         :     1.0000 
 rs6 scaling factor        :     1.6190 
 s8 scaling factor         :     0.0000 
 rs8 scaling factor        :     1.0000 
 Damping factor alpha6     :    14.0000 
 Damping factor alpha8     :    16.0000 
 ad hoc parameters k1-k3   :    16.0000     1.3333    -4.0000 

 Edisp/kcal,au: -1.263744342313  -0.002013904586 
 E6   /kcal   :  -1.263744342 
 E8   /kcal   :  -0.000000000 
 % E8         :   0.000000000 

-------------------------   ----------------
Dispersion correction           -0.002013905
-------------------------   ----------------


-------------------------   --------------------
FINAL SINGLE POINT ENERGY      -888.627159116643
-------------------------   --------------------



           ************************************************************
           *        Program running with 6 parallel MPI-processes     *
           *              working on a common directory               *
           ************************************************************

------------------------------------------------------------------------------
                              ORCA PROPERTY CALCULATIONS
------------------------------------------------------------------------------

GBWName                                 ... data/single_point_P_M06-2x/80757/80757.gbw
Number of atoms                         ...     38
Number of basis functions               ...    609
Max core memory                         ...   1024 MB

Electric properties:
Dipole moment                           ... YES
Quadrupole moment                       ...  NO
Static polarizability (Dipole/Dipole)   ...  NO
Static polarizability (Dipole/Quad.)    ...  NO
Static polarizability (Quad./Quad.)     ...  NO
Static polarizability (Velocity)        ...  NO

Atomic electric properties:
Dipole moment                           ...  NO
Quadrupole moment                       ...  NO
Static polarizability                   ...  NO

Choice of electric origin               ... Center of mass
Position of electric origin             ...     0.034136    -0.402272    -0.207272

General magnetic properties:
Magnetizability                         ...  NO

EPR properties:
g-Tensor (aka g-matrix)                 ...  NO
Zero-Field splitting spin-orbit         ...  NO
Zero-field splitting spin-spin          ...  NO
Hyperfine couplings                     ...  NO (   0 nuclei)
Quadrupole couplings                    ...  NO (   0 nuclei)
Contact density                         ...  NO (   0 nuclei)

NMR properties:
Chemical shifts                         ...  NO (   0 nuclei)
Spin-rotation constants                 ...  NO (   0 nuclei)
Spin-spin couplings                     ...  NO (   0 nuclei,    0 pairs)

Choice of magnetic origin               ... GIAO
Position of magnetic origin             ...     0.000000     0.000000     0.000000

Properties with geometric perturbations:
SCF Hessian                             ...  NO
IR spectrum                             ...  NO
VCD spectrum                            ...  NO
X-ray spectroscopy properties:
SCF XES/XAS/RIXS spectra                ...  NO


-------------
DIPOLE MOMENT
-------------

Method             : SCF
Type of density    : Electron Density
Multiplicity       :   1
Irrep              :   0
Energy             :  -888.6251452120571912 Eh
Relativity type    : 
Basis              : AO
                                X                 Y                 Z
Electronic contribution:      0.644113080      -8.855146196      -3.503678813
Nuclear contribution   :     -0.678936480       8.835795967       3.986956641
                        -----------------------------------------
Total Dipole Moment    :     -0.034823400      -0.019350229       0.483277828
                        -----------------------------------------
Magnitude (a.u.)       :      0.484917065
Magnitude (Debye)      :      1.232561226



--------------------
Rotational spectrum 
--------------------
 
Rotational constants in cm-1:             0.019954             0.009786             0.007353 
Rotational constants in MHz :           598.200890           293.373895           220.423126 

Dipole components along the rotational axes: 
x,y,z [a.u.] :    -0.001969    -0.112011     0.471799 
x,y,z [Debye]:    -0.005005    -0.284709     1.199218 

 

Dipole moment calculation done in   0.0 sec 

Maximum memory used throughout the entire PROP-calculation: 41.9 MB

--------------------------------
SUGGESTED CITATIONS FOR THIS RUN
--------------------------------

Below you find a list of papers that are relevant to this ORCA run
We neither can nor want to force you to cite these papers, but we appreciate if you do
You receive ORCA, which is the product of decades of hard work by many enthusiastic individuals, for free
The only thing we kindly ask in return is that you cite our papers,
We deeply appreciate it, if you show your appreciation for ORCA by not just citing the generic ORCA reference.

Please note that relegating all ORCA citations to the supporting information does *not* help us.
SI sections are not indexed - citations you put there will not count into any citation statistics
But we need these citations in order to attract the funding resources that allow us to do what we are doing

Therefore, if you are a happy ORCA user, please consider citing a few of the papers listed below in the main body of your paper

In addition to the list printed below, the program has created the file data/single_point_P_M06-2x/80757/80757.bibtex that contains the list in bibtex format
You can import this file easily into all common literature databanks and citation aid programs


List of essential papers. We consider these as the minimum necessary citations

  1. Neese,F.
     Software update: the ORCA program system, version 5.0
     WIRES Comput. Molec. Sci., 2022 12(1)e1606
     doi.org/10.1002/wcms.1606

List of papers to cite with high priority. The work reported in these papers was absolutely
necessary for this run to complete.
Our perspective: the developers of density functionals and basis sets usually get cited in chemistry papers
Good! But without the algorithms to do something with them, the functionals or basis sets would not do anything.
Hence, in our opinion, the algorithm design and method developments papers are equally worthy of getting cited

  1. Neese,F.
     An improvement of the resolution of the identity approximation for the formation of the Coulomb matrix
     J. Comp. Chem., 2003 24(14)1740-1747
     doi.org/10.1002/jcc.10318
  2. Neese,F.; Wennmohs,F.; Hansen,A.; Becker,U.
     Efficient, approximate and parallel Hartree-Fock and hybrid DFT calculations. A 'chain-of-spheres' algorithm for the Hartree-Fock exchange
     Chem. Phys., 2009 356(1-3)98-109
     doi.org/10.1016/j.chemphys.2008.10.036
  3. Helmich-Paris,B.; de Souza,B.; Neese,F.; Izsák,R.
     An improved chain of spheres for exchange algorithm
     J. Chem. Phys., 2021 155 104109
     doi.org/doi: 10.1063/5.0058766.
  4. Neese,F.
     The SHARK Integral Generation and Digestion System
     J. Comp. Chem., 2022  1-16
     doi.org/10.1002/jcc.26942
  5. Grimme,S.; Antony,J.; Ehrlich,S.; Krieg,H.
     A consistent and accurate ab initio parametrization of density functional dispersion correction (DFT-D) for the 94 elements H-Pu
     J. Chem. Phys., 2010 132 154104-XXXX
     doi.org/10.1063/1.3382344

List of suggested additional citations. These are papers that are important in the 'surrounding' of 
of this run, or papers that preceded the highly important papers. If you like your results we are grateful for a citation.

  1. Izsak,R.; Neese,F.
     An overlap fitted chain of spheres exchange method
     J. Chem. Phys., 2011 135 144105
     doi.org/10.1063/1.3646921
  2. Izsak,R.; Hansen,A.; Neese,F.
     The resolution of identity and chain of spheres approximations for the LPNO-CCSD singles Fock term
     Molec. Phys., 2012 110 2413-2417
     doi.org/10.1080/00268976.2012.687466
  3. Neese,F.
     The ORCA program system
     WIRES Comput. Molec. Sci., 2012 2(1)73-78
     doi.org/10.1002/wcms.81
  4. Izsak,R.; Neese,F.; Klopper,W.
     Robust fitting techniques in the chain of spheres approximation to the Fock exchange: The role of the complementary space
     J. Chem. Phys., 2013 139 
     doi.org/10.1063/1.4819264
  5. Neese,F.
     Software update: the ORCA program system, version 4.0
     WIRES Comput. Molec. Sci., 2018 8(1)1-6
     doi.org/10.1002/wcms.1327
  6. Neese,F.; Wennmohs,F.; Becker,U.; Riplinger,C.
     The ORCA quantum chemistry program package
     J. Chem. Phys., 2020 152 Art. No. L224108
     doi.org/10.1063/5.0004608

List of optional additional citations

  1. Neese,F.
     Approximate second-order SCF convergence for spin unrestricted wavefunctions
     Chem. Phys. Lett., 2000 325(1-3)93-98
     doi.org/10.1016/s0009-2614(00)00662-x

Timings for individual modules:

Sum of individual times          ...       90.797 sec (=   1.513 min)
Startup calculation              ...        2.931 sec (=   0.049 min)   3.2 %
SCF iterations                   ...       87.625 sec (=   1.460 min)  96.5 %
Property calculations            ...        0.241 sec (=   0.004 min)   0.3 %
                             ****ORCA TERMINATED NORMALLY****
TOTAL RUN TIME: 0 days 0 hours 1 minutes 31 seconds 71 msec
