
                                 *****************
                                 * O   R   C   A *
                                 *****************

                                            #,                                       
                                            ###                                      
                                            ####                                     
                                            #####                                    
                                            ######                                   
                                           ########,                                 
                                     ,,################,,,,,                         
                               ,,#################################,,                 
                          ,,##########################################,,             
                       ,#########################################, ''#####,          
                    ,#############################################,,   '####,        
                  ,##################################################,,,,####,       
                ,###########''''           ''''###############################       
              ,#####''   ,,,,##########,,,,          '''####'''          '####       
            ,##' ,,,,###########################,,,                        '##       
           ' ,,###''''                  '''############,,,                           
         ,,##''                                '''############,,,,        ,,,,,,###''
      ,#''                                            '''#######################'''  
     '                                                          ''''####''''         
             ,#######,   #######,   ,#######,      ##                                
            ,#'     '#,  ##    ##  ,#'     '#,    #''#        ,####,   ,####,        
            ##       ##  ##   ,#'  ##            #'  '#       #'       #'  '#        
            ##       ##  #######   ##           ,######,      #####,   #    #        
            '#,     ,#'  ##    ##  '#,     ,#' ,#      #,     #,   #   #,  ,#        
             '#######'   ##     ##  '#######'  #'      '#     '####' # '####'        



                #########################################################
                #                        -***-                          #
                #          Department of theory and spectroscopy        #
                #                                                       #
                #                      Frank Neese                      #
                #                                                       #
                #     Directorship, Architecture, Infrastructure        #
                #                    SHARK, DRIVERS                     #
                #        Core code/Algorithms in most modules           #
                #                                                       #
                #        Max Planck Institute fuer Kohlenforschung      #
                #                Kaiser Wilhelm Platz 1                 #
                #                 D-45470 Muelheim/Ruhr                 #
                #                      Germany                          #
                #                                                       #
                #                  All rights reserved                  #
                #                        -***-                          #
                #########################################################


                         Program Version 6.0.0  -   RELEASE   -


 With contributions from (in alphabetic order):
   Daniel Aravena         : Magnetic Suceptibility
   Michael Atanasov       : Ab Initio Ligand Field Theory (pilot matlab implementation)
   Alexander A. Auer      : GIAO ZORA, VPT2 properties, NMR spectrum
   Ute Becker             : All parallelization in ORCA, NUMFREQ, NUMCALC
   Giovanni Bistoni       : ED, misc. LED, open-shell LED, HFLD
   Martin Brehm           : Molecular dynamics
   Dmytro Bykov           : pre 5.0 version of the SCF Hessian
   Marcos Casanova-Páez   : Triplet and SCS-CIS(D). UHF-(DLPNO)-IP/EA/STEOM-CCSD. UHF-CVS-IP/STEOM-CCSD
   Vijay G. Chilkuri      : MRCI spin determinant printing, contributions to CSF-ICE
   Pauline Colinet        : FMM embedding
   Dipayan Datta          : RHF DLPNO-CCSD density
   Achintya Kumar Dutta   : EOM-CC, STEOM-CC
   Nicolas Foglia         : Exact transition moments, OPA infrastructure, MCD improvements
   Dmitry Ganyushin       : Spin-Orbit,Spin-Spin,Magnetic field MRCI
   Miquel Garcia          : C-PCM and meta-GGA Hessian, CCSD/C-PCM, Gaussian charge scheme
   Tiago L. C. Gouveia    : GS-ROHF, GS-ROCIS
   Yang Guo               : DLPNO-NEVPT2, F12-NEVPT2, CIM, IAO-localization
   Andreas Hansen         : Spin unrestricted coupled pair/coupled cluster methods
   Ingolf Harden          : AUTO-CI MPn and infrastructure 
   Benjamin Helmich-Paris : MC-RPA, TRAH-(SCF,CASSCF), AVAS, COSX integrals, SCF dyn. polar.
   Lee Huntington         : MR-EOM, pCC
   Robert Izsak           : Overlap fitted RIJCOSX, COSX-SCS-MP3, EOM
   Riya Kayal             : Wick's Theorem for AUTO-CI, AUTO-CI UHF-CCSDT
   Emily Kempfer          : AUTO-CI, RHF CISDT and CCSDT
   Christian Kollmar      : KDIIS, OOCD, Brueckner-CCSD(T), CCSD density, CASPT2, CASPT2-K, improved NEVPT2
   Axel Koslowski         : Symmetry handling
   Simone Kossmann        : Meta GGA functionals, TD-DFT gradient, OOMP2, (MP2 Hessian; deprecated post 5.0)
   Lucas Lang             : DCDCAS
   Marvin Lechner         : AUTO-CI (C++ implementation), FIC-MRCC
   Spencer Leger          : CASSCF response
   Dagmar Lenk            : GEPOL surface, SMD, ORCA-2-JSON
   Dimitrios Liakos       : Extrapolation schemes; Compound Job, initial MDCI parallelization
   Dimitrios Manganas     : Further ROCIS development; embedding schemes. LFT, Crystal Embedding
   Dimitrios Pantazis     : SARC Basis sets
   Anastasios Papadopoulos: AUTO-CI, single reference methods and gradients
   Taras Petrenko         : pre 6.0 DFT Hessian and TD-DFT gradient, (ASA, deprecated), ECA, 1-Electron XAS/XES, NRVS
   Peter Pinski           : DLPNO-MP2, DLPNO-MP2 Gradient
   Christoph Reimann      : Effective Core Potentials
   Marius Retegan         : Local ZFS, SOC
   Christoph Riplinger    : Optimizer, TS searches, QM/MM, DLPNO-CCSD(T), (RO)-DLPNO pert. Triples
   Michael Roemelt        : Original ROCIS implementation
   Masaaki Saitow         : Open-shell DLPNO-CCSD energy and density
   Barbara Sandhoefer     : DKH picture change effects
   Kantharuban Sivalingam : CASSCF convergence/infrastructure, NEVPT2 and variants, FIC-MRCI
   Bernardo de Souza      : ESD, SOC TD-DFT
   Georgi Stoychev        : AutoAux, RI-MP2 NMR, DLPNO-MP2 response, X2C
   Van Anh Tran           : RI-MP2 g-tensors
   Willem Van den Heuvel  : Paramagnetic NMR
   Zikuan Wang            : NOTCH, Electric field optimization 
   Frank Wennmohs         : Technical directorship and infrastructure
   Hang Xu                : AUTO-CI-Response properties 


 We gratefully acknowledge several colleagues who have allowed us to
 interface, adapt or use parts of their codes:
   Stefan Grimme, W. Hujo, H. Kruse, P. Pracht,  : VdW corrections, initial TS optimization,
                  C. Bannwarth, S. Ehlert,         DFT functionals, gCP, sTDA/sTD-DF
                  L. Wittmann, M. Mueller
   Ed Valeev, F. Pavosevic, A. Kumar             : LibInt (2-el integral package), F12 methods
   Garnet Chan, S. Sharma, J. Yang, R. Olivares  : DMRG
   Ulf Ekstrom                                   : XCFun DFT Library
   Mihaly Kallay                                 : mrcc  (arbitrary order and MRCC methods)
   Frank Weinhold                                : gennbo (NPA and NBO analysis)
   Simon Mueller                                 : openCOSMO-RS
   Christopher J. Cramer and Donald G. Truhlar   : smd solvation model
   Lars Goerigk                                  : TD-DFT with DH, B97 family of functionals
   V. Asgeirsson, H. Jonsson                     : NEB implementation
   FAccTs GmbH                                   : IRC, NEB, NEB-TS, DLPNO-Multilevel, CI-OPT
                                                   MM, QMMM, 2- and 3-layer-ONIOM, Crystal-QMMM,
                                                   LR-CPCM, SF, NACMEs, symmetry and pop. for TD-DFT,
                                                   nearIR, NL-DFT gradient (VV10), updates on ESD,
                                                   ML-optimized integration grids, MBIS, APM,
                                                   GOAT, DOCKER, SOLVATOR, interface openCOSMO-RS
   S Lehtola, MJT Oliveira, MAL Marques          : LibXC Library
   Liviu Ungur et al                             : ANISO software


 Your calculation uses the libint2 library for the computation of 2-el integrals
 For citations please refer to: http://libint.valeyev.net

 Your ORCA version has been built with support for libXC version: 6.2.2
 For citations please refer to: https://libxc.gitlab.io

 This ORCA versions uses:
   CBLAS   interface :  Fast vector & matrix operations
   LAPACKE interface :  Fast linear algebra routines
   Shared memory     :  Shared parallel matrices


Your calculation utilizes the atom-pairwise dispersion correction
with the Becke-Johnson damping scheme (D3BJ)


Warning: RI is on but no J-basis has been assigned. Assigning Def2/J (nothing to worry about!)
================================================================================

----- Orbital basis set information -----
Your calculation utilizes the basis: def2-SVP
   F. Weigend and R. Ahlrichs, Phys. Chem. Chem. Phys. 7, 3297 (2005).

----- AuxJ basis set information -----
Your calculation utilizes the auxiliary basis: def2/J
   F. Weigend, Phys. Chem. Chem. Phys. 8, 1057 (2006).

================================================================================
                                        WARNINGS
                       Please study these warnings very carefully!
================================================================================


WARNING: Geometry Optimization
  ===> : Switching off AutoStart
         For restart on a previous wavefunction, please use MOREAD

================================================================================
                                       INPUT FILE
================================================================================
NAME = data/geom_opt_PO_BP86/69597/69597.inp
|  1> ! RI BP86 def2-SVP D3BJ TIGHTSCF Opt
|  2> %pal
|  3> nprocs 6
|  4> end
|  5> 
|  6> * xyz 0 1
|  7> C     -2.186183    1.319927    0.391175
|  8> P     -1.331376    0.207040   -0.732834
|  9> O     -1.566801    0.643526   -2.157781
| 10> C     -2.147455   -1.367760   -0.438510
| 11> C      0.362500    0.077802   -0.235111
| 12> C      0.718169   -0.317317    1.061438
| 13> C      2.061167   -0.412135    1.431283
| 14> C      3.062057   -0.113039    0.509110
| 15> C      2.721694    0.280893   -0.782882
| 16> C      1.379495    0.375429   -1.151772
| 17> H     -3.243798    1.389028    0.121315
| 18> H     -2.118436    0.964737    1.423043
| 19> H     -1.748532    2.320583    0.337175
| 20> H     -1.684085   -2.152003   -1.043503
| 21> H     -2.080699   -1.654249    0.614566
| 22> H     -3.205043   -1.300549   -0.708953
| 23> H     -0.048019   -0.554823    1.795051
| 24> H      2.328343   -0.719459    2.439298
| 25> H      4.107712   -0.186716    0.796591
| 26> H      3.499855    0.515002   -1.504931
| 27> H      1.119434    0.684083   -2.163766
| 28> **                         ****END OF INPUT****
================================================================================

                       *****************************
                       * Geometry Optimization Run *
                       *****************************

Geometry optimization settings:
Update method            Update   .... BFGS
Choice of coordinates    CoordSys .... (2022) Redundant Internals
Initial Hessian          InHess   .... Almloef's Model
Max. no of cycles        MaxIter  .... 63

Convergence Tolerances:
Energy Change            TolE     ....  5.0000e-06 Eh
Max. Gradient            TolMAXG  ....  3.0000e-04 Eh/bohr
RMS Gradient             TolRMSG  ....  1.0000e-04 Eh/bohr
Max. Displacement        TolMAXD  ....  4.0000e-03 bohr
RMS Displacement         TolRMSD  ....  2.0000e-03 bohr
Strict Convergence                .... False

------------------------------------------------------------------------------
                        ORCA OPTIMIZATION COORDINATE SETUP
------------------------------------------------------------------------------

The optimization will be done in redundant internal coordinates (2022)
Making redundant internal coordinates   ...  (2022 redundants) done
Evaluating the initial hessian          ...  (Almloef) done
Evaluating the coordinates              ...  done
Calculating the B-matrix                .... done
Calculating the G-matrix                .... done
Diagonalizing the G-matrix              .... done
Small eigenvalue found = 2.214e-02
Small eigenvalue found = 2.906e-02
The first mode is                       ....   41
The number of degrees of freedom        ....   57

    -----------------------------------------------------------------
                    Redundant Internal Coordinates


    -----------------------------------------------------------------
         Definition                    Initial Value    Approx d2E/dq
    -----------------------------------------------------------------
      1. B(P   1,C   0)                  1.7979         0.469225   
      2. B(O   2,P   1)                  1.5088         1.215801   
      3. B(C   3,P   1)                  1.7979         0.469226   
      4. B(C   4,P   1)                  1.7702         0.519554   
      5. B(C   5,C   4)                  1.4013         0.599377   
      6. B(C   6,C   5)                  1.3962         0.610690   
      7. B(C   7,C   6)                  1.3934         0.616977   
      8. B(C   8,C   7)                  1.3929         0.618092   
      9. B(C   9,C   8)                  1.3952         0.613029   
     10. B(C   9,C   4)                  1.4011         0.599795   
     11. B(H  10,C   0)                  1.0937         0.355257   
     12. B(H  11,C   0)                  1.0934         0.355644   
     13. B(H  12,C   0)                  1.0935         0.355485   
     14. B(H  13,C   3)                  1.0935         0.355486   
     15. B(H  14,C   3)                  1.0934         0.355643   
     16. B(H  15,C   3)                  1.0937         0.355257   
     17. B(H  16,C   5)                  1.0870         0.364046   
     18. B(H  17,C   6)                  1.0872         0.363871   
     19. B(H  18,C   7)                  1.0870         0.364153   
     20. B(H  19,C   8)                  1.0871         0.364012   
     21. B(H  20,C   9)                  1.0895         0.360750   
     22. A(H  11,C   0,H  12)          108.6069         0.289685   
     23. A(P   1,C   0,H  12)          110.1979         0.357047   
     24. A(H  10,C   0,H  12)          108.4831         0.289635   
     25. A(P   1,C   0,H  11)          111.0666         0.357075   
     26. A(H  10,C   0,H  11)          108.2583         0.289655   
     27. A(P   1,C   0,H  10)          110.1579         0.357009   
     28. A(C   3,P   1,C   4)          108.9262         0.455411   
     29. A(O   2,P   1,C   4)          115.8472         0.540445   
     30. A(C   0,P   1,C   3)          102.9451         0.447058   
     31. A(C   0,P   1,C   4)          108.9261         0.455411   
     32. A(O   2,P   1,C   3)          109.7047         0.530154   
     33. A(C   0,P   1,O   2)          109.7047         0.530153   
     34. A(H  14,C   3,H  15)          108.2582         0.289655   
     35. A(P   1,C   3,H  15)          110.1579         0.357009   
     36. A(H  13,C   3,H  14)          108.6069         0.289685   
     37. A(P   1,C   3,H  14)          111.0665         0.357075   
     38. A(P   1,C   3,H  13)          110.1980         0.357048   
     39. A(H  13,C   3,H  15)          108.4831         0.289635   
     40. A(P   1,C   4,C   5)          121.5740         0.445959   
     41. A(C   5,C   4,C   9)          118.7503         0.428876   
     42. A(P   1,C   4,C   9)          119.6756         0.446015   
     43. A(C   6,C   5,H  16)          118.9713         0.352656   
     44. A(C   4,C   5,H  16)          120.4731         0.351543   
     45. A(C   4,C   5,C   6)          120.5557         0.430264   
     46. A(C   7,C   6,H  17)          119.8528         0.353240   
     47. A(C   5,C   6,H  17)          120.0788         0.352628   
     48. A(C   5,C   6,C   7)          120.0683         0.432506   
     49. A(C   6,C   7,H  18)          120.0938         0.353286   
     50. A(C   6,C   7,C   8)          119.9359         0.433444   
     51. A(C   8,C   7,H  18)          119.9703         0.353394   
     52. A(C   7,C   8,C   9)          119.9654         0.432944   
     53. A(C   9,C   8,H  19)          119.8971         0.352879   
     54. A(C   7,C   8,H  19)          120.1375         0.353371   
     55. A(C   4,C   9,C   8)          120.7244         0.430613   
     56. A(C   8,C   9,H  20)          119.6315         0.352342   
     57. A(C   4,C   9,H  20)          119.6441         0.351044   
     58. D(O   2,P   1,C   0,H  11)    174.0235         0.004749   
     59. D(O   2,P   1,C   0,H  12)    -65.5761         0.004749   
     60. D(C   3,P   1,C   0,H  12)    177.6926         0.004749   
     61. D(O   2,P   1,C   0,H  10)     54.0862         0.004749   
     62. D(C   3,P   1,C   0,H  11)     57.2922         0.004749   
     63. D(C   3,P   1,C   0,H  10)    -62.6451         0.004749   
     64. D(H  14,C   3,P   1,C   4)     58.2163         0.004749   
     65. D(H  13,C   3,P   1,C   0)   -177.6925         0.004749   
     66. D(H  13,C   3,P   1,C   4)    -62.1841         0.004749   
     67. D(H  14,C   3,P   1,O   2)   -174.0234         0.004749   
     68. D(H  14,C   3,P   1,C   0)    -57.2921         0.004749   
     69. D(H  13,C   3,P   1,O   2)     65.5762         0.004749   
     70. D(C   5,C   4,P   1,C   3)    -55.7938         0.005220   
     71. D(C   5,C   4,P   1,O   2)   -179.9999         0.005220   
     72. D(C   5,C   4,P   1,C   0)     55.7940         0.005220   
     73. D(C   9,C   4,P   1,O   2)      0.0000         0.005220   
     74. D(C   9,C   4,P   1,C   0)   -124.2061         0.005220   
     75. D(H  16,C   5,C   4,C   9)    180.0000         0.024763   
     76. D(H  16,C   5,C   4,P   1)     -0.0001         0.024763   
     77. D(C   6,C   5,C   4,C   9)      0.0001         0.024763   
     78. D(C   6,C   5,C   4,P   1)   -180.0000         0.024763   
     79. D(H  17,C   6,C   5,H  16)      0.0001         0.025760   
     80. D(H  17,C   6,C   5,C   4)   -180.0000         0.025760   
     81. D(C   7,C   6,C   5,H  16)    180.0000         0.025760   
     82. D(C   7,C   6,C   5,C   4)     -0.0001         0.025760   
     83. D(H  18,C   7,C   6,H  17)     -0.0001         0.026325   
     84. D(H  18,C   7,C   6,C   5)    180.0000         0.026325   
     85. D(C   8,C   7,C   6,H  17)    180.0000         0.026325   
     86. D(C   8,C   7,C   6,C   5)      0.0000         0.026325   
     87. D(C   9,C   8,C   7,H  18)   -179.9999         0.026426   
     88. D(C   9,C   8,C   7,C   6)      0.0000         0.026426   
     89. D(H  19,C   8,C   7,H  18)      0.0000         0.026426   
     90. D(H  19,C   8,C   7,C   6)    180.0000         0.026426   
     91. D(H  20,C   9,C   8,H  19)      0.0000         0.025970   
     92. D(H  20,C   9,C   8,C   7)   -180.0000         0.025970   
     93. D(C   4,C   9,C   8,H  19)   -180.0000         0.025970   
     94. D(C   4,C   9,C   8,C   7)     -0.0000         0.025970   
     95. D(H  20,C   9,C   4,C   5)    180.0000         0.024800   
     96. D(H  20,C   9,C   4,P   1)      0.0000         0.024800   
     97. D(C   8,C   9,C   4,C   5)      0.0000         0.024800   
     98. D(C   8,C   9,C   4,P   1)   -180.0000         0.024800   
    -----------------------------------------------------------------

Number of atoms                         .... 21
Number of degrees of freedom            .... 98


         *************************************************************
         *                GEOMETRY OPTIMIZATION CYCLE   1            *
         *************************************************************
---------------------------------
CARTESIAN COORDINATES (ANGSTROEM)
---------------------------------
  C     -2.186183    1.319927    0.391175
  P     -1.331376    0.207040   -0.732834
  O     -1.566801    0.643526   -2.157781
  C     -2.147455   -1.367760   -0.438510
  C      0.362500    0.077802   -0.235111
  C      0.718169   -0.317317    1.061438
  C      2.061167   -0.412135    1.431283
  C      3.062057   -0.113039    0.509110
  C      2.721694    0.280893   -0.782882
  C      1.379495    0.375429   -1.151772
  H     -3.243798    1.389028    0.121315
  H     -2.118436    0.964737    1.423043
  H     -1.748532    2.320583    0.337175
  H     -1.684085   -2.152003   -1.043503
  H     -2.080699   -1.654249    0.614566
  H     -3.205043   -1.300549   -0.708953
  H     -0.048019   -0.554823    1.795051
  H      2.328343   -0.719459    2.439298
  H      4.107712   -0.186716    0.796591
  H      3.499855    0.515002   -1.504931
  H      1.119434    0.684083   -2.163766

----------------------------
CARTESIAN COORDINATES (A.U.)
----------------------------
  NO LB      ZA    FRAG     MASS         X           Y           Z
   0 C     6.0000    0    12.011   -4.131287    2.494301    0.739214
   1 P    15.0000    0    30.974   -2.515936    0.391249   -1.384856
   2 O     8.0000    0    15.999   -2.960825    1.216088   -4.077615
   3 C     6.0000    0    12.011   -4.058102   -2.584692   -0.828664
   4 C     6.0000    0    12.011    0.685026    0.147024   -0.444295
   5 C     6.0000    0    12.011    1.357143   -0.599642    2.005827
   6 C     6.0000    0    12.011    3.895041   -0.778822    2.704733
   7 C     6.0000    0    12.011    5.786449   -0.213613    0.962078
   8 C     6.0000    0    12.011    5.143256    0.530811   -1.479433
   9 C     6.0000    0    12.011    2.606868    0.709458   -2.176534
  10 H     1.0000    0     1.008   -6.129890    2.624883    0.229252
  11 H     1.0000    0     1.008   -4.003264    1.823089    2.689162
  12 H     1.0000    0     1.008   -3.304247    4.385266    0.637168
  13 H     1.0000    0     1.008   -3.182459   -4.066696   -1.971935
  14 H     1.0000    0     1.008   -3.931951   -3.126078    1.161361
  15 H     1.0000    0     1.008   -6.056654   -2.457681   -1.339727
  16 H     1.0000    0     1.008   -0.090743   -1.048464    3.392155
  17 H     1.0000    0     1.008    4.399931   -1.359580    4.609605
  18 H     1.0000    0     1.008    7.762451   -0.352842    1.505339
  19 H     1.0000    0     1.008    6.613767    0.973213   -2.843907
  20 H     1.0000    0     1.008    2.115424    1.292730   -4.088925

--------------------------------
INTERNAL COORDINATES (ANGSTROEM)
--------------------------------
 C      0   0   0     0.000000000000     0.00000000     0.00000000
 P      1   0   0     1.797945692756     0.00000000     0.00000000
 O      2   1   0     1.508780604207   109.70472313     0.00000000
 C      2   1   3     1.797945102392   102.94512666   243.26870725
 C      2   1   3     1.770210876915   108.92613340   127.76025611
 C      5   2   1     1.401306094728   121.57403968    55.79399116
 C      6   5   2     1.396216102598   120.55566138   180.00001334
 C      7   6   5     1.393428236848   120.06834282     0.00000000
 C      8   7   6     1.392936725217   119.93590555     0.00000000
 C      9   8   7     1.395175631595   119.96537974     0.00000000
 H      1   2   3     1.093685903734   110.15787634    54.08616773
 H      1   2   3     1.093389757375   111.06658647   174.02351466
 H      1   2   3     1.093511238231   110.19787853   294.42388403
 H      4   2   1     1.093510571507   110.19795920   182.30750538
 H      4   2   1     1.093389853818   111.06653782   302.70788073
 H      4   2   1     1.093686020992   110.15789241    62.64510520
 H      6   5   2     1.087033203333   120.47306708     0.00000000
 H      7   6   5     1.087163877333   120.07884012   180.00000875
 H      8   7   6     1.086953543034   120.09378641   179.99999600
 H      9   8   7     1.087058565213   120.13752811   179.99997399
 H     10   9   8     1.089509463691   119.63152852   180.00000270

---------------------------
INTERNAL COORDINATES (A.U.)
---------------------------
 C      0   0   0     0.000000000000     0.00000000     0.00000000
 P      1   0   0     3.397624962972     0.00000000     0.00000000
 O      2   1   0     2.851182138123   109.70472313     0.00000000
 C      2   1   3     3.397623847347   102.94512666   243.26870725
 C      2   1   3     3.345213756658   108.92613340   127.76025611
 C      5   2   1     2.648084748831   121.57403968    55.79399116
 C      6   5   2     2.638466057680   120.55566138   180.00001334
 C      7   6   5     2.633197754915   120.06834282     0.00000000
 C      8   7   6     2.632268932540   119.93590555     0.00000000
 C      9   8   7     2.636499852435   119.96537974     0.00000000
 H      1   2   3     2.066766834587   110.15787634    54.08616773
 H      1   2   3     2.066207199074   111.06658647   174.02351466
 H      1   2   3     2.066436764621   110.19787853   294.42388403
 H      4   2   1     2.066435504696   110.19795920   182.30750538
 H      4   2   1     2.066207381325   111.06653782   302.70788073
 H      4   2   1     2.066767056174   110.15789241    62.64510520
 H      6   5   2     2.054195052779   120.47306708     0.00000000
 H      7   6   5     2.054441990851   120.07884012   180.00000875
 H      8   7   6     2.054044516630   120.09378641   179.99999600
 H      9   8   7     2.054242979786   120.13752811   179.99997399
 H     10   9   8     2.058874506692   119.63152852   180.00000270

---------------------
BASIS SET INFORMATION
---------------------
There are 4 groups of distinct atoms

 Group   1 Type C   : 7s4p1d contracted to 3s2p1d pattern {511/31/1}
 Group   2 Type P   : 10s7p1d contracted to 4s3p1d pattern {5311/511/1}
 Group   3 Type O   : 7s4p1d contracted to 3s2p1d pattern {511/31/1}
 Group   4 Type H   : 4s1p contracted to 2s1p pattern {31/1}

Atom   0C    basis set group =>   1
Atom   1P    basis set group =>   2
Atom   2O    basis set group =>   3
Atom   3C    basis set group =>   1
Atom   4C    basis set group =>   1
Atom   5C    basis set group =>   1
Atom   6C    basis set group =>   1
Atom   7C    basis set group =>   1
Atom   8C    basis set group =>   1
Atom   9C    basis set group =>   1
Atom  10H    basis set group =>   4
Atom  11H    basis set group =>   4
Atom  12H    basis set group =>   4
Atom  13H    basis set group =>   4
Atom  14H    basis set group =>   4
Atom  15H    basis set group =>   4
Atom  16H    basis set group =>   4
Atom  17H    basis set group =>   4
Atom  18H    basis set group =>   4
Atom  19H    basis set group =>   4
Atom  20H    basis set group =>   4
---------------------------------
AUXILIARY/J BASIS SET INFORMATION
---------------------------------
There are 4 groups of distinct atoms

 Group   1 Type C   : 12s5p4d2f1g contracted to 6s4p3d1f1g pattern {711111/2111/211/2/1}
 Group   2 Type P   : 14s5p5d2f1g contracted to 8s4p3d1f1g pattern {71111111/2111/311/2/1}
 Group   3 Type O   : 12s5p4d2f1g contracted to 6s4p3d1f1g pattern {711111/2111/211/2/1}
 Group   4 Type H   : 5s2p1d contracted to 3s1p1d pattern {311/2/1}

Atom   0C    basis set group =>   1
Atom   1P    basis set group =>   2
Atom   2O    basis set group =>   3
Atom   3C    basis set group =>   1
Atom   4C    basis set group =>   1
Atom   5C    basis set group =>   1
Atom   6C    basis set group =>   1
Atom   7C    basis set group =>   1
Atom   8C    basis set group =>   1
Atom   9C    basis set group =>   1
Atom  10H    basis set group =>   4
Atom  11H    basis set group =>   4
Atom  12H    basis set group =>   4
Atom  13H    basis set group =>   4
Atom  14H    basis set group =>   4
Atom  15H    basis set group =>   4
Atom  16H    basis set group =>   4
Atom  17H    basis set group =>   4
Atom  18H    basis set group =>   4
Atom  19H    basis set group =>   4
Atom  20H    basis set group =>   4


           ************************************************************
           *        Program running with 6 parallel MPI-processes     *
           *              working on a common directory               *
           ************************************************************
------------------------------------------------------------------------------
                             ORCA STARTUP CALCULATIONS
                           -- RI-GTO INTEGRALS CHOSEN --
------------------------------------------------------------------------------
------------------------------------------------------------------------------
                   ___                                                        
                  /   \      - P O W E R E D   B Y -                         
                 /     \                                                     
                 |  |  |   _    _      __       _____    __    __             
                 |  |  |  | |  | |    /  \     |  _  \  |  |  /  |          
                  \  \/   | |  | |   /    \    | | | |  |  | /  /          
                 / \  \   | |__| |  /  /\  \   | |_| |  |  |/  /          
                |  |  |   |  __  | /  /__\  \  |    /   |      \           
                |  |  |   | |  | | |   __   |  |    \   |  |\   \          
                \     /   | |  | | |  |  |  |  | |\  \  |  | \   \       
                 \___/    |_|  |_| |__|  |__|  |_| \__\ |__|  \__/        
                                                                              
                      - O R C A' S   B I G   F R I E N D -                    
                                      &                                       
                       - I N T E G R A L  F E E D E R -                       
                                                                              
 v1 FN, 2020, v2 2021, v3 2022-2024                                           
------------------------------------------------------------------------------


----------------------
SHARK INTEGRAL PACKAGE
----------------------

Number of atoms                             ...     21
Number of basis functions                   ...    199
Number of shells                            ...     95
Maximum angular momentum                    ...      2
Integral batch strategy                     ... SHARK/LIBINT Hybrid
RI-J (if used) integral strategy            ... SPLIT-RIJ (Revised 2003 algorithm where possible)
Printlevel                                  ...      1
Contraction scheme used                     ... SEGMENTED contraction
Prescreening option                         ... SCHWARTZ
   Thresh                                   ... 2.500e-11
   Tcut                                     ... 2.500e-12
   Tpresel                                  ... 2.500e-12 
Coulomb Range Separation                    ... NOT USED
Exchange Range Separation                   ... NOT USED
Multipole approximations                    ... NOT USED
Finite Nucleus Model                        ... NOT USED
CABS basis                                  ... NOT available
Auxiliary Coulomb fitting basis             ... AVAILABLE
   # of basis functions in Aux-J            ...    613
   # of shells in Aux-J                     ...    207
   Maximum angular momentum in Aux-J        ...      4
Auxiliary J/K fitting basis                 ... NOT available
Auxiliary Correlation fitting basis         ... NOT available
Auxiliary 'external' fitting basis          ... NOT available

Checking pre-screening integrals            ... done (  0.0 sec) Dimension = 95
Check shell pair data                       ... done (  0.0 sec)
Shell pair information
Shell pair cut-off parameter TPreSel        ...   2.5e-12
Total number of shell pairs                 ...      4560
Shell pairs after pre-screening             ...      4117
Total number of primitive shell pairs       ...     16644
Primitive shell pairs kept                  ...     10571
          la=0 lb=0:   1301 shell pairs
          la=1 lb=0:   1542 shell pairs
          la=1 lb=1:    473 shell pairs
          la=2 lb=0:    474 shell pairs
          la=2 lb=1:    279 shell pairs
          la=2 lb=2:     48 shell pairs

Calculating one electron integrals          ... done (  0.0 sec)
Calculating RI/J V-Matrix + Cholesky decomp.... done (  0.0 sec)
Calculating Nuclear repulsion               ... done (  0.0 sec) ENN=    609.678096184664 Eh

Diagonalization of the overlap matrix:
Smallest eigenvalue                        ... 2.931e-04
Time for diagonalization                   ...    0.004 sec
Threshold for overlap eigenvalues          ... 1.000e-07
Number of eigenvalues below threshold      ... 0
Time for construction of square roots      ...    0.003 sec
Total time needed                          ...    0.007 sec

-------------------
DFT GRID GENERATION
-------------------

General Integration Accuracy     IntAcc      ... 4.388
Radial Grid Type                 RadialGrid  ... OptM3 with GC (2021)
Angular Grid (max. ang.)         AngularGrid ... 4 (Lebedev-302)
Angular grid pruning method      GridPruning ... 4 (adaptive)
Weight generation scheme         WeightScheme... mBecke (2022)
Basis function cutoff            BFCut       ... 1.0000e-11
Integration weight cutoff        WCut        ... 1.0000e-14
Partially contracted basis set               ... off
Rotationally invariant grid construction     ... off
Angular grids for H and He will be reduced by one unit

Total number of grid points                  ...    96631
Total number of batches                      ...     1521
Average number of points per batch           ...       63
Average number of grid points per atom       ...     4601
Initializing property integral containers    ... done (  0.0 sec)

SHARK setup successfully completed in   0.6 seconds

Maximum memory used throughout the entire STARTUP-calculation: 26.3 MB


           ************************************************************
           *        Program running with 6 parallel MPI-processes     *
           *              working on a common directory               *
           ************************************************************
-------------------------------------------------------------------------------
                                 ORCA GUESS
                   Start orbitals & Density for SCF / CASSCF
-------------------------------------------------------------------------------

------------
SCF SETTINGS
------------
Hamiltonian:
 Density Functional     Method          .... DFT(GTOs)
 Exchange Functional    Exchange        .... B88
   X-Alpha parameter    XAlpha          ....  0.666667
   Becke's b parameter  XBeta           ....  0.004200
 Correlation Functional Correlation     .... P86
 LDA part of GGA corr.  LDAOpt          .... PW91-LDA
 Gradients option       PostSCFGGA      .... off
   NL short-range parameter             ....  4.400000
 RI-approximation to the Coulomb term is turned on
   Number of AuxJ basis functions       .... 613


General Settings:
 Integral files         IntName         .... data/geom_opt_PO_BP86/69597/69597
 Hartree-Fock type      HFTyp           .... RHF
 Total Charge           Charge          ....    0
 Multiplicity           Mult            ....    1
 Number of Electrons    NEL             ....   82
 Basis Dimension        Dim             ....  199
 Nuclear Repulsion      ENuc            ....    609.6780961847 Eh

Convergence Acceleration:
 AO-DIIS                CNVDIIS         .... on
   Start iteration      DIISMaxIt       ....    12
   Startup error        DIISStart       ....  0.200000
   # of expansion vecs  DIISMaxEq       ....     5
   Bias factor          DIISBfac        ....   1.050
   Max. coefficient     DIISMaxC        ....  10.000
 MO-DIIS                CNVKDIIS        .... off
 Trust-Rad. Augm. Hess. CNVTRAH         .... auto
   Auto Start mean grad. ratio tolernc. ....  1.125000
   Auto Start start iteration           ....    50
   Auto Start num. interpolation iter.  ....    10
   Max. Number of Micro iterations      ....    24
   Max. Number of Macro iterations      .... Maxiter - #DIIS iter
   Number of Davidson start vectors     ....     2
   Converg. threshold    (grad. norm)   ....   1.000e-05
   Grad. Scal. Fac. for Micro threshold ....   0.100
   Minimum threshold for Micro iter.    ....   1.000e-02
   NR start threshold (gradient norm)   ....   1.000e-04
   Initial trust radius                 ....   0.400
   Minimum AH scaling param. (alpha)    ....   1.000
   Maximum AH scaling param. (alpha)    .... 1000.000
   Quad. conv. algorithm                .... NR
   White noise on init. David. guess    .... on
   Maximum white noise                  ....   0.010
   Pseudo random numbers                .... off
   Inactive MOs                         .... canonical
   Orbital update algorithm             .... Taylor
   Preconditioner                       .... Diag
   Full preconditioner red. dimension   ....   250
 SOSCF                  CNVSOSCF        .... on
   Start iteration      SOSCFMaxIt      ....   150
   Startup grad/error   SOSCFStart      ....  0.003300
   Hessian update       SOSCFHessUp     .... L-BFGS
 Level Shifting         CNVShift        .... on
   Level shift para.    LevelShift      ....    0.2500
   Turn off err/grad.   ShiftErr        ....    0.0010
 Zerner damping         CNVZerner       .... off
 Static damping         CNVDamp         .... on
   Fraction old density DampFac         ....    0.7000
   Max. Damping (<1)    DampMax         ....    0.9800
   Min. Damping (>=0)   DampMin         ....    0.0000
   Turn off err/grad.   DampErr         ....    0.1000

SCF Procedure:
 Maximum # iterations   MaxIter         ....   125
 SCF integral mode      SCFMode         .... Direct
   Integral package                     .... SHARK and LIBINT hybrid scheme
 Reset frequency        DirectResetFreq ....    20
 Integral Threshold     Thresh          ....  2.500e-11 Eh
 Primitive CutOff       TCut            ....  2.500e-12 Eh

Convergence Tolerance:
 Convergence Check Mode ConvCheckMode   .... Total+1el-Energy
 Convergence forced     ConvForced      .... 0
 Energy Change          TolE            ....  1.000e-08 Eh
 1-El. energy change                    ....  1.000e-05 Eh
 Orbital Gradient       TolG            ....  1.000e-05
 Orbital Rotation angle TolX            ....  1.000e-05
 DIIS Error             TolErr          ....  5.000e-07

------------------------------
INITIAL GUESS: MODEL POTENTIAL
------------------------------
Loading Hartree-Fock densities                     ... done
Calculating cut-offs                               ... done
Initializing the effective Hamiltonian             ... done
Setting up the integral package (SHARK)            ... done
Starting the Coulomb interaction                   ... done (   0.1 sec)
Making the grid                                    ... done (   0.1 sec)
Mapping shells                                     ... done
Starting the XC term evaluation                    ... done (   0.1 sec)
  promolecular density results
     # of electrons  =     81.991174716
     EX              =    -75.275536846
     EC              =     -3.070398547
     EX+EC           =    -78.345935392
Transforming the Hamiltonian                       ... done (   0.0 sec)
Diagonalizing the Hamiltonian                      ... done (   0.0 sec)
Back transforming the eigenvectors                 ... done (   0.0 sec)
Now organizing SCF variables                       ... done
                      ------------------
                      INITIAL GUESS DONE (   0.2 sec)
                      ------------------
             **** ENERGY FILE WAS UPDATED (data/geom_opt_PO_BP86/69597/69597.en.tmp) ****
Finished Guess after   0.3 sec
Maximum memory used throughout the entire GUESS-calculation: 14.3 MB


           ************************************************************
           *        Program running with 6 parallel MPI-processes     *
           *              working on a common directory               *
           ************************************************************

-------------------------------------------------------------------------------------------
                                      ORCA LEAN-SCF
                              memory conserving SCF solver
-------------------------------------------------------------------------------------------

----------------------------------------D-I-I-S--------------------------------------------
Iteration    Energy (Eh)           Delta-E    RMSDP     MaxDP     DIISErr   Damp  Time(sec)
-------------------------------------------------------------------------------------------
               ***  Starting incremental Fock matrix formation  ***
    1    -727.3834028201241608     0.00e+00  5.79e-03  1.61e-01  3.44e-01  0.700   0.4
    2    -727.5532116363320938    -1.70e-01  3.34e-03  8.59e-02  8.64e-02  0.700   0.3
                               ***Turning on AO-DIIS***
    3    -727.6032007859993200    -5.00e-02  9.81e-04  2.07e-02  2.85e-02  0.700   0.3
    4    -727.6384554071004231    -3.53e-02  1.75e-03  4.45e-02  1.47e-02  0.000   0.4
    5    -727.7179850184760426    -7.95e-02  4.56e-04  1.09e-02  9.92e-03  0.000   0.6
                              *** Initializing SOSCF ***
---------------------------------------S-O-S-C-F--------------------------------------
Iteration    Energy (Eh)           Delta-E    RMSDP     MaxDP     MaxGrad    Time(sec)
--------------------------------------------------------------------------------------
    6    -727.7189637762111261    -9.79e-04  1.54e-04  3.11e-03  1.98e-03     0.4
               *** Restarting incremental Fock matrix formation ***
    7    -727.7190187337372436    -5.50e-05  1.30e-04  2.77e-03  3.85e-04     0.3
    8    -727.7190027645029886     1.60e-05  6.87e-05  1.99e-03  1.11e-03     0.3
    9    -727.7190257607441026    -2.30e-05  5.50e-05  1.70e-03  2.09e-04     0.3
   10    -727.7190242329389775     1.53e-06  3.24e-05  9.37e-04  3.86e-04     0.3
   11    -727.7190268531295487    -2.62e-06  1.57e-05  3.90e-04  6.73e-05     0.3
   12    -727.7190264965842061     3.57e-07  1.00e-05  2.24e-04  1.11e-04     0.3
   13    -727.7190269820326876    -4.85e-07  2.97e-06  8.79e-05  1.43e-05     0.3
   14    -727.7190269719789057     1.01e-08  1.64e-06  6.16e-05  2.74e-05     0.3
   15    -727.7190269894164203    -1.74e-08  6.25e-07  2.26e-05  3.04e-06     0.3
   16    -727.7190269833344018     6.08e-09  3.31e-07  9.89e-06  4.38e-06     0.3
                 **** Energy Check signals convergence ****

               *****************************************************
               *                     SUCCESS                       *
               *           SCF CONVERGED AFTER  16 CYCLES          *
               *****************************************************

             **** ENERGY FILE WAS UPDATED (data/geom_opt_PO_BP86/69597/69597.en.tmp) ****

----------------
TOTAL SCF ENERGY
----------------

Total Energy       :       -727.71902698333440 Eh          -19802.24145 eV

Components:
Nuclear Repulsion  :        609.67809618466447 Eh           16590.18443 eV
Electronic Energy  :      -1337.39712316799887 Eh          -36392.42588 eV
One Electron Energy:      -2204.68615230132127 Eh          -59992.56017 eV
Two Electron Energy:        867.28902913332240 Eh           23600.13429 eV

Virial components:
Potential Energy   :      -1450.18399779082029 Eh          -39461.51276 eV
Kinetic Energy     :        722.46497080748577 Eh           19659.27131 eV
Virial Ratio       :          2.00727240266054

DFT components:
N(Alpha)           :       40.999903728375 electrons
N(Beta)            :       40.999903728375 electrons
N(Total)           :       81.999807456750 electrons
E(X)               :      -76.362571911717 Eh       
E(C)               :       -3.077821476346 Eh       
E(XC)              :      -79.440393388063 Eh       

---------------
SCF CONVERGENCE
---------------

  Last Energy change         ...   -6.0820e-09  Tolerance :   1.0000e-08
  Last MAX-Density change    ...    9.8910e-06  Tolerance :   1.0000e-07
  Last RMS-Density change    ...    3.3093e-07  Tolerance :   5.0000e-09
  Last DIIS Error            ...    1.9755e-03  Tolerance :   5.0000e-07
  Last Orbital Gradient      ...    4.3829e-06  Tolerance :   1.0000e-05
  Last Orbital Rotation      ...    8.3020e-06  Tolerance :   1.0000e-05


----------------
ORBITAL ENERGIES
----------------

  NO   OCC          E(Eh)            E(eV) 
   0   2.0000     -76.401373     -2078.9870 
   1   2.0000     -18.694374      -508.6998 
   2   2.0000      -9.937269      -270.4068 
   3   2.0000      -9.931738      -270.2563 
   4   2.0000      -9.931473      -270.2491 
   5   2.0000      -9.930307      -270.2174 
   6   2.0000      -9.928737      -270.1747 
   7   2.0000      -9.927966      -270.1537 
   8   2.0000      -9.912714      -269.7387 
   9   2.0000      -9.912685      -269.7379 
  10   2.0000      -6.362796      -173.1405 
  11   2.0000      -4.583865      -124.7333 
  12   2.0000      -4.583665      -124.7279 
  13   2.0000      -4.583618      -124.7266 
  14   2.0000      -0.839446       -22.8425 
  15   2.0000      -0.789178       -21.4746 
  16   2.0000      -0.702015       -19.1028 
  17   2.0000      -0.685075       -18.6418 
  18   2.0000      -0.668085       -18.1795 
  19   2.0000      -0.634879       -17.2759 
  20   2.0000      -0.565458       -15.3869 
  21   2.0000      -0.557046       -15.1580 
  22   2.0000      -0.503452       -13.6996 
  23   2.0000      -0.461477       -12.5574 
  24   2.0000      -0.423602       -11.5268 
  25   2.0000      -0.413528       -11.2527 
  26   2.0000      -0.402638       -10.9563 
  27   2.0000      -0.390901       -10.6370 
  28   2.0000      -0.387249       -10.5376 
  29   2.0000      -0.385047       -10.4777 
  30   2.0000      -0.369706       -10.0602 
  31   2.0000      -0.360371        -9.8062 
  32   2.0000      -0.347656        -9.4602 
  33   2.0000      -0.327369        -8.9082 
  34   2.0000      -0.319239        -8.6869 
  35   2.0000      -0.312328        -8.4989 
  36   2.0000      -0.285942        -7.7809 
  37   2.0000      -0.248932        -6.7738 
  38   2.0000      -0.246584        -6.7099 
  39   2.0000      -0.206156        -5.6098 
  40   2.0000      -0.199144        -5.4190 
  41   0.0000      -0.069283        -1.8853 
  42   0.0000      -0.055388        -1.5072 
  43   0.0000       0.021706         0.5907 
  44   0.0000       0.043062         1.1718 
  45   0.0000       0.048075         1.3082 
  46   0.0000       0.065229         1.7750 
  47   0.0000       0.072087         1.9616 
  48   0.0000       0.077967         2.1216 
  49   0.0000       0.085563         2.3283 
  50   0.0000       0.086602         2.3566 
  51   0.0000       0.102679         2.7940 
*Only the first 10 virtual orbitals were printed.

                    ********************************
                    * MULLIKEN POPULATION ANALYSIS *
                    ********************************

-----------------------
MULLIKEN ATOMIC CHARGES
-----------------------
   0 C :   -0.138887
   1 P :    0.428001
   2 O :   -0.470550
   3 C :   -0.138765
   4 C :   -0.078115
   5 C :   -0.015407
   6 C :    0.012489
   7 C :    0.015088
   8 C :    0.012443
   9 C :   -0.005343
  10 H :    0.072110
  11 H :    0.034357
  12 H :    0.072668
  13 H :    0.072667
  14 H :    0.034307
  15 H :    0.072074
  16 H :   -0.005225
  17 H :    0.000233
  18 H :    0.003761
  19 H :    0.005383
  20 H :    0.016713
Sum of atomic charges:   -0.0000000

--------------------------------
MULLIKEN REDUCED ORBITAL CHARGES
--------------------------------
  0 C s       :     3.038749  s :     3.038749
      pz      :     1.009974  p :     3.081450
      px      :     1.037831
      py      :     1.033645
      dz2     :     0.005559  d :     0.018688
      dxz     :     0.002188
      dyz     :     0.003231
      dx2y2   :     0.004646
      dxy     :     0.003065

  1 P s       :     5.301851  s :     5.301851
      pz      :     2.859511  p :     8.766943
      px      :     2.951367
      py      :     2.956065
      dz2     :     0.107536  d :     0.503205
      dxz     :     0.128952
      dyz     :     0.125620
      dx2y2   :     0.076596
      dxy     :     0.064502

  2 O s       :     3.818359  s :     3.818359
      pz      :     1.374870  p :     4.640223
      px      :     1.627741
      py      :     1.637612
      dz2     :     0.004526  d :     0.011968
      dxz     :     0.003200
      dyz     :     0.003428
      dx2y2   :     0.000387
      dxy     :     0.000427

  3 C s       :     3.038750  s :     3.038750
      pz      :     1.003273  p :     3.081327
      px      :     1.038410
      py      :     1.039644
      dz2     :     0.005503  d :     0.018688
      dxz     :     0.001999
      dyz     :     0.003632
      dx2y2   :     0.004260
      dxy     :     0.003294

  4 C s       :     3.047936  s :     3.047936
      pz      :     0.978948  p :     2.996819
      px      :     0.988616
      py      :     1.029255
      dz2     :     0.009183  d :     0.033360
      dxz     :     0.009566
      dyz     :     0.005871
      dx2y2   :     0.005166
      dxy     :     0.003574

  5 C s       :     3.226440  s :     3.226440
      pz      :     0.911393  p :     2.755826
      px      :     0.875337
      py      :     0.969096
      dz2     :     0.007281  d :     0.033140
      dxz     :     0.012178
      dyz     :     0.004263
      dx2y2   :     0.004466
      dxy     :     0.004951

  6 C s       :     3.168474  s :     3.168474
      pz      :     0.858697  p :     2.786355
      px      :     0.954832
      py      :     0.972826
      dz2     :     0.008085  d :     0.032683
      dxz     :     0.009906
      dyz     :     0.002975
      dx2y2   :     0.005572
      dxy     :     0.006144

  7 C s       :     3.170498  s :     3.170498
      pz      :     0.959207  p :     2.781344
      px      :     0.856836
      py      :     0.965302
      dz2     :     0.009371  d :     0.033070
      dxz     :     0.009924
      dyz     :     0.005615
      dx2y2   :     0.004968
      dxy     :     0.003192

  8 C s       :     3.173201  s :     3.173201
      pz      :     0.906972  p :     2.781628
      px      :     0.902210
      py      :     0.972446
      dz2     :     0.007444  d :     0.032727
      dxz     :     0.011922
      dyz     :     0.004130
      dx2y2   :     0.004577
      dxy     :     0.004656

  9 C s       :     3.251790  s :     3.251790
      pz      :     0.875469  p :     2.720798
      px      :     0.911209
      py      :     0.934120
      dz2     :     0.007785  d :     0.032755
      dxz     :     0.010097
      dyz     :     0.002936
      dx2y2   :     0.005543
      dxy     :     0.006394

 10 H s       :     0.904036  s :     0.904036
      pz      :     0.005945  p :     0.023854
      px      :     0.012719
      py      :     0.005191

 11 H s       :     0.941513  s :     0.941513
      pz      :     0.012489  p :     0.024130
      px      :     0.005464
      py      :     0.006176

 12 H s       :     0.903535  s :     0.903535
      pz      :     0.005494  p :     0.023797
      px      :     0.006388
      py      :     0.011915

 13 H s       :     0.903534  s :     0.903534
      pz      :     0.007917  p :     0.023799
      px      :     0.006552
      py      :     0.009331

 14 H s       :     0.941562  s :     0.941562
      pz      :     0.012494  p :     0.024131
      px      :     0.005463
      py      :     0.006175

 15 H s       :     0.904073  s :     0.904073
      pz      :     0.006037  p :     0.023854
      px      :     0.012719
      py      :     0.005098

 16 H s       :     0.982660  s :     0.982660
      pz      :     0.008368  p :     0.022565
      px      :     0.008633
      py      :     0.005564

 17 H s       :     0.977351  s :     0.977351
      pz      :     0.012394  p :     0.022417
      px      :     0.004316
      py      :     0.005707

 18 H s       :     0.973941  s :     0.973941
      pz      :     0.004500  p :     0.022298
      px      :     0.012983
      py      :     0.004814

 19 H s       :     0.972290  s :     0.972290
      pz      :     0.008254  p :     0.022327
      px      :     0.008798
      py      :     0.005275

 20 H s       :     0.960489  s :     0.960489
      pz      :     0.012927  p :     0.022798
      px      :     0.004572
      py      :     0.005299



                     *******************************
                     * LOEWDIN POPULATION ANALYSIS *
                     *******************************

----------------------
LOEWDIN ATOMIC CHARGES
----------------------
   0 C :   -0.219831
   1 P :    0.852723
   2 O :   -0.513600
   3 C :   -0.219799
   4 C :   -0.196265
   5 C :   -0.027744
   6 C :   -0.026032
   7 C :   -0.014898
   8 C :   -0.023094
   9 C :   -0.006802
  10 H :    0.045162
  11 H :    0.027376
  12 H :    0.043469
  13 H :    0.043468
  14 H :    0.027366
  15 H :    0.045146
  16 H :    0.025193
  17 H :    0.032480
  18 H :    0.033129
  19 H :    0.034522
  20 H :    0.038031

-------------------------------
LOEWDIN REDUCED ORBITAL CHARGES
-------------------------------
  0 C s       :     2.894252  s :     2.894252
      pz      :     1.086567  p :     3.273322
      px      :     1.092051
      py      :     1.094704
      dz2     :     0.015163  d :     0.052257
      dxz     :     0.006125
      dyz     :     0.009374
      dx2y2   :     0.012836
      dxy     :     0.008759

  1 P s       :     4.923636  s :     4.923636
      pz      :     2.790697  p :     8.523786
      px      :     2.864803
      py      :     2.868287
      dz2     :     0.154354  d :     0.699855
      dxz     :     0.173954
      dyz     :     0.173409
      dx2y2   :     0.109349
      dxy     :     0.088788

  2 O s       :     3.658797  s :     3.658797
      pz      :     1.504434  p :     4.836185
      px      :     1.663396
      py      :     1.668354
      dz2     :     0.008593  d :     0.018619
      dxz     :     0.004042
      dyz     :     0.005001
      dx2y2   :     0.000450
      dxy     :     0.000533

  3 C s       :     2.894256  s :     2.894256
      pz      :     1.078707  p :     3.273286
      px      :     1.091871
      py      :     1.102707
      dz2     :     0.015422  d :     0.052258
      dxz     :     0.005268
      dyz     :     0.009867
      dx2y2   :     0.012016
      dxy     :     0.009685

  4 C s       :     2.907404  s :     2.907404
      pz      :     1.082678  p :     3.198605
      px      :     1.096827
      py      :     1.019100
      dz2     :     0.026423  d :     0.090256
      dxz     :     0.028795
      dyz     :     0.014051
      dx2y2   :     0.013307
      dxy     :     0.007680

  5 C s       :     2.864626  s :     2.864626
      pz      :     1.044490  p :     3.072126
      px      :     1.056897
      py      :     0.970739
      dz2     :     0.021232  d :     0.090993
      dxz     :     0.035694
      dyz     :     0.009975
      dx2y2   :     0.012918
      dxy     :     0.011174

  6 C s       :     2.863623  s :     2.863623
      pz      :     1.036296  p :     3.073662
      px      :     1.064133
      py      :     0.973233
      dz2     :     0.022075  d :     0.088747
      dxz     :     0.029554
      dyz     :     0.006381
      dx2y2   :     0.016584
      dxy     :     0.014154

  7 C s       :     2.864886  s :     2.864886
      pz      :     1.058772  p :     3.060672
      px      :     1.043815
      py      :     0.958085
      dz2     :     0.026655  d :     0.089341
      dxz     :     0.029489
      dyz     :     0.013512
      dx2y2   :     0.012793
      dxy     :     0.006892

  8 C s       :     2.863876  s :     2.863876
      pz      :     1.046887  p :     3.070350
      px      :     1.054734
      py      :     0.968729
      dz2     :     0.021880  d :     0.088868
      dxz     :     0.033897
      dyz     :     0.009637
      dx2y2   :     0.013087
      dxy     :     0.010367

  9 C s       :     2.868081  s :     2.868081
      pz      :     1.044952  p :     3.049421
      px      :     1.059501
      py      :     0.944968
      dz2     :     0.021692  d :     0.089300
      dxz     :     0.029857
      dyz     :     0.006332
      dx2y2   :     0.016783
      dxy     :     0.014635

 10 H s       :     0.884609  s :     0.884609
      pz      :     0.015307  p :     0.070230
      px      :     0.040758
      py      :     0.014165

 11 H s       :     0.900698  s :     0.900698
      pz      :     0.040647  p :     0.071926
      px      :     0.014267
      py      :     0.017011

 12 H s       :     0.886182  s :     0.886182
      pz      :     0.013787  p :     0.070349
      px      :     0.017569
      py      :     0.038993

 13 H s       :     0.886183  s :     0.886183
      pz      :     0.021617  p :     0.070349
      px      :     0.018053
      py      :     0.030679

 14 H s       :     0.900709  s :     0.900709
      pz      :     0.038702  p :     0.071925
      px      :     0.014196
      py      :     0.019027

 15 H s       :     0.884625  s :     0.884625
      pz      :     0.014622  p :     0.070229
      px      :     0.040658
      py      :     0.014949

 16 H s       :     0.905728  s :     0.905728
      pz      :     0.026277  p :     0.069079
      px      :     0.026791
      py      :     0.016011

 17 H s       :     0.899274  s :     0.899274
      pz      :     0.038019  p :     0.068246
      px      :     0.013508
      py      :     0.016718

 18 H s       :     0.898818  s :     0.898818
      pz      :     0.014106  p :     0.068054
      px      :     0.039917
      py      :     0.014031

 19 H s       :     0.897316  s :     0.897316
      pz      :     0.025435  p :     0.068162
      px      :     0.027194
      py      :     0.015532

 20 H s       :     0.890712  s :     0.890712
      pz      :     0.040791  p :     0.071258
      px      :     0.014519
      py      :     0.015948



                      *****************************
                      * MAYER POPULATION ANALYSIS *
                      *****************************

  NA   - Mulliken gross atomic population
  ZA   - Total nuclear charge
  QA   - Mulliken gross atomic charge
  VA   - Mayer's total valence
  BVA  - Mayer's bonded valence
  FA   - Mayer's free valence

  ATOM       NA         ZA         QA         VA         BVA        FA
  0 C      6.1389     6.0000    -0.1389     3.8444     3.8444    -0.0000
  1 P     14.5720    15.0000     0.4280     4.9795     4.9795    -0.0000
  2 O      8.4706     8.0000    -0.4706     2.1107     2.1107    -0.0000
  3 C      6.1388     6.0000    -0.1388     3.8442     3.8442    -0.0000
  4 C      6.0781     6.0000    -0.0781     3.6605     3.6605    -0.0000
  5 C      6.0154     6.0000    -0.0154     3.8620     3.8620    -0.0000
  6 C      5.9875     6.0000     0.0125     3.8634     3.8634    -0.0000
  7 C      5.9849     6.0000     0.0151     3.8303     3.8303    -0.0000
  8 C      5.9876     6.0000     0.0124     3.8258     3.8258    -0.0000
  9 C      6.0053     6.0000    -0.0053     3.9096     3.9096    -0.0000
 10 H      0.9279     1.0000     0.0721     1.0016     1.0016    -0.0000
 11 H      0.9656     1.0000     0.0344     0.9971     0.9971    -0.0000
 12 H      0.9273     1.0000     0.0727     0.9984     0.9984    -0.0000
 13 H      0.9273     1.0000     0.0727     0.9984     0.9984    -0.0000
 14 H      0.9657     1.0000     0.0343     0.9971     0.9971    -0.0000
 15 H      0.9279     1.0000     0.0721     1.0016     1.0016    -0.0000
 16 H      1.0052     1.0000    -0.0052     0.9848     0.9848    -0.0000
 17 H      0.9998     1.0000     0.0002     0.9789     0.9789    -0.0000
 18 H      0.9962     1.0000     0.0038     0.9787     0.9787     0.0000
 19 H      0.9946     1.0000     0.0054     0.9797     0.9797    -0.0000
 20 H      0.9833     1.0000     0.0167     1.0159     1.0159    -0.0000

  Mayer bond orders larger than 0.100000
B(  0-C ,  1-P ) :   0.9758 B(  0-C , 10-H ) :   0.9526 B(  0-C , 11-H ) :   0.9331 
B(  0-C , 12-H ) :   0.9520 B(  1-P ,  2-O ) :   1.9359 B(  1-P ,  3-C ) :   0.9757 
B(  1-P ,  4-C ) :   0.8687 B(  3-C , 13-H ) :   0.9520 B(  3-C , 14-H ) :   0.9331 
B(  3-C , 15-H ) :   0.9526 B(  4-C ,  5-C ) :   1.3314 B(  4-C ,  9-C ) :   1.3841 
B(  5-C ,  6-C ) :   1.4030 B(  5-C , 16-H ) :   0.9801 B(  6-C ,  7-C ) :   1.3781 
B(  6-C , 17-H ) :   0.9803 B(  7-C ,  8-C ) :   1.3792 B(  7-C , 18-H ) :   0.9809 
B(  8-C ,  9-C ) :   1.3717 B(  8-C , 19-H ) :   0.9841 B(  9-C , 20-H ) :   0.9810 


-------
TIMINGS
-------

Total SCF time: 0 days 0 hours 0 min 5 sec 

Total time                  ....       5.506 sec
Sum of individual times     ....       5.446 sec  ( 98.9%)

SCF preparation             ....       0.071 sec  (  1.3%)
Fock matrix formation       ....       4.889 sec  ( 88.8%)
  Startup                   ....       0.036 sec  (  0.7% of F)
  Split-RI-J                ....       1.425 sec  ( 29.1% of F)
  XC integration            ....       3.255 sec  ( 66.6% of F)
    Basis function eval.    ....       0.879 sec  ( 27.0% of XC)
    Density eval.           ....       0.747 sec  ( 22.9% of XC)
    XC-Functional eval.     ....       0.116 sec  (  3.6% of XC)
    XC-Potential eval.      ....       0.707 sec  ( 21.7% of XC)
Diagonalization             ....       0.000 sec  (  0.0%)
Density matrix formation    ....       0.079 sec  (  1.4%)
Total Energy calculation    ....       0.038 sec  (  0.7%)
Population analysis         ....       0.031 sec  (  0.6%)
Orbital Transformation      ....       0.025 sec  (  0.5%)
Orbital Orthonormalization  ....       0.000 sec  (  0.0%)
DIIS solution               ....       0.180 sec  (  3.3%)
SOSCF solution              ....       0.133 sec  (  2.4%)
Finished LeanSCF after   5.5 sec

Maximum memory used throughout the entire LEANSCF-calculation: 19.0 MB


-------------------------------------------------------------------------------
                          DFT DISPERSION CORRECTION                            
                                                                               
                              DFTD3 V3.1  Rev 1                                
                          USING Becke-Johnson damping                          
-------------------------------------------------------------------------------
The BP86 functional is recognized
Active option DFTDOPT                   ...         4   

molecular C6(AA) [au] = 5406.049211 


            DFT-D V3
 parameters
 s6 scaling factor         :     1.0000 
 a1 scaling factor         :     0.3946 
 s8 scaling factor         :     3.2822 
 a2 scaling factor         :     4.8516 
 ad hoc parameters k1-k3   :    16.0000     1.3333    -4.0000 

 Edisp/kcal,au: -24.989147011116  -0.039822736354 
 E6   /kcal   :  -9.031861277 
 E8   /kcal   : -15.957285734 
 % E8         :  63.856864449 

-------------------------   ----------------
Dispersion correction           -0.039822736
-------------------------   ----------------


-------------------------   --------------------
FINAL SINGLE POINT ENERGY      -727.758849719689
-------------------------   --------------------



           ************************************************************
           *        Program running with 6 parallel MPI-processes     *
           *              working on a common directory               *
           ************************************************************
------------------------------------------------------------------------------
                         ORCA SCF GRADIENT CALCULATION
------------------------------------------------------------------------------

Nuc. rep. gradient        (SHARK) ... done (  0.0 sec)
HCore & Overlap gradient  (SHARK) ... done (  0.1 sec)
Split-RIJ-J gradient      (SHARK) ... done (  0.3 sec)
XC gradient                       ... done (  1.5 sec)
Dispersion correction             ... done (  0.1 sec)

-------------------
DISPERSION GRADIENT
-------------------

   1   C   :   -0.000484704    0.000443658    0.000144867
   2   P   :   -0.000379375    0.000067035   -0.000234862
   3   O   :   -0.000241820    0.000156148   -0.000517115
   4   C   :   -0.000471673   -0.000460699   -0.000134306
   5   C   :    0.000445992    0.000014688   -0.000026764
   6   C   :    0.000428019    0.000040308   -0.000110594
   7   C   :    0.000409831   -0.000083172    0.000288557
   8   C   :    0.000145948   -0.000006631    0.000028295
   9   C   :    0.000450933    0.000030580   -0.000078011
  10   C   :    0.000121217   -0.000044361    0.000149359
  11   H   :   -0.000196882    0.000187059    0.000066882
  12   H   :   -0.000219785    0.000194269    0.000201418
  13   H   :   -0.000184854    0.000296218    0.000087063
  14   H   :   -0.000176285   -0.000298501   -0.000096526
  15   H   :   -0.000212956   -0.000279693    0.000055106
  16   H   :   -0.000191343   -0.000197317   -0.000051774
  17   H   :    0.000093790   -0.000097795    0.000321174
  18   H   :    0.000092672   -0.000068816    0.000227247
  19   H   :    0.000227256   -0.000015820    0.000061857
  20   H   :    0.000193665    0.000048920   -0.000149432
  21   H   :    0.000150354    0.000073921   -0.000232442

Difference to translation invariance:
           :   -0.0000000000    0.0000000000    0.0000000000

Difference to rotation invariance:
           :    0.0000000000   -0.0000000000    0.0000000000

Norm of the Dispersion gradient    ...    0.0018550157
RMS gradient                       ...    0.0002337100
MAX gradient                       ...    0.0005171152

------------------
CARTESIAN GRADIENT
------------------

   1   C   :   -0.004264551   -0.003038111   -0.014823310
   2   P   :    0.034365616   -0.008034226    0.027636398
   3   O   :   -0.010395100   -0.004675537    0.014701425
   4   C   :   -0.004411612    0.010750163   -0.010584535
   5   C   :   -0.016047271    0.002435459   -0.008602065
   6   C   :   -0.003654069    0.000806493   -0.002878461
   7   C   :    0.002979911    0.000450805   -0.001300756
   8   C   :   -0.002080645   -0.000051967    0.000120528
   9   C   :    0.002206238    0.000011303    0.000047469
  10   C   :   -0.000028432   -0.001884324    0.006082609
  11   H   :    0.007362274    0.001532483    0.005632158
  12   H   :   -0.000035703    0.001043181   -0.011705567
  13   H   :   -0.004285389   -0.008001281    0.001533174
  14   H   :   -0.004475005    0.005638254    0.005745672
  15   H   :   -0.000125255    0.005729523   -0.010239874
  16   H   :    0.007431363   -0.004255718    0.003858444
  17   H   :    0.007297104    0.002216365   -0.006803764
  18   H   :   -0.001676338    0.002672224   -0.008768085
  19   H   :   -0.009111677    0.000746375   -0.002843114
  20   H   :   -0.006283571   -0.002064970    0.006393487
  21   H   :    0.005232113   -0.002026495    0.006798166

Difference to translation invariance:
           :   -0.0000000000    0.0000000000   -0.0000000000

Difference to rotation invariance:
           :    0.0000199603   -0.0002528423   -0.0000364613

Norm of the Cartesian gradient     ...    0.0658557361
RMS gradient                       ...    0.0082970429
MAX gradient                       ...    0.0343656158

-------
TIMINGS
-------

Total SCF gradient time     ....        1.941 sec

One electron gradient       ....       0.073 sec  (  3.8%)
RI-J Coulomb gradient       ....       0.281 sec  ( 14.5%)
XC gradient                 ....       1.520 sec  ( 78.3%)

Maximum memory used throughout the entire SCFGRAD-calculation: 30.5 MB
------------------------------------------------------------------------------
                         ORCA GEOMETRY RELAXATION STEP
------------------------------------------------------------------------------

Reading the OPT-File                    .... done
Getting information on internals        .... done
Copying old internal coords+grads       .... done
Making the new internal coordinates     .... (2022 redundants) done
Validating the new internal coordinates .... (2022 redundants) done
Calculating the B-matrix                .... done
Calculating the G,G- and P matrices     .... done
Transforming gradient to internals      .... done
Projecting the internal gradient        .... done
Number of atoms                         ....  21
Number of internal coordinates          ....  98
Current Energy                          ....  -727.758849720 Eh
Current gradient norm                   ....     0.065855736 Eh/bohr
Maximum allowed component of the step   ....  0.300
Current trust radius                    ....  0.300
Evaluating the initial hessian          ....  (Almloef) done
Projecting the Hessian                  .... done
Forming the augmented Hessian           .... done
Diagonalizing the augmented Hessian     .... done
Last element of RFO vector              ....  0.983451475
Lowest eigenvalues of augmented Hessian:
 -0.009903851  0.004749083  0.004770868  0.005220336  0.017887246
Length of the computed step             ....  0.184220303
The final length of the internal step   ....  0.184220303
Converting the step to Cartesian space:
 Initial RMS(Int)=    0.0186090608
Transforming coordinates:
 Iter   0:  RMS(Cart)=    0.0306326962 RMS(Int)=    1.4192968781
done
Storing new coordinates                 .... done

                                .--------------------.
          ----------------------|Geometry convergence|-------------------------
          Item                value                   Tolerance       Converged
          ---------------------------------------------------------------------
          RMS gradient        0.0062131272            0.0001000000      NO
          MAX gradient        0.0238043153            0.0003000000      NO
          RMS step            0.0186090608            0.0020000000      NO
          MAX step            0.0518573295            0.0040000000      NO
          ........................................................
          Max(Bonds)      0.0238      Max(Angles)    2.04
          Max(Dihed)        2.97      Max(Improp)    0.00
          ---------------------------------------------------------------------

The optimization has not yet converged - more geometry cycles are needed


    ---------------------------------------------------------------------------
                         Redundant Internal Coordinates
                            (Angstroem and degrees)

        Definition                    Value    dE/dq     Step     New-Value
    ----------------------------------------------------------------------------
     1. B(P   1,C   0)                1.7979 -0.016759  0.0185    1.8165   
     2. B(O   2,P   1)                1.5088 -0.013616  0.0059    1.5147   
     3. B(C   3,P   1)                1.7979 -0.016762  0.0185    1.8165   
     4. B(C   4,P   1)                1.7702 -0.023804  0.0238    1.7940   
     5. B(C   5,C   4)                1.4013 -0.011945  0.0103    1.4116   
     6. B(C   6,C   5)                1.3962 -0.006850  0.0059    1.4021   
     7. B(C   7,C   6)                1.3934 -0.012133  0.0103    1.4037   
     8. B(C   8,C   7)                1.3929 -0.012371  0.0105    1.4034   
     9. B(C   9,C   8)                1.3952 -0.008386  0.0071    1.4023   
    10. B(C   9,C   4)                1.4011 -0.007157  0.0061    1.4073   
    11. B(H  10,C   0)                1.0937 -0.008413  0.0122    1.1059   
    12. B(H  11,C   0)                1.0934 -0.011386  0.0165    1.1099   
    13. B(H  12,C   0)                1.0935 -0.009113  0.0132    1.1067   
    14. B(H  13,C   3)                1.0935 -0.009120  0.0132    1.1067   
    15. B(H  14,C   3)                1.0934 -0.011369  0.0165    1.1098   
    16. B(H  15,C   3)                1.0937 -0.008402  0.0122    1.1059   
    17. B(H  16,C   5)                1.0870 -0.010220  0.0145    1.1015   
    18. B(H  17,C   6)                1.0872 -0.009299  0.0132    1.1003   
    19. B(H  18,C   7)                1.0870 -0.009568  0.0135    1.1005   
    20. B(H  19,C   8)                1.0871 -0.009188  0.0130    1.1001   
    21. B(H  20,C   9)                1.0895 -0.008136  0.0116    1.1011   
    22. A(H  11,C   0,H  12)          108.61  0.000858    0.04    108.64   
    23. A(P   1,C   0,H  12)          110.20  0.001920   -0.38    109.82   
    24. A(H  10,C   0,H  12)          108.48 -0.002262    0.03    108.52   
    25. A(P   1,C   0,H  11)          111.07 -0.005915    1.07    112.13   
    26. A(H  10,C   0,H  11)          108.26 -0.001335    0.39    108.65   
    27. A(P   1,C   0,H  10)          110.16  0.006666   -1.15    109.01   
    28. A(C   3,P   1,C   4)          108.93  0.005507   -1.80    107.13   
    29. A(O   2,P   1,C   4)          115.85  0.003870   -1.28    114.57   
    30. A(C   0,P   1,C   3)          102.95 -0.003581    1.06    104.00   
    31. A(C   0,P   1,C   4)          108.93  0.005700   -1.77    107.15   
    32. A(O   2,P   1,C   3)          109.70 -0.005311    1.99    111.69   
    33. A(C   0,P   1,O   2)          109.70 -0.006949    2.04    111.74   
    34. A(H  14,C   3,H  15)          108.26 -0.002804    0.39    108.65   
    35. A(P   1,C   3,H  15)          110.16  0.006565   -1.15    109.01   
    36. A(H  13,C   3,H  14)          108.61  0.001070    0.03    108.63   
    37. A(P   1,C   3,H  14)          111.07 -0.006539    1.06    112.13   
    38. A(P   1,C   3,H  13)          110.20  0.002657   -0.37    109.82   
    39. A(H  13,C   3,H  15)          108.48 -0.001004    0.05    108.53   
    40. A(P   1,C   4,C   5)          121.57 -0.005284    0.67    122.24   
    41. A(C   5,C   4,C   9)          118.75 -0.003516    0.44    119.19   
    42. A(P   1,C   4,C   9)          119.68  0.008799   -1.10    118.57   
    43. A(C   6,C   5,H  16)          118.97 -0.000732    0.10    119.08   
    44. A(C   4,C   5,H  16)          120.47 -0.000456    0.06    120.53   
    45. A(C   4,C   5,C   6)          120.56  0.001188   -0.17    120.39   
    46. A(C   7,C   6,H  17)          119.85 -0.001071    0.15    120.00   
    47. A(C   5,C   6,H  17)          120.08  0.000224   -0.05    120.03   
    48. A(C   5,C   6,C   7)          120.07  0.000847   -0.10    119.97   
    49. A(C   6,C   7,H  18)          120.09  0.000461   -0.08    120.01   
    50. A(C   6,C   7,C   8)          119.94 -0.000214    0.05    119.99   
    51. A(C   8,C   7,H  18)          119.97 -0.000246    0.03    120.00   
    52. A(C   7,C   8,C   9)          119.97 -0.000515    0.08    120.05   
    53. A(C   9,C   8,H  19)          119.90  0.000687   -0.11    119.79   
    54. A(C   7,C   8,H  19)          120.14 -0.000173    0.03    120.16   
    55. A(C   4,C   9,C   8)          120.72  0.002211   -0.31    120.41   
    56. A(C   8,C   9,H  20)          119.63 -0.004591    0.71    120.34   
    57. A(C   4,C   9,H  20)          119.64  0.002381   -0.40    119.25   
    58. D(O   2,P   1,C   0,H  11)    174.02 -0.005528    2.48    176.50   
    59. D(O   2,P   1,C   0,H  12)    -65.58 -0.007040    2.97    -62.60   
    60. D(C   3,P   1,C   0,H  12)    177.69  0.003954   -0.75    176.94   
    61. D(O   2,P   1,C   0,H  10)     54.09 -0.004412    2.05     56.13   
    62. D(C   3,P   1,C   0,H  11)     57.29  0.005466   -1.24     56.05   
    63. D(C   3,P   1,C   0,H  10)    -62.65  0.006581   -1.67    -64.32   
    64. D(H  14,C   3,P   1,C   4)     58.22  0.000220   -0.67     57.55   
    65. D(H  13,C   3,P   1,C   0)   -177.69 -0.005646    1.11   -176.59   
    66. D(H  13,C   3,P   1,C   4)    -62.18  0.001385   -1.14    -63.33   
    67. D(H  14,C   3,P   1,O   2)   -174.02  0.005348   -2.18   -176.20   
    68. D(H  14,C   3,P   1,C   0)    -57.29 -0.006810    1.58    -55.71   
    69. D(H  13,C   3,P   1,O   2)     65.58  0.006513   -2.65     62.92   
    70. D(C   5,C   4,P   1,C   3)    -55.79 -0.000438    0.31    -55.49   
    71. D(C   5,C   4,P   1,O   2)   -180.00 -0.000725    0.07   -179.93   
    72. D(C   5,C   4,P   1,C   0)     55.79  0.001020   -0.26     55.54   
    73. D(C   9,C   4,P   1,O   2)      0.00 -0.000803    0.11      0.11   
    74. D(C   9,C   4,P   1,C   0)   -124.21  0.000942   -0.21   -124.42   
    75. D(H  16,C   5,C   4,C   9)    180.00  0.000028   -0.01    179.99   
    76. D(H  16,C   5,C   4,P   1)     -0.00 -0.000049    0.03      0.03   
    77. D(C   6,C   5,C   4,C   9)      0.00  0.000037   -0.02     -0.02   
    78. D(C   6,C   5,C   4,P   1)   -180.00 -0.000040    0.02   -179.98   
    79. D(H  17,C   6,C   5,H  16)      0.00  0.000002   -0.01     -0.01   
    80. D(H  17,C   6,C   5,C   4)   -180.00 -0.000007    0.00   -180.00   
    81. D(C   7,C   6,C   5,H  16)    180.00 -0.000005   -0.00    180.00   
    82. D(C   7,C   6,C   5,C   4)     -0.00 -0.000014    0.01      0.01   
    83. D(H  18,C   7,C   6,H  17)     -0.00 -0.000004    0.00      0.00   
    84. D(H  18,C   7,C   6,C   5)    180.00  0.000003   -0.00    180.00   
    85. D(C   8,C   7,C   6,H  17)    180.00 -0.000018    0.02    180.02   
    86. D(C   8,C   7,C   6,C   5)      0.00 -0.000011    0.01      0.01   
    87. D(C   9,C   8,C   7,H  18)   -180.00 -0.000003    0.00   -180.00   
[...]
      py      :     0.005398

 17 H s       :     0.972276  s :     0.972276
      pz      :     0.012051  p :     0.021752
      px      :     0.004172
      py      :     0.005528

 18 H s       :     0.968756  s :     0.968756
      pz      :     0.004231  p :     0.021638
      px      :     0.012709
      py      :     0.004698

 19 H s       :     0.967202  s :     0.967202
      pz      :     0.008096  p :     0.021670
      px      :     0.008468
      py      :     0.005107

 20 H s       :     0.952461  s :     0.952461
      pz      :     0.012610  p :     0.022736
      px      :     0.004991
      py      :     0.005135



                     *******************************
                     * LOEWDIN POPULATION ANALYSIS *
                     *******************************

----------------------
LOEWDIN ATOMIC CHARGES
----------------------
   0 C :   -0.229238
   1 P :    0.862502
   2 O :   -0.500649
   3 C :   -0.229124
   4 C :   -0.190784
   5 C :   -0.037408
   6 C :   -0.030249
   7 C :   -0.022218
   8 C :   -0.026704
   9 C :   -0.018226
  10 H :    0.043625
  11 H :    0.034900
  12 H :    0.047616
  13 H :    0.047632
  14 H :    0.034919
  15 H :    0.043555
  16 H :    0.026331
  17 H :    0.034027
  18 H :    0.034809
  19 H :    0.035791
  20 H :    0.038893

-------------------------------
LOEWDIN REDUCED ORBITAL CHARGES
-------------------------------
  0 C s       :     2.912907  s :     2.912907
      pz      :     1.081528  p :     3.267052
      px      :     1.089384
      py      :     1.096140
      dz2     :     0.014042  d :     0.049278
      dxz     :     0.005619
      dyz     :     0.009249
      dx2y2   :     0.012045
      dxy     :     0.008323

  1 P s       :     4.957857  s :     4.957857
      pz      :     2.786299  p :     8.521689
      px      :     2.868016
      py      :     2.867374
      dz2     :     0.146595  d :     0.657952
      dxz     :     0.168685
      dyz     :     0.170095
      dx2y2   :     0.094789
      dxy     :     0.077788

  2 O s       :     3.667092  s :     3.667092
      pz      :     1.486165  p :     4.815061
      px      :     1.667617
      py      :     1.661280
      dz2     :     0.008920  d :     0.018495
      dxz     :     0.003617
      dyz     :     0.005161
      dx2y2   :     0.000402
      dxy     :     0.000395

  3 C s       :     2.912867  s :     2.912867
      pz      :     1.078771  p :     3.266971
      px      :     1.089094
      py      :     1.099106
      dz2     :     0.013769  d :     0.049286
      dxz     :     0.005675
      dyz     :     0.009434
      dx2y2   :     0.012159
      dxy     :     0.008250

  4 C s       :     2.924232  s :     2.924232
      pz      :     1.078184  p :     3.180542
      px      :     1.091994
      py      :     1.010365
      dz2     :     0.025029  d :     0.086010
      dxz     :     0.028311
      dyz     :     0.013667
      dx2y2   :     0.011855
      dxy     :     0.007147

  5 C s       :     2.873358  s :     2.873358
      pz      :     1.044526  p :     3.076002
      px      :     1.054256
      py      :     0.977219
      dz2     :     0.020750  d :     0.088049
      dxz     :     0.034296
      dyz     :     0.009510
      dx2y2   :     0.012648
      dxy     :     0.010845

  6 C s       :     2.872867  s :     2.872867
      pz      :     1.034072  p :     3.071563
      px      :     1.062038
      py      :     0.975453
      dz2     :     0.021107  d :     0.085819
      dxz     :     0.028742
      dyz     :     0.006102
      dx2y2   :     0.016036
      dxy     :     0.013832

  7 C s       :     2.874621  s :     2.874621
      pz      :     1.055909  p :     3.062067
      px      :     1.040637
      py      :     0.965521
      dz2     :     0.025636  d :     0.085530
      dxz     :     0.028304
      dyz     :     0.013018
      dx2y2   :     0.012075
      dxy     :     0.006497

  8 C s       :     2.873209  s :     2.873209
      pz      :     1.044005  p :     3.067554
      px      :     1.053450
      py      :     0.970099
      dz2     :     0.021100  d :     0.085942
      dxz     :     0.032677
      dyz     :     0.009209
      dx2y2   :     0.012810
      dxy     :     0.010145

  9 C s       :     2.876770  s :     2.876770
      pz      :     1.047055  p :     3.054793
      px      :     1.058751
      py      :     0.948988
      dz2     :     0.020347  d :     0.086663
      dxz     :     0.030017
      dyz     :     0.006076
      dx2y2   :     0.016189
      dxy     :     0.014034

 10 H s       :     0.888247  s :     0.888247
      pz      :     0.014150  p :     0.068128
      px      :     0.040271
      py      :     0.013707

 11 H s       :     0.896187  s :     0.896187
      pz      :     0.040055  p :     0.068914
      px      :     0.013047
      py      :     0.015812

 12 H s       :     0.884073  s :     0.884073
      pz      :     0.012879  p :     0.068311
      px      :     0.017453
      py      :     0.037979

 13 H s       :     0.884056  s :     0.884056
      pz      :     0.022064  p :     0.068312
      px      :     0.017907
      py      :     0.028342

 14 H s       :     0.896152  s :     0.896152
      pz      :     0.038125  p :     0.068929
      px      :     0.013005
      py      :     0.017799

 15 H s       :     0.888320  s :     0.888320
      pz      :     0.013504  p :     0.068125
      px      :     0.040199
      py      :     0.014422

 16 H s       :     0.907350  s :     0.907350
      pz      :     0.025328  p :     0.066319
      px      :     0.025717
      py      :     0.015274

 17 H s       :     0.900002  s :     0.900002
      pz      :     0.037129  p :     0.065971
      px      :     0.012844
      py      :     0.015997

 18 H s       :     0.899358  s :     0.899358
      pz      :     0.013107  p :     0.065833
      px      :     0.039253
      py      :     0.013473

 19 H s       :     0.898299  s :     0.898299
      pz      :     0.024905  p :     0.065910
      px      :     0.026177
      py      :     0.014828

 20 H s       :     0.890402  s :     0.890402
      pz      :     0.039792  p :     0.070705
      px      :     0.015594
      py      :     0.015319



                      *****************************
                      * MAYER POPULATION ANALYSIS *
                      *****************************

  NA   - Mulliken gross atomic population
  ZA   - Total nuclear charge
  QA   - Mulliken gross atomic charge
  VA   - Mayer's total valence
  BVA  - Mayer's bonded valence
  FA   - Mayer's free valence

  ATOM       NA         ZA         QA         VA         BVA        FA
  0 C      6.1753     6.0000    -0.1753     3.8451     3.8451    -0.0000
  1 P     14.5252    15.0000     0.4748     4.8533     4.8533    -0.0000
  2 O      8.4602     8.0000    -0.4602     2.1232     2.1232    -0.0000
  3 C      6.1747     6.0000    -0.1747     3.8449     3.8449    -0.0000
  4 C      6.1231     6.0000    -0.1231     3.7283     3.7283     0.0000
  5 C      6.0179     6.0000    -0.0179     3.8645     3.8645    -0.0000
  6 C      6.0007     6.0000    -0.0007     3.8725     3.8725    -0.0000
  7 C      5.9931     6.0000     0.0069     3.8323     3.8323    -0.0000
  8 C      5.9972     6.0000     0.0028     3.8264     3.8264    -0.0000
  9 C      6.0036     6.0000    -0.0036     3.8974     3.8974    -0.0000
 10 H      0.9242     1.0000     0.0758     0.9939     0.9939     0.0000
 11 H      0.9478     1.0000     0.0522     0.9961     0.9961     0.0000
 12 H      0.9170     1.0000     0.0830     0.9948     0.9948    -0.0000
 13 H      0.9170     1.0000     0.0830     0.9949     0.9949     0.0000
 14 H      0.9478     1.0000     0.0522     0.9963     0.9963     0.0000
 15 H      0.9243     1.0000     0.0757     0.9939     0.9939    -0.0000
 16 H      1.0023     1.0000    -0.0023     0.9847     0.9847    -0.0000
 17 H      0.9940     1.0000     0.0060     0.9791     0.9791     0.0000
 18 H      0.9904     1.0000     0.0096     0.9789     0.9789    -0.0000
 19 H      0.9889     1.0000     0.0111     0.9799     0.9799    -0.0000
 20 H      0.9752     1.0000     0.0248     1.0206     1.0206    -0.0000

  Mayer bond orders larger than 0.100000
B(  0-C ,  1-P ) :   0.9484 B(  0-C , 10-H ) :   0.9533 B(  0-C , 11-H ) :   0.9388 
B(  0-C , 12-H ) :   0.9527 B(  1-P ,  2-O ) :   1.9083 B(  1-P ,  3-C ) :   0.9484 
B(  1-P ,  4-C ) :   0.8547 B(  3-C , 13-H ) :   0.9526 B(  3-C , 14-H ) :   0.9388 
B(  3-C , 15-H ) :   0.9534 B(  4-C ,  5-C ) :   1.3460 B(  4-C ,  9-C ) :   1.4027 
B(  5-C ,  6-C ) :   1.4072 B(  5-C , 16-H ) :   0.9722 B(  6-C ,  7-C ) :   1.3792 
B(  6-C , 17-H ) :   0.9748 B(  7-C ,  8-C ) :   1.3851 B(  7-C , 18-H ) :   0.9758 
B(  8-C ,  9-C ) :   1.3643 B(  8-C , 19-H ) :   0.9792 B(  9-C , 20-H ) :   0.9694 


-------
TIMINGS
-------

Total SCF time: 0 days 0 hours 0 min 1 sec 

Total time                  ....       1.628 sec
Sum of individual times     ....       1.583 sec  ( 97.2%)

SCF preparation             ....       0.095 sec  (  5.8%)
Fock matrix formation       ....       1.325 sec  ( 81.4%)
  Startup                   ....       0.014 sec  (  1.1% of F)
  Split-RI-J                ....       0.372 sec  ( 28.1% of F)
  XC integration            ....       0.898 sec  ( 67.8% of F)
    Basis function eval.    ....       0.255 sec  ( 28.4% of XC)
    Density eval.           ....       0.192 sec  ( 21.4% of XC)
    XC-Functional eval.     ....       0.028 sec  (  3.1% of XC)
    XC-Potential eval.      ....       0.201 sec  ( 22.4% of XC)
Diagonalization             ....       0.000 sec  (  0.0%)
Density matrix formation    ....       0.020 sec  (  1.2%)
Total Energy calculation    ....       0.010 sec  (  0.6%)
Population analysis         ....       0.047 sec  (  2.9%)
Orbital Transformation      ....       0.012 sec  (  0.7%)
Orbital Orthonormalization  ....       0.000 sec  (  0.0%)
DIIS solution               ....       0.018 sec  (  1.1%)
SOSCF solution              ....       0.056 sec  (  3.4%)
Finished LeanSCF after   1.7 sec

Maximum memory used throughout the entire LEANSCF-calculation: 19.8 MB


-------------------------------------------------------------------------------
                          DFT DISPERSION CORRECTION                            
                                                                               
                              DFTD3 V3.1  Rev 1                                
                          USING Becke-Johnson damping                          
-------------------------------------------------------------------------------
The BP86 functional is recognized
Active option DFTDOPT                   ...         4   

molecular C6(AA) [au] = 5421.105205 


            DFT-D V3
 parameters
 s6 scaling factor         :     1.0000 
 a1 scaling factor         :     0.3946 
 s8 scaling factor         :     3.2822 
 a2 scaling factor         :     4.8516 
 ad hoc parameters k1-k3   :    16.0000     1.3333    -4.0000 

 Edisp/kcal,au: -24.769304720971  -0.039472395402 
 E6   /kcal   :  -8.952370458 
 E8   /kcal   : -15.816934263 
 % E8         :  63.856997366 

-------------------------   ----------------
Dispersion correction           -0.039472395
-------------------------   ----------------


-------------------------   --------------------
FINAL SINGLE POINT ENERGY      -727.767766196029
-------------------------   --------------------

                                *** OPTIMIZATION RUN DONE ***



           ************************************************************
           *        Program running with 6 parallel MPI-processes     *
           *              working on a common directory               *
           ************************************************************

------------------------------------------------------------------------------
                              ORCA PROPERTY CALCULATIONS
------------------------------------------------------------------------------

GBWName                                 ... data/geom_opt_PO_BP86/69597/69597.gbw
Number of atoms                         ...     21
Number of basis functions               ...    199
Max core memory                         ...   1024 MB

Electric properties:
Dipole moment                           ... YES
Quadrupole moment                       ...  NO
Static polarizability (Dipole/Dipole)   ...  NO
Static polarizability (Dipole/Quad.)    ...  NO
Static polarizability (Quad./Quad.)     ...  NO
Static polarizability (Velocity)        ...  NO

Atomic electric properties:
Dipole moment                           ...  NO
Quadrupole moment                       ...  NO
Static polarizability                   ...  NO

Choice of electric origin               ... Center of mass
Position of electric origin             ...     0.015576     0.179649    -0.579434

General magnetic properties:
Magnetizability                         ...  NO

EPR properties:
g-Tensor (aka g-matrix)                 ...  NO
Zero-Field splitting spin-orbit         ...  NO
Zero-field splitting spin-spin          ...  NO
Hyperfine couplings                     ...  NO (   0 nuclei)
Quadrupole couplings                    ...  NO (   0 nuclei)
Contact density                         ...  NO (   0 nuclei)

NMR properties:
Chemical shifts                         ...  NO (   0 nuclei)
Spin-rotation constants                 ...  NO (   0 nuclei)
Spin-spin couplings                     ...  NO (   0 nuclei,    0 pairs)

Choice of magnetic origin               ... GIAO
Position of magnetic origin             ...     0.000000     0.000000     0.000000

Properties with geometric perturbations:
SCF Hessian                             ...  NO
IR spectrum                             ...  NO
VCD spectrum                            ...  NO
X-ray spectroscopy properties:
SCF XES/XAS/RIXS spectra                ...  NO


-------------
DIPOLE MOMENT
-------------

Method             : SCF
Type of density    : Electron Density
Multiplicity       :   1
Irrep              :   0
Energy             :  -727.7282938006264885 Eh
Relativity type    : 
Basis              : AO
                                X                 Y                 Z
Electronic contribution:      1.904247008       1.313746688      -4.153900155
Nuclear contribution   :     -1.713757998      -1.748658719       5.566309691
                        -----------------------------------------
Total Dipole Moment    :      0.190489011      -0.434912030       1.412409536
                        -----------------------------------------
Magnitude (a.u.)       :      1.490078936
Magnitude (Debye)      :      3.787479660



--------------------
Rotational spectrum 
--------------------
 
Rotational constants in cm-1:             0.074199             0.025518             0.022587 
Rotational constants in MHz :          2224.436892           765.019547           677.139902 

Dipole components along the rotational axes: 
x,y,z [a.u.] :     0.571455     1.376141    -0.003184 
x,y,z [Debye]:     1.452524     3.497872    -0.008094 

 

Dipole moment calculation done in   0.0 sec 

Maximum memory used throughout the entire PROP-calculation: 9.6 MB

--------------------------------
SUGGESTED CITATIONS FOR THIS RUN
--------------------------------

Below you find a list of papers that are relevant to this ORCA run
We neither can nor want to force you to cite these papers, but we appreciate if you do
You receive ORCA, which is the product of decades of hard work by many enthusiastic individuals, for free
The only thing we kindly ask in return is that you cite our papers,
We deeply appreciate it, if you show your appreciation for ORCA by not just citing the generic ORCA reference.

Please note that relegating all ORCA citations to the supporting information does *not* help us.
SI sections are not indexed - citations you put there will not count into any citation statistics
But we need these citations in order to attract the funding resources that allow us to do what we are doing

Therefore, if you are a happy ORCA user, please consider citing a few of the papers listed below in the main body of your paper

In addition to the list printed below, the program has created the file data/geom_opt_PO_BP86/69597/69597.bibtex that contains the list in bibtex format
You can import this file easily into all common literature databanks and citation aid programs


List of essential papers. We consider these as the minimum necessary citations

  1. Neese,F.
     Software update: the ORCA program system, version 5.0
     WIRES Comput. Molec. Sci., 2022 12(1)e1606
     doi.org/10.1002/wcms.1606

List of papers to cite with high priority. The work reported in these papers was absolutely
necessary for this run to complete.
Our perspective: the developers of density functionals and basis sets usually get cited in chemistry papers
Good! But without the algorithms to do something with them, the functionals or basis sets would not do anything.
Hence, in our opinion, the algorithm design and method developments papers are equally worthy of getting cited

  1. Neese,F.
     An improvement of the resolution of the identity approximation for the formation of the Coulomb matrix
     J. Comp. Chem., 2003 24(14)1740-1747
     doi.org/10.1002/jcc.10318
  2. Neese,F.
     The SHARK Integral Generation and Digestion System
     J. Comp. Chem., 2022  1-16
     doi.org/10.1002/jcc.26942
  3. Grimme,S.; Antony,J.; Ehrlich,S.; Krieg,H.
     A consistent and accurate ab initio parametrization of density functional dispersion correction (DFT-D) for the 94 elements H-Pu
     J. Chem. Phys., 2010 132 154104-XXXX
     doi.org/10.1063/1.3382344
  4. Grimme,S.; Ehrlich,S.; Goerigk,L.
     Effect of the damping function in dispersion corrected density functional theory
     J. Comput. Chem., 2011 32(7)1456-1465
     doi.org/10.1002/jcc.21759

List of suggested additional citations. These are papers that are important in the 'surrounding' of 
of this run, or papers that preceded the highly important papers. If you like your results we are grateful for a citation.

  1. Neese,F.
     The ORCA program system
     WIRES Comput. Molec. Sci., 2012 2(1)73-78
     doi.org/10.1002/wcms.81
  2. Neese,F.
     Software update: the ORCA program system, version 4.0
     WIRES Comput. Molec. Sci., 2018 8(1)1-6
     doi.org/10.1002/wcms.1327
  3. Neese,F.; Wennmohs,F.; Becker,U.; Riplinger,C.
     The ORCA quantum chemistry program package
     J. Chem. Phys., 2020 152 Art. No. L224108
     doi.org/10.1063/5.0004608

List of optional additional citations

  1. Neese,F.
     Approximate second-order SCF convergence for spin unrestricted wavefunctions
     Chem. Phys. Lett., 2000 325(1-3)93-98
     doi.org/10.1016/s0009-2614(00)00662-x

Timings for individual modules:

Sum of individual times          ...       53.725 sec (=   0.895 min)
Startup calculation              ...        6.242 sec (=   0.104 min)  11.6 %
SCF iterations                   ...       30.592 sec (=   0.510 min)  56.9 %
Property calculations            ...        0.137 sec (=   0.002 min)   0.3 %
SCF Gradient evaluation          ...       16.687 sec (=   0.278 min)  31.1 %
Geometry relaxation              ...        0.067 sec (=   0.001 min)   0.1 %
                             ****ORCA TERMINATED NORMALLY****
TOTAL RUN TIME: 0 days 0 hours 0 minutes 55 seconds 362 msec
