
                                 *****************
                                 * O   R   C   A *
                                 *****************

                                            #,                                       
                                            ###                                      
                                            ####                                     
                                            #####                                    
                                            ######                                   
                                           ########,                                 
                                     ,,################,,,,,                         
                               ,,#################################,,                 
                          ,,##########################################,,             
                       ,#########################################, ''#####,          
                    ,#############################################,,   '####,        
                  ,##################################################,,,,####,       
                ,###########''''           ''''###############################       
              ,#####''   ,,,,##########,,,,          '''####'''          '####       
            ,##' ,,,,###########################,,,                        '##       
           ' ,,###''''                  '''############,,,                           
         ,,##''                                '''############,,,,        ,,,,,,###''
      ,#''                                            '''#######################'''  
     '                                                          ''''####''''         
             ,#######,   #######,   ,#######,      ##                                
            ,#'     '#,  ##    ##  ,#'     '#,    #''#        ,####,   ,####,        
            ##       ##  ##   ,#'  ##            #'  '#       #'       #'  '#        
            ##       ##  #######   ##           ,######,      #####,   #    #        
            '#,     ,#'  ##    ##  '#,     ,#' ,#      #,     #,   #   #,  ,#        
             '#######'   ##     ##  '#######'  #'      '#     '####' # '####'        



                #########################################################
                #                        -***-                          #
                #          Department of theory and spectroscopy        #
                #                                                       #
                #                      Frank Neese                      #
                #                                                       #
                #     Directorship, Architecture, Infrastructure        #
                #                    SHARK, DRIVERS                     #
                #        Core code/Algorithms in most modules           #
                #                                                       #
                #        Max Planck Institute fuer Kohlenforschung      #
                #                Kaiser Wilhelm Platz 1                 #
                #                 D-45470 Muelheim/Ruhr                 #
                #                      Germany                          #
                #                                                       #
                #                  All rights reserved                  #
                #                        -***-                          #
                #########################################################


                         Program Version 6.0.0  -   RELEASE   -


 With contributions from (in alphabetic order):
   Daniel Aravena         : Magnetic Suceptibility
   Michael Atanasov       : Ab Initio Ligand Field Theory (pilot matlab implementation)
   Alexander A. Auer      : GIAO ZORA, VPT2 properties, NMR spectrum
   Ute Becker             : All parallelization in ORCA, NUMFREQ, NUMCALC
   Giovanni Bistoni       : ED, misc. LED, open-shell LED, HFLD
   Martin Brehm           : Molecular dynamics
   Dmytro Bykov           : pre 5.0 version of the SCF Hessian
   Marcos Casanova-Páez   : Triplet and SCS-CIS(D). UHF-(DLPNO)-IP/EA/STEOM-CCSD. UHF-CVS-IP/STEOM-CCSD
   Vijay G. Chilkuri      : MRCI spin determinant printing, contributions to CSF-ICE
   Pauline Colinet        : FMM embedding
   Dipayan Datta          : RHF DLPNO-CCSD density
   Achintya Kumar Dutta   : EOM-CC, STEOM-CC
   Nicolas Foglia         : Exact transition moments, OPA infrastructure, MCD improvements
   Dmitry Ganyushin       : Spin-Orbit,Spin-Spin,Magnetic field MRCI
   Miquel Garcia          : C-PCM and meta-GGA Hessian, CCSD/C-PCM, Gaussian charge scheme
   Tiago L. C. Gouveia    : GS-ROHF, GS-ROCIS
   Yang Guo               : DLPNO-NEVPT2, F12-NEVPT2, CIM, IAO-localization
   Andreas Hansen         : Spin unrestricted coupled pair/coupled cluster methods
   Ingolf Harden          : AUTO-CI MPn and infrastructure 
   Benjamin Helmich-Paris : MC-RPA, TRAH-(SCF,CASSCF), AVAS, COSX integrals, SCF dyn. polar.
   Lee Huntington         : MR-EOM, pCC
   Robert Izsak           : Overlap fitted RIJCOSX, COSX-SCS-MP3, EOM
   Riya Kayal             : Wick's Theorem for AUTO-CI, AUTO-CI UHF-CCSDT
   Emily Kempfer          : AUTO-CI, RHF CISDT and CCSDT
   Christian Kollmar      : KDIIS, OOCD, Brueckner-CCSD(T), CCSD density, CASPT2, CASPT2-K, improved NEVPT2
   Axel Koslowski         : Symmetry handling
   Simone Kossmann        : Meta GGA functionals, TD-DFT gradient, OOMP2, (MP2 Hessian; deprecated post 5.0)
   Lucas Lang             : DCDCAS
   Marvin Lechner         : AUTO-CI (C++ implementation), FIC-MRCC
   Spencer Leger          : CASSCF response
   Dagmar Lenk            : GEPOL surface, SMD, ORCA-2-JSON
   Dimitrios Liakos       : Extrapolation schemes; Compound Job, initial MDCI parallelization
   Dimitrios Manganas     : Further ROCIS development; embedding schemes. LFT, Crystal Embedding
   Dimitrios Pantazis     : SARC Basis sets
   Anastasios Papadopoulos: AUTO-CI, single reference methods and gradients
   Taras Petrenko         : pre 6.0 DFT Hessian and TD-DFT gradient, (ASA, deprecated), ECA, 1-Electron XAS/XES, NRVS
   Peter Pinski           : DLPNO-MP2, DLPNO-MP2 Gradient
   Christoph Reimann      : Effective Core Potentials
   Marius Retegan         : Local ZFS, SOC
   Christoph Riplinger    : Optimizer, TS searches, QM/MM, DLPNO-CCSD(T), (RO)-DLPNO pert. Triples
   Michael Roemelt        : Original ROCIS implementation
   Masaaki Saitow         : Open-shell DLPNO-CCSD energy and density
   Barbara Sandhoefer     : DKH picture change effects
   Kantharuban Sivalingam : CASSCF convergence/infrastructure, NEVPT2 and variants, FIC-MRCI
   Bernardo de Souza      : ESD, SOC TD-DFT
   Georgi Stoychev        : AutoAux, RI-MP2 NMR, DLPNO-MP2 response, X2C
   Van Anh Tran           : RI-MP2 g-tensors
   Willem Van den Heuvel  : Paramagnetic NMR
   Zikuan Wang            : NOTCH, Electric field optimization 
   Frank Wennmohs         : Technical directorship and infrastructure
   Hang Xu                : AUTO-CI-Response properties 


 We gratefully acknowledge several colleagues who have allowed us to
 interface, adapt or use parts of their codes:
   Stefan Grimme, W. Hujo, H. Kruse, P. Pracht,  : VdW corrections, initial TS optimization,
                  C. Bannwarth, S. Ehlert,         DFT functionals, gCP, sTDA/sTD-DF
                  L. Wittmann, M. Mueller
   Ed Valeev, F. Pavosevic, A. Kumar             : LibInt (2-el integral package), F12 methods
   Garnet Chan, S. Sharma, J. Yang, R. Olivares  : DMRG
   Ulf Ekstrom                                   : XCFun DFT Library
   Mihaly Kallay                                 : mrcc  (arbitrary order and MRCC methods)
   Frank Weinhold                                : gennbo (NPA and NBO analysis)
   Simon Mueller                                 : openCOSMO-RS
   Christopher J. Cramer and Donald G. Truhlar   : smd solvation model
   Lars Goerigk                                  : TD-DFT with DH, B97 family of functionals
   V. Asgeirsson, H. Jonsson                     : NEB implementation
   FAccTs GmbH                                   : IRC, NEB, NEB-TS, DLPNO-Multilevel, CI-OPT
                                                   MM, QMMM, 2- and 3-layer-ONIOM, Crystal-QMMM,
                                                   LR-CPCM, SF, NACMEs, symmetry and pop. for TD-DFT,
                                                   nearIR, NL-DFT gradient (VV10), updates on ESD,
                                                   ML-optimized integration grids, MBIS, APM,
                                                   GOAT, DOCKER, SOLVATOR, interface openCOSMO-RS
   S Lehtola, MJT Oliveira, MAL Marques          : LibXC Library
   Liviu Ungur et al                             : ANISO software


 Your calculation uses the libint2 library for the computation of 2-el integrals
 For citations please refer to: http://libint.valeyev.net

 Your ORCA version has been built with support for libXC version: 6.2.2
 For citations please refer to: https://libxc.gitlab.io

 This ORCA versions uses:
   CBLAS   interface :  Fast vector & matrix operations
   LAPACKE interface :  Fast linear algebra routines
   Shared memory     :  Shared parallel matrices


Your calculation utilizes the atom-pairwise dispersion correction
with the Becke-Johnson damping scheme (D3BJ)


Warning: RI is on but no J-basis has been assigned. Assigning Def2/J (nothing to worry about!)
================================================================================

----- Orbital basis set information -----
Your calculation utilizes the basis: def2-SVP
   F. Weigend and R. Ahlrichs, Phys. Chem. Chem. Phys. 7, 3297 (2005).

----- AuxJ basis set information -----
Your calculation utilizes the auxiliary basis: def2/J
   F. Weigend, Phys. Chem. Chem. Phys. 8, 1057 (2006).

================================================================================
                                        WARNINGS
                       Please study these warnings very carefully!
================================================================================


WARNING: Geometry Optimization
  ===> : Switching off AutoStart
         For restart on a previous wavefunction, please use MOREAD

================================================================================
                                       INPUT FILE
================================================================================
NAME = data/geom_opt_P_BP86/80362/80362.inp
|  1> ! RI BP86 def2-SVP D3BJ TIGHTSCF Opt
|  2> %pal
|  3> nprocs 6
|  4> end
|  5> 
|  6> * xyz 0 1
|  7> C     -5.080952   -1.330850    0.058949
|  8> C     -3.613376   -1.616821   -0.059218
|  9> C     -2.687013   -0.894718    0.708940
| 10> C     -1.300318   -1.113791    0.593832
| 11> C     -0.864858   -2.085351   -0.317177
| 12> C     -1.778426   -2.800439   -1.096815
| 13> C     -3.145457   -2.563036   -0.973536
| 14> P     -0.190215   -0.125440    1.650084
| 15> C     -0.125782    1.500785    0.825537
| 16> C      0.439151    2.574536    1.534419
| 17> C      0.530175    3.846526    0.965314
| 18> C      0.051663    4.070709   -0.323000
| 19> C     -0.529928    3.027058   -1.047702
| 20> C     -0.602624    1.748057   -0.471830
| 21> C     -1.016811    3.251717   -2.448957
| 22> C      1.464639   -0.827374    1.349735
| 23> C      1.877902   -1.903047    2.153926
| 24> C      3.128876   -2.497591    1.975928
| 25> C      3.993906   -2.022704    0.993437
| 26> C      3.618539   -0.943422    0.189035
| 27> C      2.352073   -0.362596    0.366101
| 28> C      4.531245   -0.446565   -0.893160
| 29> H     -5.358636   -0.515882   -0.616505
| 30> H     -5.341397   -1.047004    1.084025
| 31> H     -5.674233   -2.216165   -0.192926
| 32> H     -3.056961   -0.143683    1.406582
| 33> H      0.191715   -2.303227   -0.448138
| 34> H     -1.418143   -3.543984   -1.803233
| 35> H     -3.842065   -3.123362   -1.592664
| 36> H      0.824136    2.427637    2.542115
| 37> H      0.977846    4.660854    1.528874
| 38> H      0.134421    5.064229   -0.757345
| 39> H     -1.033469    0.942731   -1.062695
| 40> H     -1.882645    2.617547   -2.666720
| 41> H     -1.331653    4.290647   -2.592795
| 42> H     -0.219834    3.022336   -3.162903
| 43> H      1.221315   -2.296176    2.928245
| 44> H      3.425536   -3.333258    2.604269
| 45> H      4.962862   -2.498207    0.860634
| 46> H      2.068176    0.460239   -0.286118
| 47> H      5.580057   -0.626504   -0.634685
| 48> H      4.307110   -0.957051   -1.834794
| 49> H      4.413451    0.632640   -1.037064
| 50> **                         ****END OF INPUT****
================================================================================

                       *****************************
                       * Geometry Optimization Run *
                       *****************************

Geometry optimization settings:
Update method            Update   .... BFGS
Choice of coordinates    CoordSys .... (2022) Redundant Internals
Initial Hessian          InHess   .... Almloef's Model
Max. no of cycles        MaxIter  .... 129

Convergence Tolerances:
Energy Change            TolE     ....  5.0000e-06 Eh
Max. Gradient            TolMAXG  ....  3.0000e-04 Eh/bohr
RMS Gradient             TolRMSG  ....  1.0000e-04 Eh/bohr
Max. Displacement        TolMAXD  ....  4.0000e-03 bohr
RMS Displacement         TolRMSD  ....  2.0000e-03 bohr
Strict Convergence                .... False

------------------------------------------------------------------------------
                        ORCA OPTIMIZATION COORDINATE SETUP
------------------------------------------------------------------------------

The optimization will be done in redundant internal coordinates (2022)
Making redundant internal coordinates   ...  (2022 redundants) done
Evaluating the initial hessian          ...  (Almloef) done
Evaluating the coordinates              ...  done
Calculating the B-matrix                .... done
Calculating the G-matrix                .... done
Diagonalizing the G-matrix              .... done
Small eigenvalue found = 3.050e-03
Small eigenvalue found = 3.224e-03
Small eigenvalue found = 5.775e-03
Small eigenvalue found = 1.472e-02
Small eigenvalue found = 1.709e-02
Small eigenvalue found = 2.345e-02
The first mode is                       ....   96
The number of degrees of freedom        ....  123

    -----------------------------------------------------------------
                    Redundant Internal Coordinates


    -----------------------------------------------------------------
         Definition                    Initial Value    Approx d2E/dq
    -----------------------------------------------------------------
      1. B(C   1,C   0)                  1.4998         0.417345   
      2. B(C   2,C   1)                  1.4034         0.594694   
      3. B(C   3,C   2)                  1.4086         0.583521   
      4. B(C   4,C   3)                  1.4012         0.599509   
      5. B(C   5,C   4)                  1.3978         0.607189   
      6. B(C   6,C   5)                  1.3930         0.618044   
      7. B(C   6,C   1)                  1.3965         0.610025   
      8. B(P   7,C   3)                  1.8234         0.427317   
      9. B(C   8,P   7)                  1.8245         0.425683   
     10. B(C   9,C   8)                  1.4052         0.590851   
     11. B(C  10,C   9)                  1.3965         0.610124   
     12. B(C  11,C  10)                  1.3925         0.619143   
     13. B(C  12,C  11)                  1.3974         0.608103   
     14. B(C  13,C  12)                  1.4045         0.592280   
     15. B(C  13,C   8)                  1.4042         0.593113   
     16. B(C  14,C  12)                  1.5003         0.416568   
     17. B(C  15,P   7)                  1.8225         0.428771   
     18. B(C  16,C  15)                  1.4052         0.590869   
     19. B(C  17,C  16)                  1.3965         0.610143   
     20. B(C  18,C  17)                  1.3925         0.619063   
     21. B(C  19,C  18)                  1.3974         0.607972   
     22. B(C  20,C  19)                  1.4045         0.592365   
     23. B(C  20,C  15)                  1.4040         0.593570   
     24. B(C  21,C  19)                  1.5003         0.416567   
     25. B(H  22,C   0)                  1.0943         0.354440   
     26. B(H  23,C   0)                  1.0951         0.353454   
     27. B(H  24,C   0)                  1.0951         0.353439   
     28. B(H  25,C   2)                  1.0898         0.360392   
     29. B(H  26,C   4)                  1.0867         0.364461   
     30. B(H  27,C   5)                  1.0871         0.364017   
     31. B(H  28,C   6)                  1.0874         0.363489   
     32. B(H  29,C   9)                  1.0887         0.361838   
     33. B(H  30,C  10)                  1.0868         0.364355   
     34. B(H  31,C  11)                  1.0875         0.363465   
     35. B(H  32,C  13)                  1.0878         0.363028   
     36. B(H  33,C  14)                  1.0951         0.353406   
     37. B(H  34,C  14)                  1.0951         0.353448   
     38. B(H  35,C  14)                  1.0943         0.354448   
     39. B(H  36,C  16)                  1.0887         0.361849   
     40. B(H  37,C  17)                  1.0868         0.364343   
     41. B(H  38,C  18)                  1.0875         0.363447   
     42. B(H  39,C  20)                  1.0877         0.363184   
     43. B(H  40,C  21)                  1.0951         0.353446   
     44. B(H  41,C  21)                  1.0943         0.354448   
     45. B(H  42,C  21)                  1.0951         0.353402   
     46. A(H  22,C   0,H  24)          108.8221         0.289269   
     47. A(C   1,C   0,H  23)          110.8480         0.329279   
     48. A(C   1,C   0,H  24)          110.9681         0.329277   
     49. A(H  22,C   0,H  23)          108.9292         0.289271   
     50. A(C   1,C   0,H  22)          109.9780         0.329431   
     51. A(H  23,C   0,H  24)          107.2178         0.289143   
     52. A(C   0,C   1,C   6)          120.5723         0.403341   
     53. A(C   0,C   1,C   2)          120.3075         0.401535   
     54. A(C   2,C   1,C   6)          119.0653         0.429574   
     55. A(C   1,C   2,C   3)          121.6716         0.426167   
     56. A(C   1,C   2,H  25)          118.7446         0.350479   
     57. A(C   3,C   2,H  25)          119.5831         0.349359   
     58. A(C   4,C   3,P   7)          124.2798         0.430529   
     59. A(C   2,C   3,P   7)          117.8851         0.428446   
     60. A(C   2,C   3,C   4)          117.8329         0.426783   
     61. A(C   3,C   4,C   5)          120.9459         0.429837   
     62. A(C   3,C   4,H  26)          121.2989         0.351624   
     63. A(C   5,C   4,H  26)          117.7534         0.352381   
     64. A(C   6,C   5,H  27)          119.9569         0.353367   
     65. A(C   4,C   5,H  27)          119.7206         0.352309   
     66. A(C   4,C   5,C   6)          120.3224         0.432194   
     67. A(C   5,C   6,H  28)          119.3709         0.353280   
     68. A(C   1,C   6,C   5)          120.1487         0.432556   
     69. A(C   1,C   6,H  28)          120.4801         0.352500   
     70. A(C   8,P   7,C  15)          103.6951         0.432177   
     71. A(C   3,P   7,C  15)          104.3933         0.432475   
     72. A(C   3,P   7,C   8)          104.0545         0.431913   
     73. A(P   7,C   8,C   9)          117.8597         0.429112   
     74. A(C   9,C   8,C  13)          117.9086         0.426917   
     75. A(P   7,C   8,C  13)          124.2316         0.429406   
     76. A(C  10,C   9,H  29)          118.4941         0.352238   
     77. A(C   8,C   9,C  10)          121.1064         0.429087   
     78. A(C   8,C   9,H  29)          120.3978         0.350333   
     79. A(C  11,C  10,H  30)          120.0449         0.353529   
     80. A(C   9,C  10,H  30)          119.8692         0.352652   
     81. A(C   9,C  10,C  11)          120.0856         0.432707   
     82. A(C  10,C  11,C  12)          120.1726         0.432449   
     83. A(C  12,C  11,H  31)          120.4560         0.352308   
     84. A(C  10,C  11,H  31)          119.3714         0.353382   
     85. A(C  13,C  12,C  14)          120.1644         0.401116   
     86. A(C  11,C  12,C  14)          120.5037         0.402984   
     87. A(C  11,C  12,C  13)          119.2757         0.429018   
     88. A(C  12,C  13,H  32)          118.1608         0.350670   
     89. A(C   8,C  13,H  32)          120.3974         0.350753   
     90. A(C   8,C  13,C  12)          121.4398         0.427102   
     91. A(H  33,C  14,H  35)          108.9473         0.289266   
     92. A(H  33,C  14,H  34)          107.2157         0.289138   
     93. A(C  12,C  14,H  34)          110.9796         0.329177   
     94. A(C  12,C  14,H  33)          110.8289         0.329171   
     95. A(C  12,C  14,H  35)          109.9744         0.329331   
     96. A(H  34,C  14,H  35)          108.8179         0.289271   
     97. A(C  16,C  15,C  20)          117.9357         0.426979   
     98. A(P   7,C  15,C  20)          124.1882         0.430023   
     99. A(P   7,C  15,C  16)          117.8761         0.429671   
    100. A(C  17,C  16,H  36)          118.5019         0.352242   
    101. A(C  15,C  16,H  36)          120.4043         0.350336   
    102. A(C  15,C  16,C  17)          121.0924         0.429092   
    103. A(C  16,C  17,C  18)          120.0809         0.432699   
    104. A(C  18,C  17,H  37)          120.0380         0.353519   
    105. A(C  16,C  17,H  37)          119.8809         0.352651   
    106. A(C  17,C  18,C  19)          120.1764         0.432422   
    107. A(C  19,C  18,H  38)          120.4472         0.352292   
    108. A(C  17,C  18,H  38)          119.3763         0.353372   
    109. A(C  18,C  19,C  20)          119.2772         0.429012   
    110. A(C  20,C  19,C  21)          120.1671         0.401126   
    111. A(C  18,C  19,C  21)          120.5015         0.402969   
    112. A(C  15,C  20,C  19)          121.4257         0.427172   
    113. A(C  19,C  20,H  39)          118.2038         0.350704   
    114. A(C  15,C  20,H  39)          120.3696         0.350824   
    115. A(H  41,C  21,H  42)          108.9422         0.289265   
    116. A(H  40,C  21,H  42)          107.2154         0.289137   
    117. A(C  19,C  21,H  42)          110.8363         0.329170   
    118. A(H  40,C  21,H  41)          108.8213         0.289271   
    119. A(C  19,C  21,H  41)          109.9733         0.329331   
    120. A(C  19,C  21,H  40)          110.9752         0.329177   
    121. D(C   6,C   1,C   0,H  23)    148.6525         0.012884   
    122. D(C   2,C   1,C   0,H  24)   -153.0908         0.012884   
    123. D(C   2,C   1,C   0,H  22)     86.4484         0.012884   
    124. D(C   6,C   1,C   0,H  22)    -90.8303         0.012884   
    125. D(C   2,C   1,C   0,H  23)    -34.0688         0.012884   
    126. D(C   3,C   2,C   1,C   0)   -178.2160         0.024358   
    127. D(H  25,C   2,C   1,C   0)      1.4836         0.024358   
    128. D(H  25,C   2,C   1,C   6)    178.8031         0.024358   
    129. D(C   3,C   2,C   1,C   6)     -0.8966         0.024358   
    130. D(P   7,C   3,C   2,H  25)      0.7106         0.023407   
    131. D(C   4,C   3,C   2,H  25)   -179.8157         0.023407   
    132. D(P   7,C   3,C   2,C   1)   -179.5922         0.023407   
    133. D(C   4,C   3,C   2,C   1)     -0.1185         0.023407   
    134. D(C   5,C   4,C   3,C   2)      0.7754         0.024775   
    135. D(C   5,C   4,C   3,P   7)   -179.7876         0.024775   
    136. D(H  26,C   4,C   3,C   2)   -179.7289         0.024775   
    137. D(H  26,C   4,C   3,P   7)     -0.2919         0.024775   
    138. D(H  27,C   5,C   4,H  26)     -0.0157         0.025449   
    139. D(C   6,C   5,C   4,C   3)     -0.4128         0.025449   
    140. D(C   6,C   5,C   4,H  26)   -179.9258         0.025449   
    141. D(H  27,C   5,C   4,C   3)    179.4974         0.025449   
    142. D(H  28,C   6,C   5,H  27)     -0.3303         0.026422   
    143. D(H  28,C   6,C   5,C   4)    179.5796         0.026422   
    144. D(C   1,C   6,C   5,H  27)    179.4573         0.026422   
    145. D(C   1,C   6,C   5,C   4)     -0.6328         0.026422   
    146. D(H  28,C   6,C   1,C   2)   -178.9475         0.025701   
    147. D(H  28,C   6,C   1,C   0)     -1.6354         0.025701   
    148. D(C   5,C   6,C   1,C   2)      1.2673         0.025701   
    149. D(C   5,C   6,C   1,C   0)    178.5794         0.025701   
    150. D(C   8,P   7,C   3,C   4)    102.7161         0.003773   
    151. D(C   8,P   7,C   3,C   2)    -77.8471         0.003773   
    152. D(C  15,P   7,C   3,C   4)     -5.7180         0.003773   
    153. D(C  15,P   7,C   3,C   2)    173.7187         0.003773   
    154. D(C  13,C   8,P   7,C  15)     96.4854         0.003755   
    155. D(C  13,C   8,P   7,C   3)    -12.4650         0.003755   
    156. D(C   9,C   8,P   7,C  15)    -83.4322         0.003755   
    157. D(C   9,C   8,P   7,C   3)    167.6174         0.003755   
    158. D(H  29,C   9,C   8,C  13)   -179.8223         0.024028   
    159. D(H  29,C   9,C   8,P   7)      0.1006         0.024028   
    160. D(C  10,C   9,C   8,C  13)     -0.3115         0.024028   
    161. D(C  10,C   9,C   8,P   7)    179.6114         0.024028   
    162. D(H  30,C  10,C   9,H  29)     -0.0105         0.025710   
    163. D(H  30,C  10,C   9,C   8)   -179.5304         0.025710   
    164. D(C  11,C  10,C   9,H  29)    179.8190         0.025710   
    165. D(C  11,C  10,C   9,C   8)      0.2991         0.025710   
    166. D(H  31,C  11,C  10,H  30)      0.2325         0.026521   
    167. D(H  31,C  11,C  10,C   9)   -179.5967         0.026521   
    168. D(C  12,C  11,C  10,C   9)      0.4617         0.026521   
    169. D(C  12,C  11,C  10,H  30)   -179.7091         0.026521   
    170. D(C  14,C  12,C  11,H  31)      1.5959         0.025530   
    171. D(C  14,C  12,C  11,C  10)   -178.4631         0.025530   
    172. D(C  13,C  12,C  11,H  31)    178.8757         0.025530   
    173. D(C  13,C  12,C  11,C  10)     -1.1833         0.025530   
    174. D(H  32,C  13,C  12,C  14)     -1.0163         0.024150   
    175. D(H  32,C  13,C  12,C  11)   -178.3056         0.024150   
    176. D(C   8,C  13,C  12,C  14)    178.4685         0.024150   
    177. D(C   8,C  13,C  12,C  11)      1.1793         0.024150   
    178. D(H  32,C  13,C   8,C   9)    179.0410         0.024222   
    179. D(H  32,C  13,C   8,P   7)     -0.8765         0.024222   
    180. D(C  12,C  13,C   8,C   9)     -0.4324         0.024222   
    181. D(C  12,C  13,C   8,P   7)    179.6501         0.024222   
    182. D(H  33,C  14,C  12,C  13)     34.5711         0.012838   
    183. D(H  33,C  14,C  12,C  11)   -148.1733         0.012838   
    184. D(H  35,C  14,C  12,C  11)     91.3017         0.012838   
    185. D(H  34,C  14,C  12,C  13)    153.5855         0.012838   
    186. D(H  34,C  14,C  12,C  11)    -29.1589         0.012838   
    187. D(C  20,C  15,P   7,C   8)    -17.3585         0.003789   
    188. D(C  20,C  15,P   7,C   3)     91.3400         0.003789   
    189. D(C  16,C  15,P   7,C   8)    162.6793         0.003789   
    190. D(C  16,C  15,P   7,C   3)    -88.6223         0.003789   
    191. D(H  36,C  16,C  15,C  20)   -179.9374         0.024029   
    192. D(H  36,C  16,C  15,P   7)      0.0272         0.024029   
    193. D(C  17,C  16,C  15,C  20)     -0.3863         0.024029   
    194. D(C  17,C  16,C  15,P   7)    179.5784         0.024029   
    195. D(H  37,C  17,C  16,H  36)      0.0079         0.025712   
    196. D(H  37,C  17,C  16,C  15)   -179.5515         0.025712   
    197. D(C  18,C  17,C  16,H  36)    179.8770         0.025712   
    198. D(C  18,C  17,C  16,C  15)      0.3175         0.025712   
    199. D(H  38,C  18,C  17,H  37)      0.2462         0.026514   
    200. D(H  38,C  18,C  17,C  16)   -179.6227         0.026514   
    201. D(C  19,C  18,C  17,H  37)   -179.6304         0.026514   
    202. D(C  19,C  18,C  17,C  16)      0.5007         0.026514   
    203. D(C  21,C  19,C  18,H  38)      1.5772         0.025519   
    204. D(C  21,C  19,C  18,C  17)   -178.5475         0.025519   
    205. D(C  20,C  19,C  18,H  38)    178.9037         0.025519   
    206. D(C  20,C  19,C  18,C  17)     -1.2210         0.025519   
    207. D(H  39,C  20,C  19,C  21)     -1.1543         0.024157   
    208. D(H  39,C  20,C  19,C  18)   -178.4899         0.024157   
    209. D(C  15,C  20,C  19,C  21)    178.4936         0.024157   
    210. D(C  15,C  20,C  19,C  18)      1.1580         0.024157   
    211. D(H  39,C  20,C  15,C  16)    179.2842         0.024261   
    212. D(H  39,C  20,C  15,P   7)     -0.6781         0.024261   
    213. D(C  19,C  20,C  15,C  16)     -0.3561         0.024261   
    214. D(C  19,C  20,C  15,P   7)    179.6816         0.024261   
    215. D(H  42,C  21,C  19,C  18)   -148.2974         0.012838   
    216. D(H  41,C  21,C  19,C  20)    -86.1227         0.012838   
    217. D(H  41,C  21,C  19,C  18)     91.1799         0.012838   
    218. D(H  40,C  21,C  19,C  20)    153.4160         0.012838   
    219. D(H  40,C  21,C  19,C  18)    -29.2813         0.012838   
    -----------------------------------------------------------------

Number of atoms                         .... 43
Number of degrees of freedom            .... 219


         *************************************************************
         *                GEOMETRY OPTIMIZATION CYCLE   1            *
         *************************************************************
---------------------------------
CARTESIAN COORDINATES (ANGSTROEM)
---------------------------------
  C     -5.080952   -1.330850    0.058949
  C     -3.613376   -1.616821   -0.059218
  C     -2.687013   -0.894718    0.708940
  C     -1.300318   -1.113791    0.593832
  C     -0.864858   -2.085351   -0.317177
  C     -1.778426   -2.800439   -1.096815
  C     -3.145457   -2.563036   -0.973536
  P     -0.190215   -0.125440    1.650084
  C     -0.125782    1.500785    0.825537
  C      0.439151    2.574536    1.534419
  C      0.530175    3.846526    0.965314
  C      0.051663    4.070709   -0.323000
  C     -0.529928    3.027058   -1.047702
  C     -0.602624    1.748057   -0.471830
  C     -1.016811    3.251717   -2.448957
  C      1.464639   -0.827374    1.349735
  C      1.877902   -1.903047    2.153926
  C      3.128876   -2.497591    1.975928
  C      3.993906   -2.022704    0.993437
  C      3.618539   -0.943422    0.189035
  C      2.352073   -0.362596    0.366101
  C      4.531245   -0.446565   -0.893160
  H     -5.358636   -0.515882   -0.616505
  H     -5.341397   -1.047004    1.084025
  H     -5.674233   -2.216165   -0.192926
  H     -3.056961   -0.143683    1.406582
  H      0.191715   -2.303227   -0.448138
  H     -1.418143   -3.543984   -1.803233
  H     -3.842065   -3.123362   -1.592664
  H      0.824136    2.427637    2.542115
  H      0.977846    4.660854    1.528874
  H      0.134421    5.064229   -0.757345
  H     -1.033469    0.942731   -1.062695
  H     -1.882645    2.617547   -2.666720
  H     -1.331653    4.290647   -2.592795
  H     -0.219834    3.022336   -3.162903
  H      1.221315   -2.296176    2.928245
  H      3.425536   -3.333258    2.604269
  H      4.962862   -2.498207    0.860634
  H      2.068176    0.460239   -0.286118
  H      5.580057   -0.626504   -0.634685
  H      4.307110   -0.957051   -1.834794
  H      4.413451    0.632640   -1.037064

----------------------------
CARTESIAN COORDINATES (A.U.)
----------------------------
  NO LB      ZA    FRAG     MASS         X           Y           Z
   0 C     6.0000    0    12.011   -9.601608   -2.514942    0.111397
   1 C     6.0000    0    12.011   -6.828291   -3.055349   -0.111906
   2 C     6.0000    0    12.011   -5.077719   -1.690772    1.339702
   3 C     6.0000    0    12.011   -2.457245   -2.104760    1.122180
   4 C     6.0000    0    12.011   -1.634345   -3.940742   -0.599378
   5 C     6.0000    0    12.011   -3.360738   -5.292063   -2.072680
   6 C     6.0000    0    12.011   -5.944052   -4.843436   -1.839716
   7 P    15.0000    0    30.974   -0.359454   -0.237047    3.118207
   8 C     6.0000    0    12.011   -0.237694    2.836073    1.560039
   9 C     6.0000    0    12.011    0.829875    4.865168    2.899632
  10 C     6.0000    0    12.011    1.001886    7.268881    1.824179
  11 C     6.0000    0    12.011    0.097629    7.692525   -0.610382
  12 C     6.0000    0    12.011   -1.001419    5.720311   -1.979870
  13 C     6.0000    0    12.011   -1.138794    3.303349   -0.891629
  14 C     6.0000    0    12.011   -1.921494    6.144855   -4.627858
  15 C     6.0000    0    12.011    2.767767   -1.563510    2.550630
  16 C     6.0000    0    12.011    3.548720   -3.596238    4.070330
  17 C     6.0000    0    12.011    5.912719   -4.719763    3.733963
  18 C     6.0000    0    12.011    7.547389   -3.822357    1.877324
  19 C     6.0000    0    12.011    6.838048   -1.782809    0.357224
  20 C     6.0000    0    12.011    4.444774   -0.685207    0.691831
  21 C     6.0000    0    12.011    8.562812   -0.843886   -1.687828
  22 H     1.0000    0     1.008  -10.126354   -0.974876   -1.165026
  23 H     1.0000    0     1.008  -10.093778   -1.978551    2.048510
  24 H     1.0000    0     1.008  -10.722746   -4.187945   -0.364577
  25 H     1.0000    0     1.008   -5.776819   -0.271522    2.658055
  26 H     1.0000    0     1.008    0.362289   -4.352468   -0.846858
  27 H     1.0000    0     1.008   -2.679902   -6.697159   -3.407617
  28 H     1.0000    0     1.008   -7.260451   -5.902299   -3.009699
  29 H     1.0000    0     1.008    1.557391    4.587569    4.803901
  30 H     1.0000    0     1.008    1.847861    8.807738    2.889153
  31 H     1.0000    0     1.008    0.254019    9.570006   -1.431175
  32 H     1.0000    0     1.008   -1.952973    1.781503   -2.008203
  33 H     1.0000    0     1.008   -3.557683    4.946447   -5.039370
  34 H     1.0000    0     1.008   -2.516459    8.108148   -4.899672
  35 H     1.0000    0     1.008   -0.415426    5.711387   -5.977020
  36 H     1.0000    0     1.008    2.307951   -4.339144    5.533581
  37 H     1.0000    0     1.008    6.473325   -6.298945    4.921355
  38 H     1.0000    0     1.008    9.378450   -4.720927    1.626363
  39 H     1.0000    0     1.008    3.908286    0.869726   -0.540685
  40 H     1.0000    0     1.008   10.544780   -1.183921   -1.199381
  41 H     1.0000    0     1.008    8.139258   -1.808564   -3.467258
  42 H     1.0000    0     1.008    8.340214    1.195516   -1.959767

--------------------------------
INTERNAL COORDINATES (ANGSTROEM)
--------------------------------
 C      0   0   0     0.000000000000     0.00000000     0.00000000
 C      1   0   0     1.499840714378     0.00000000     0.00000000
 C      2   1   0     1.403441435665   120.30747170     0.00000000
 C      3   2   1     1.408604221923   121.67162938   181.78397194
 C      4   3   2     1.401246460578   117.83290134   359.88147275
 C      5   4   3     1.397781366814   120.94587552     0.77540086
 C      6   5   4     1.392957878477   120.32242739   359.58723541
 P      4   3   2     1.823412914650   117.88505462   180.40778940
 C      8   4   3     1.824455293320   104.05447849   282.15285660
 C      9   8   4     1.405206103892   117.85970230   167.61743243
 C     10   9   8     1.396468556646   121.10640579   179.61140891
 C     11  10   9     1.392474313669   120.08560839     0.29907482
 C     12  11  10     1.397371994097   120.17256601     0.46173683
 C      9   8   4     1.404166253560   124.23161005   347.53499053
 C     13  12  11     1.500347392105   120.50371935   181.53686324
 C      8   4   3     1.822488031092   104.39330052   173.71868080
 C     16   8   4     1.405198162032   117.87608886   271.37771150
 C     17  16   8     1.396460455801   121.09238119   179.57836574
 C     18  17  16     1.392509651223   120.08093577     0.31754115
 C     19  18  17     1.397430713065   120.17637695     0.50070527
 C     16   8   4     1.403956388068   124.18821017    91.33997345
 C     20  19  18     1.500348339190   120.50150088   181.45254282
 H      1   2   3     1.094312273072   109.97799324    86.44835455
 H      1   2   3     1.095071210249   110.84797973   325.93121475
 H      1   2   3     1.095082649763   110.96809091   206.90919382
 H      3   2   1     1.089779543804   118.74459309     1.48363302
 H      5   4   3     1.086723165864   121.29889828   180.27107184
 H      6   5   4     1.087055379380   119.72061890   179.49739437
 H      7   6   5     1.087449958538   119.37086861   179.57961576
 H     10   9   8     1.088689117628   120.39775913     0.10060186
 H     11  10   9     1.086802323068   119.86924047   180.46963020
 H     12  11  10     1.087467910326   119.37138161   180.40334670
 H     14   9   8     1.087795398283   120.39739638   359.12347434
 H     15  13  12     1.095107679009   110.82886458   211.82670068
 H     15  13  12     1.095075522559   110.97959217   330.84113811
 H     15  13  12     1.094306571581   109.97441428    91.30174318
 H     17  16   8     1.088681226517   120.40427938     0.02723115
 H     18  17  16     1.086811346449   119.88092383   180.44847095
 H     19  18  17     1.087481250300   119.37629938   180.37733897
 H     21  16   8     1.087678522264   120.36955623   359.32191895
 H     22  20  19     1.095077157414   110.97516800   330.71867943
 H     22  20  19     1.094306650065   109.97329913    91.17994154
 H     22  20  19     1.095110597007   110.83633356   211.70261970

---------------------------
INTERNAL COORDINATES (A.U.)
---------------------------
 C      0   0   0     0.000000000000     0.00000000     0.00000000
 C      1   0   0     2.834288194679     0.00000000     0.00000000
 C      2   1   0     2.652119958404   120.30747170     0.00000000
 C      3   2   1     2.661876210519   121.67162938   181.78397194
 C      4   3   2     2.647972056618   117.83290134   359.88147275
 C      5   4   3     2.641423978376   120.94587552     0.77540086
 C      6   5   4     2.632308906409   120.32242739   359.58723541
 P      4   3   2     3.445751037744   117.88505462   180.40778940
 C      8   4   3     3.447720847958   104.05447849   282.15285660
 C      9   8   4     2.655454698069   117.85970230   167.61743243
 C     10   9   8     2.638943126693   121.10640579   179.61140891
 C     11  10   9     2.631395101355   120.08560839     0.29907482
 C     12  11  10     2.640650376054   120.17256601     0.46173683
 C      9   8   4     2.653489665723   124.23161005   347.53499053
 C     13  12  11     2.835245676821   120.50371935   181.53686324
 C      8   4   3     3.444003261113   104.39330052   173.71868080
 C     16   8   4     2.655439690131   117.87608886   271.37771150
 C     17  16   8     2.638927818315   121.09238119   179.57836574
 C     18  17  16     2.631461879654   120.08093577     0.31754115
 C     19  18  17     2.640761338823   120.17637695     0.50070527
 C     16   8   4     2.653093077417   124.18821017    91.33997345
 C     20  19  18     2.835247466553   120.50150088   181.45254282
 H      1   2   3     2.067950501095   109.97799324    86.44835455
 H      1   2   3     2.069384684513   110.84797973   325.93121475
 H      1   2   3     2.069406302060   110.96809091   206.90919382
 H      3   2   1     2.059384884139   118.74459309     1.48363302
 H      5   4   3     2.053609166871   121.29889828   180.27107184
 H      6   5   4     2.054236959433   119.72061890   179.49739437
 H      7   6   5     2.054982605981   119.37086861   179.57961576
 H     10   9   8     2.057324277298   120.39775913     0.10060186
 H     11  10   9     2.053758752307   119.86924047   180.46963020
 H     12  11  10     2.055016529944   119.37138161   180.40334670
 H     14   9   8     2.055635392495   120.39739638   359.12347434
 H     15  13  12     2.069453600482   110.82886458   211.82670068
 H     15  13  12     2.069392833597   110.97959217   330.84113811
 H     15  13  12     2.067939726839   109.97441428    91.30174318
 H     17  16   8     2.057309365259   120.40427938     0.02723115
 H     18  17  16     2.053775804027   119.88092383   180.44847095
 H     19  18  17     2.055041738841   119.37629938   180.37733897
 H     21  16   8     2.055414528828   120.36955623   359.32191895
 H     22  20  19     2.069395923025   110.97516800   330.71867943
 H     22  20  19     2.067939875152   109.97329913    91.17994154
 H     22  20  19     2.069459114698   110.83633356   211.70261970

---------------------
BASIS SET INFORMATION
---------------------
There are 3 groups of distinct atoms

 Group   1 Type C   : 7s4p1d contracted to 3s2p1d pattern {511/31/1}
 Group   2 Type P   : 10s7p1d contracted to 4s3p1d pattern {5311/511/1}
 Group   3 Type H   : 4s1p contracted to 2s1p pattern {31/1}

Atom   0C    basis set group =>   1
Atom   1C    basis set group =>   1
Atom   2C    basis set group =>   1
Atom   3C    basis set group =>   1
Atom   4C    basis set group =>   1
Atom   5C    basis set group =>   1
Atom   6C    basis set group =>   1
Atom   7P    basis set group =>   2
Atom   8C    basis set group =>   1
Atom   9C    basis set group =>   1
Atom  10C    basis set group =>   1
Atom  11C    basis set group =>   1
Atom  12C    basis set group =>   1
Atom  13C    basis set group =>   1
Atom  14C    basis set group =>   1
Atom  15C    basis set group =>   1
Atom  16C    basis set group =>   1
Atom  17C    basis set group =>   1
Atom  18C    basis set group =>   1
Atom  19C    basis set group =>   1
Atom  20C    basis set group =>   1
Atom  21C    basis set group =>   1
Atom  22H    basis set group =>   3
Atom  23H    basis set group =>   3
Atom  24H    basis set group =>   3
Atom  25H    basis set group =>   3
Atom  26H    basis set group =>   3
Atom  27H    basis set group =>   3
Atom  28H    basis set group =>   3
Atom  29H    basis set group =>   3
Atom  30H    basis set group =>   3
Atom  31H    basis set group =>   3
Atom  32H    basis set group =>   3
Atom  33H    basis set group =>   3
Atom  34H    basis set group =>   3
Atom  35H    basis set group =>   3
Atom  36H    basis set group =>   3
Atom  37H    basis set group =>   3
Atom  38H    basis set group =>   3
Atom  39H    basis set group =>   3
Atom  40H    basis set group =>   3
Atom  41H    basis set group =>   3
Atom  42H    basis set group =>   3
---------------------------------
AUXILIARY/J BASIS SET INFORMATION
---------------------------------
There are 3 groups of distinct atoms

 Group   1 Type C   : 12s5p4d2f1g contracted to 6s4p3d1f1g pattern {711111/2111/211/2/1}
 Group   2 Type P   : 14s5p5d2f1g contracted to 8s4p3d1f1g pattern {71111111/2111/311/2/1}
 Group   3 Type H   : 5s2p1d contracted to 3s1p1d pattern {311/2/1}

Atom   0C    basis set group =>   1
Atom   1C    basis set group =>   1
Atom   2C    basis set group =>   1
Atom   3C    basis set group =>   1
Atom   4C    basis set group =>   1
Atom   5C    basis set group =>   1
Atom   6C    basis set group =>   1
Atom   7P    basis set group =>   2
Atom   8C    basis set group =>   1
Atom   9C    basis set group =>   1
Atom  10C    basis set group =>   1
Atom  11C    basis set group =>   1
Atom  12C    basis set group =>   1
Atom  13C    basis set group =>   1
Atom  14C    basis set group =>   1
Atom  15C    basis set group =>   1
Atom  16C    basis set group =>   1
Atom  17C    basis set group =>   1
Atom  18C    basis set group =>   1
Atom  19C    basis set group =>   1
Atom  20C    basis set group =>   1
Atom  21C    basis set group =>   1
Atom  22H    basis set group =>   3
Atom  23H    basis set group =>   3
Atom  24H    basis set group =>   3
Atom  25H    basis set group =>   3
Atom  26H    basis set group =>   3
Atom  27H    basis set group =>   3
Atom  28H    basis set group =>   3
Atom  29H    basis set group =>   3
Atom  30H    basis set group =>   3
Atom  31H    basis set group =>   3
Atom  32H    basis set group =>   3
Atom  33H    basis set group =>   3
Atom  34H    basis set group =>   3
Atom  35H    basis set group =>   3
Atom  36H    basis set group =>   3
Atom  37H    basis set group =>   3
Atom  38H    basis set group =>   3
Atom  39H    basis set group =>   3
Atom  40H    basis set group =>   3
Atom  41H    basis set group =>   3
Atom  42H    basis set group =>   3


           ************************************************************
           *        Program running with 6 parallel MPI-processes     *
           *              working on a common directory               *
           ************************************************************
------------------------------------------------------------------------------
                             ORCA STARTUP CALCULATIONS
                           -- RI-GTO INTEGRALS CHOSEN --
------------------------------------------------------------------------------
------------------------------------------------------------------------------
                   ___                                                        
                  /   \      - P O W E R E D   B Y -                         
                 /     \                                                     
                 |  |  |   _    _      __       _____    __    __             
                 |  |  |  | |  | |    /  \     |  _  \  |  |  /  |          
                  \  \/   | |  | |   /    \    | | | |  |  | /  /          
                 / \  \   | |__| |  /  /\  \   | |_| |  |  |/  /          
                |  |  |   |  __  | /  /__\  \  |    /   |      \           
                |  |  |   | |  | | |   __   |  |    \   |  |\   \          
                \     /   | |  | | |  |  |  |  | |\  \  |  | \   \       
                 \___/    |_|  |_| |__|  |__|  |_| \__\ |__|  \__/        
                                                                              
                      - O R C A' S   B I G   F R I E N D -                    
                                      &                                       
                       - I N T E G R A L  F E E D E R -                       
                                                                              
 v1 FN, 2020, v2 2021, v3 2022-2024                                           
------------------------------------------------------------------------------


----------------------
SHARK INTEGRAL PACKAGE
----------------------

Number of atoms                             ...     43
Number of basis functions                   ...    417
Number of shells                            ...    197
Maximum angular momentum                    ...      2
Integral batch strategy                     ... SHARK/LIBINT Hybrid
RI-J (if used) integral strategy            ... SPLIT-RIJ (Revised 2003 algorithm where possible)
Printlevel                                  ...      1
Contraction scheme used                     ... SEGMENTED contraction
Prescreening option                         ... SCHWARTZ
   Thresh                                   ... 2.500e-11
   Tcut                                     ... 2.500e-12
   Tpresel                                  ... 2.500e-12 
Coulomb Range Separation                    ... NOT USED
Exchange Range Separation                   ... NOT USED
Multipole approximations                    ... NOT USED
Finite Nucleus Model                        ... NOT USED
CABS basis                                  ... NOT available
Auxiliary Coulomb fitting basis             ... AVAILABLE
   # of basis functions in Aux-J            ...   1311
   # of shells in Aux-J                     ...    437
   Maximum angular momentum in Aux-J        ...      4
Auxiliary J/K fitting basis                 ... NOT available
Auxiliary Correlation fitting basis         ... NOT available
Auxiliary 'external' fitting basis          ... NOT available

Checking pre-screening integrals            ... done (  0.0 sec) Dimension = 197
Check shell pair data                       ... done (  0.0 sec)
Shell pair information
Shell pair cut-off parameter TPreSel        ...   2.5e-12
Total number of shell pairs                 ...     19503
Shell pairs after pre-screening             ...     14320
Total number of primitive shell pairs       ...     70859
Primitive shell pairs kept                  ...     32999
          la=0 lb=0:   4567 shell pairs
          la=1 lb=0:   5408 shell pairs
          la=1 lb=1:   1624 shell pairs
          la=2 lb=0:   1623 shell pairs
          la=2 lb=1:    958 shell pairs
          la=2 lb=2:    140 shell pairs

Calculating one electron integrals          ... done (  0.0 sec)
Calculating RI/J V-Matrix + Cholesky decomp.... done (  0.1 sec)
Calculating Nuclear repulsion               ... done (  0.0 sec) ENN=   1801.422302701275 Eh

Diagonalization of the overlap matrix:
Smallest eigenvalue                        ... 2.526e-04
Time for diagonalization                   ...    0.024 sec
Threshold for overlap eigenvalues          ... 1.000e-07
Number of eigenvalues below threshold      ... 0
Time for construction of square roots      ...    0.014 sec
Total time needed                          ...    0.040 sec

-------------------
DFT GRID GENERATION
-------------------

General Integration Accuracy     IntAcc      ... 4.388
Radial Grid Type                 RadialGrid  ... OptM3 with GC (2021)
Angular Grid (max. ang.)         AngularGrid ... 4 (Lebedev-302)
Angular grid pruning method      GridPruning ... 4 (adaptive)
Weight generation scheme         WeightScheme... mBecke (2022)
Basis function cutoff            BFCut       ... 1.0000e-11
Integration weight cutoff        WCut        ... 1.0000e-14
Partially contracted basis set               ... off
Rotationally invariant grid construction     ... off
Angular grids for H and He will be reduced by one unit

Total number of grid points                  ...   199491
Total number of batches                      ...     3138
Average number of points per batch           ...       63
Average number of grid points per atom       ...     4639
Initializing property integral containers    ... done (  0.0 sec)

SHARK setup successfully completed in   1.6 seconds

Maximum memory used throughout the entire STARTUP-calculation: 53.8 MB


           ************************************************************
           *        Program running with 6 parallel MPI-processes     *
           *              working on a common directory               *
           ************************************************************
-------------------------------------------------------------------------------
                                 ORCA GUESS
                   Start orbitals & Density for SCF / CASSCF
-------------------------------------------------------------------------------

------------
SCF SETTINGS
------------
Hamiltonian:
 Density Functional     Method          .... DFT(GTOs)
 Exchange Functional    Exchange        .... B88
   X-Alpha parameter    XAlpha          ....  0.666667
   Becke's b parameter  XBeta           ....  0.004200
 Correlation Functional Correlation     .... P86
 LDA part of GGA corr.  LDAOpt          .... PW91-LDA
 Gradients option       PostSCFGGA      .... off
   NL short-range parameter             ....  4.400000
 RI-approximation to the Coulomb term is turned on
   Number of AuxJ basis functions       .... 1311


General Settings:
 Integral files         IntName         .... data/geom_opt_P_BP86/80362/80362
 Hartree-Fock type      HFTyp           .... RHF
 Total Charge           Charge          ....    0
 Multiplicity           Mult            ....    1
 Number of Electrons    NEL             ....  162
 Basis Dimension        Dim             ....  417
 Nuclear Repulsion      ENuc            ....   1801.4223027013 Eh

Convergence Acceleration:
 AO-DIIS                CNVDIIS         .... on
   Start iteration      DIISMaxIt       ....    12
   Startup error        DIISStart       ....  0.200000
   # of expansion vecs  DIISMaxEq       ....     5
   Bias factor          DIISBfac        ....   1.050
   Max. coefficient     DIISMaxC        ....  10.000
 MO-DIIS                CNVKDIIS        .... off
 Trust-Rad. Augm. Hess. CNVTRAH         .... auto
   Auto Start mean grad. ratio tolernc. ....  1.125000
   Auto Start start iteration           ....    50
   Auto Start num. interpolation iter.  ....    10
   Max. Number of Micro iterations      ....    24
   Max. Number of Macro iterations      .... Maxiter - #DIIS iter
   Number of Davidson start vectors     ....     2
   Converg. threshold    (grad. norm)   ....   1.000e-05
   Grad. Scal. Fac. for Micro threshold ....   0.100
   Minimum threshold for Micro iter.    ....   1.000e-02
   NR start threshold (gradient norm)   ....   1.000e-04
   Initial trust radius                 ....   0.400
   Minimum AH scaling param. (alpha)    ....   1.000
   Maximum AH scaling param. (alpha)    .... 1000.000
   Quad. conv. algorithm                .... NR
   White noise on init. David. guess    .... on
   Maximum white noise                  ....   0.010
   Pseudo random numbers                .... off
   Inactive MOs                         .... canonical
   Orbital update algorithm             .... Taylor
   Preconditioner                       .... Diag
   Full preconditioner red. dimension   ....   250
 SOSCF                  CNVSOSCF        .... on
   Start iteration      SOSCFMaxIt      ....   150
   Startup grad/error   SOSCFStart      ....  0.003300
   Hessian update       SOSCFHessUp     .... L-BFGS
 Level Shifting         CNVShift        .... on
   Level shift para.    LevelShift      ....    0.2500
   Turn off err/grad.   ShiftErr        ....    0.0010
 Zerner damping         CNVZerner       .... off
 Static damping         CNVDamp         .... on
   Fraction old density DampFac         ....    0.7000
   Max. Damping (<1)    DampMax         ....    0.9800
   Min. Damping (>=0)   DampMin         ....    0.0000
   Turn off err/grad.   DampErr         ....    0.1000

SCF Procedure:
 Maximum # iterations   MaxIter         ....   125
 SCF integral mode      SCFMode         .... Direct
   Integral package                     .... SHARK and LIBINT hybrid scheme
 Reset frequency        DirectResetFreq ....    20
 Integral Threshold     Thresh          ....  2.500e-11 Eh
 Primitive CutOff       TCut            ....  2.500e-12 Eh

Convergence Tolerance:
 Convergence Check Mode ConvCheckMode   .... Total+1el-Energy
 Convergence forced     ConvForced      .... 0
 Energy Change          TolE            ....  1.000e-08 Eh
 1-El. energy change                    ....  1.000e-05 Eh
 Orbital Gradient       TolG            ....  1.000e-05
 Orbital Rotation angle TolX            ....  1.000e-05
 DIIS Error             TolErr          ....  5.000e-07

------------------------------
INITIAL GUESS: MODEL POTENTIAL
------------------------------
Loading Hartree-Fock densities                     ... done
Calculating cut-offs                               ... done
Initializing the effective Hamiltonian             ... done
Setting up the integral package (SHARK)            ... done
Starting the Coulomb interaction                   ... done (   0.2 sec)
Making the grid                                    ... done (   0.3 sec)
Mapping shells                                     ... done
Starting the XC term evaluation                    ... done (   0.2 sec)
  promolecular density results
     # of electrons  =    161.976971703
     EX              =   -136.843626490
     EC              =     -5.956526581
     EX+EC           =   -142.800153071
Transforming the Hamiltonian                       ... done (   0.0 sec)
Diagonalizing the Hamiltonian                      ... done (   0.0 sec)
Back transforming the eigenvectors                 ... done (   0.0 sec)
Now organizing SCF variables                       ... done
                      ------------------
                      INITIAL GUESS DONE (   0.8 sec)
                      ------------------
             **** ENERGY FILE WAS UPDATED (data/geom_opt_P_BP86/80362/80362.en.tmp) ****
Finished Guess after   0.9 sec
Maximum memory used throughout the entire GUESS-calculation: 30.6 MB


           ************************************************************
           *        Program running with 6 parallel MPI-processes     *
           *              working on a common directory               *
           ************************************************************

-------------------------------------------------------------------------------------------
                                      ORCA LEAN-SCF
                              memory conserving SCF solver
-------------------------------------------------------------------------------------------

----------------------------------------D-I-I-S--------------------------------------------
Iteration    Energy (Eh)           Delta-E    RMSDP     MaxDP     DIISErr   Damp  Time(sec)
-------------------------------------------------------------------------------------------
               ***  Starting incremental Fock matrix formation  ***
    1    -1153.1679276870338526     0.00e+00  1.98e-03  7.25e-02  1.52e-01  0.700   1.3
    2    -1153.3667378103721148    -1.99e-01  1.42e-03  6.60e-02  7.57e-02  0.700   1.2
                               ***Turning on AO-DIIS***
    3    -1153.4420042564731830    -7.53e-02  6.09e-04  3.69e-02  2.43e-02  0.700   1.2
    4    -1153.4854552473204876    -4.35e-02  1.09e-03  6.43e-02  9.73e-03  0.000   1.1
    5    -1153.5810275033579728    -9.56e-02  2.31e-04  1.63e-02  5.11e-03  0.000   1.2
                              *** Initializing SOSCF ***
---------------------------------------S-O-S-C-F--------------------------------------
Iteration    Energy (Eh)           Delta-E    RMSDP     MaxDP     MaxGrad    Time(sec)
--------------------------------------------------------------------------------------
    6    -1153.5817871192605253    -7.60e-04  8.14e-05  4.78e-03  1.05e-03     1.2
               *** Restarting incremental Fock matrix formation ***
    7    -1153.5818346294779531    -4.75e-05  5.72e-05  2.63e-03  1.88e-04     1.2
    8    -1153.5818281274007404     6.50e-06  2.69e-05  1.04e-03  4.50e-04     1.0
    9    -1153.5818396541019411    -1.15e-05  2.29e-05  1.55e-03  1.20e-04     1.0
   10    -1153.5818388011950901     8.53e-07  9.81e-06  3.70e-04  1.15e-04     1.0
   11    -1153.5818407265016958    -1.93e-06  1.12e-05  7.04e-04  5.69e-05     1.0
   12    -1153.5818400939508592     6.33e-07  7.05e-06  3.98e-04  1.00e-04     0.9
   13    -1153.5818409244654958    -8.31e-07  2.15e-06  1.59e-04  1.11e-05     1.0
   14    -1153.5818408932248076     3.12e-08  1.23e-06  7.77e-05  1.94e-05     1.0
   15    -1153.5818409381565743    -4.49e-08  6.68e-07  4.86e-05  2.81e-06     0.9
   16    -1153.5818409284436257     9.71e-09  4.10e-07  2.39e-05  5.91e-06     0.9
                 **** Energy Check signals convergence ****

               *****************************************************
               *                     SUCCESS                       *
               *           SCF CONVERGED AFTER  16 CYCLES          *
               *****************************************************

             **** ENERGY FILE WAS UPDATED (data/geom_opt_P_BP86/80362/80362.en.tmp) ****

----------------
TOTAL SCF ENERGY
----------------

Total Energy       :      -1153.58184092844363 Eh          -31390.55776 eV

Components:
Nuclear Repulsion  :       1801.42230270127516 Eh           49019.19294 eV
Electronic Energy  :      -2955.00414362971878 Eh          -80409.75070 eV
One Electron Energy:      -5149.19659113074158 Eh         -140116.76264 eV
Two Electron Energy:       2194.19244750102280 Eh           59707.01194 eV

Virial components:
Potential Energy   :      -2296.57943991793536 Eh          -62493.10365 eV
Kinetic Energy     :       1142.99759898949173 Eh           31102.54589 eV
Virial Ratio       :          2.00926007364172

DFT components:
N(Alpha)           :       81.000146488789 electrons
N(Beta)            :       81.000146488789 electrons
N(Total)           :      162.000292977579 electrons
E(X)               :     -138.989811290351 Eh       
E(C)               :       -5.963619173404 Eh       
E(XC)              :     -144.953430463754 Eh       

---------------
SCF CONVERGENCE
---------------

  Last Energy change         ...   -9.7129e-09  Tolerance :   1.0000e-08
  Last MAX-Density change    ...    2.3872e-05  Tolerance :   1.0000e-07
  Last RMS-Density change    ...    4.0975e-07  Tolerance :   5.0000e-09
  Last DIIS Error            ...    1.0481e-03  Tolerance :   5.0000e-07
  Last Orbital Gradient      ...    5.9075e-06  Tolerance :   1.0000e-05
  Last Orbital Rotation      ...    9.3876e-06  Tolerance :   1.0000e-05


----------------
ORBITAL ENERGIES
----------------

  NO   OCC          E(Eh)            E(eV) 
   0   2.0000     -76.337181     -2077.2403 
   1   2.0000      -9.921308      -269.9725 
   2   2.0000      -9.921188      -269.9693 
   3   2.0000      -9.921080      -269.9663 
   4   2.0000      -9.919500      -269.9233 
   5   2.0000      -9.919463      -269.9223 
   6   2.0000      -9.919392      -269.9204 
   7   2.0000      -9.914390      -269.7843 
   8   2.0000      -9.914183      -269.7786 
   9   2.0000      -9.914177      -269.7785 
  10   2.0000      -9.913844      -269.7694 
  11   2.0000      -9.913607      -269.7630 
  12   2.0000      -9.913243      -269.7530 
  13   2.0000      -9.912752      -269.7397 
  14   2.0000      -9.912458      -269.7317 
  15   2.0000      -9.912416      -269.7305 
  16   2.0000      -9.911931      -269.7173 
  17   2.0000      -9.911768      -269.7129 
  18   2.0000      -9.911141      -269.6959 
  19   2.0000      -9.911072      -269.6940 
  20   2.0000      -9.910879      -269.6887 
  21   2.0000      -9.910722      -269.6845 
  22   2.0000      -6.306541      -171.6097 
  23   2.0000      -4.527935      -123.2114 
  24   2.0000      -4.527873      -123.2097 
  25   2.0000      -4.524200      -123.1097 
  26   2.0000      -0.780470       -21.2377 
  27   2.0000      -0.774054       -21.0631 
  28   2.0000      -0.773625       -21.0514 
  29   2.0000      -0.708365       -19.2756 
  30   2.0000      -0.696169       -18.9437 
  31   2.0000      -0.694639       -18.9021 
  32   2.0000      -0.683628       -18.6025 
  33   2.0000      -0.667951       -18.1759 
  34   2.0000      -0.665206       -18.1012 
  35   2.0000      -0.615174       -16.7397 
  36   2.0000      -0.614071       -16.7097 
  37   2.0000      -0.612916       -16.6783 
  38   2.0000      -0.586173       -15.9506 
  39   2.0000      -0.543401       -14.7867 
  40   2.0000      -0.539206       -14.6725 
  41   2.0000      -0.531427       -14.4609 
  42   2.0000      -0.521492       -14.1905 
  43   2.0000      -0.514716       -14.0061 
  44   2.0000      -0.484511       -13.1842 
  45   2.0000      -0.456643       -12.4259 
  46   2.0000      -0.455337       -12.3904 
  47   2.0000      -0.440242       -11.9796 
  48   2.0000      -0.418076       -11.3764 
  49   2.0000      -0.417635       -11.3644 
  50   2.0000      -0.416746       -11.3402 
  51   2.0000      -0.394530       -10.7357 
  52   2.0000      -0.392546       -10.6817 
  53   2.0000      -0.385537       -10.4910 
  54   2.0000      -0.381947       -10.3933 
  55   2.0000      -0.381717       -10.3871 
  56   2.0000      -0.381287       -10.3753 
  57   2.0000      -0.366867        -9.9830 
  58   2.0000      -0.364018        -9.9054 
  59   2.0000      -0.361745        -9.8436 
  60   2.0000      -0.360913        -9.8209 
  61   2.0000      -0.359466        -9.7816 
  62   2.0000      -0.340664        -9.2700 
  63   2.0000      -0.340131        -9.2554 
  64   2.0000      -0.338712        -9.2168 
  65   2.0000      -0.323349        -8.7988 
  66   2.0000      -0.320868        -8.7313 
  67   2.0000      -0.319711        -8.6998 
  68   2.0000      -0.315792        -8.5931 
  69   2.0000      -0.300744        -8.1837 
  70   2.0000      -0.300227        -8.1696 
  71   2.0000      -0.299606        -8.1527 
  72   2.0000      -0.284252        -7.7349 
  73   2.0000      -0.283318        -7.7095 
  74   2.0000      -0.244908        -6.6643 
  75   2.0000      -0.234978        -6.3941 
  76   2.0000      -0.232264        -6.3202 
  77   2.0000      -0.223870        -6.0918 
  78   2.0000      -0.219832        -5.9819 
  79   2.0000      -0.218443        -5.9441 
  80   2.0000      -0.180869        -4.9217 
  81   0.0000      -0.054799        -1.4912 
  82   0.0000      -0.053757        -1.4628 
  83   0.0000      -0.047134        -1.2826 
  84   0.0000      -0.036855        -1.0029 
  85   0.0000      -0.034050        -0.9265 
  86   0.0000      -0.032750        -0.8912 
  87   0.0000       0.038363         1.0439 
  88   0.0000       0.042005         1.1430 
  89   0.0000       0.046373         1.2619 
  90   0.0000       0.056440         1.5358 
  91   0.0000       0.058276         1.5858 
*Only the first 10 virtual orbitals were printed.

                    ********************************
                    * MULLIKEN POPULATION ANALYSIS *
                    ********************************

-----------------------
MULLIKEN ATOMIC CHARGES
-----------------------
   0 C :    0.034496
   1 C :   -0.044669
   2 C :   -0.019957
   3 C :   -0.115633
   4 C :   -0.005893
   5 C :    0.014529
   6 C :   -0.017539
   7 P :    0.280490
   8 C :   -0.121633
   9 C :    0.010249
  10 C :    0.010575
  11 C :   -0.020882
  12 C :   -0.041681
  13 C :   -0.023936
  14 C :    0.034470
  15 C :   -0.122842
  16 C :    0.009103
  17 C :    0.011020
  18 C :   -0.019873
  19 C :   -0.040639
  20 C :   -0.016479
  21 C :    0.033500
  22 H :    0.049091
  23 H :    0.032546
  24 H :    0.027057
  25 H :   -0.020684
  26 H :    0.002004
  27 H :   -0.011053
  28 H :   -0.023173
  29 H :   -0.007567
  30 H :   -0.007845
  31 H :   -0.022957
  32 H :   -0.010061
  33 H :    0.032839
  34 H :    0.026494
  35 H :    0.048734
  36 H :   -0.007000
  37 H :   -0.007462
  38 H :   -0.022105
  39 H :   -0.015300
  40 H :    0.026839
  41 H :    0.048902
  42 H :    0.033927
Sum of atomic charges:   -0.0000000

--------------------------------
MULLIKEN REDUCED ORBITAL CHARGES
--------------------------------
  0 C s       :     2.945052  s :     2.945052
      pz      :     1.012049  p :     2.994746
      px      :     0.972031
      py      :     1.010667
      dz2     :     0.005339  d :     0.025706
      dxz     :     0.004138
      dyz     :     0.004665
      dx2y2   :     0.005135
      dxy     :     0.006430

  1 C s       :     3.064435  s :     3.064435
      pz      :     0.975609  p :     2.938657
      px      :     0.984040
      py      :     0.979009
      dz2     :     0.007432  d :     0.041577
      dxz     :     0.009560
      dyz     :     0.005253
      dx2y2   :     0.009397
      dxy     :     0.009934

  2 C s       :     3.279043  s :     3.279043
      pz      :     0.917365  p :     2.709166
      px      :     0.898230
      py      :     0.893571
      dz2     :     0.004082  d :     0.031749
      dxz     :     0.007927
      dyz     :     0.004053
      dx2y2   :     0.007506
      dxy     :     0.008181

  3 C s       :     3.070890  s :     3.070890
      pz      :     0.983209  p :     3.009655
      px      :     1.008253
      py      :     1.018194
      dz2     :     0.006544  d :     0.035088
      dxz     :     0.008227
      dyz     :     0.004590
      dx2y2   :     0.007357
      dxy     :     0.008370

  4 C s       :     3.232215  s :     3.232215
      pz      :     0.947424  p :     2.740982
      px      :     0.824008
      py      :     0.969551
      dz2     :     0.006717  d :     0.032695
      dxz     :     0.006071
      dyz     :     0.005182
      dx2y2   :     0.008229
      dxy     :     0.006497

  5 C s       :     3.169959  s :     3.169959
      pz      :     0.922026  p :     2.782377
      px      :     0.947988
      py      :     0.912363
      dz2     :     0.004275  d :     0.033135
      dxz     :     0.008368
      dyz     :     0.004208
      dx2y2   :     0.007904
      dxy     :     0.008380

  6 C s       :     3.222477  s :     3.222477
      pz      :     0.931017  p :     2.762662
      px      :     0.876085
      py      :     0.955560
      dz2     :     0.004668  d :     0.032400
      dxz     :     0.008443
      dyz     :     0.004068
      dx2y2   :     0.006940
      dxy     :     0.008280

  7 P s       :     5.655966  s :     5.655966
      pz      :     3.307537  p :     8.888082
      px      :     2.810445
      py      :     2.770099
      dz2     :     0.019343  d :     0.175463
      dxz     :     0.029516
      dyz     :     0.037874
      dx2y2   :     0.044220
      dxy     :     0.044509

  8 C s       :     3.076732  s :     3.076732
      pz      :     0.994044  p :     3.009780
      px      :     1.020093
      py      :     0.995643
      dz2     :     0.008802  d :     0.035122
      dxz     :     0.005688
      dyz     :     0.010675
      dx2y2   :     0.005635
      dxy     :     0.004323

  9 C s       :     3.216920  s :     3.216920
      pz      :     0.858592  p :     2.740249
      px      :     0.964455
      py      :     0.917202
      dz2     :     0.007553  d :     0.032581
      dxz     :     0.003555
      dyz     :     0.008775
      dx2y2   :     0.006225
      dxy     :     0.006473

 10 C s       :     3.170396  s :     3.170396
      pz      :     0.934517  p :     2.785922
      px      :     0.961323
      py      :     0.890083
      dz2     :     0.007766  d :     0.033107
      dxz     :     0.005129
      dyz     :     0.010633
      dx2y2   :     0.004235
      dxy     :     0.005345

 11 C s       :     3.223829  s :     3.223829
      pz      :     0.923870  p :     2.764657
      px      :     0.987179
      py      :     0.853609
      dz2     :     0.008090  d :     0.032396
      dxz     :     0.005475
      dyz     :     0.009697
      dx2y2   :     0.005408
      dxy     :     0.003726

 12 C s       :     3.063814  s :     3.063814
      pz      :     0.977860  p :     2.936393
      px      :     0.977852
      py      :     0.980680
      dz2     :     0.009857  d :     0.041474
      dxz     :     0.006390
      dyz     :     0.011594
      dx2y2   :     0.006479
      dxy     :     0.007154

 13 C s       :     3.296306  s :     3.296306
      pz      :     0.893952  p :     2.695737
      px      :     0.964054
      py      :     0.837731
      dz2     :     0.007310  d :     0.031893
      dxz     :     0.004817
      dyz     :     0.010527
      dx2y2   :     0.004195
      dxy     :     0.005044

 14 C s       :     2.944949  s :     2.944949
      pz      :     0.984225  p :     2.994885
      px      :     1.006913
      py      :     1.003747
      dz2     :     0.006664  d :     0.025696
      dxz     :     0.007195
      dyz     :     0.003116
      dx2y2   :     0.003952
      dxy     :     0.004770

 15 C s       :     3.076935  s :     3.076935
      pz      :     0.999911  p :     3.010754
      px      :     0.994675
      py      :     1.016167
      dz2     :     0.007500  d :     0.035153
      dxz     :     0.007828
      dyz     :     0.006264
      dx2y2   :     0.006706
      dxy     :     0.006855

 16 C s       :     3.218778  s :     3.218778
      pz      :     0.913644  p :     2.739502
      px      :     0.877107
      py      :     0.948751
      dz2     :     0.004638  d :     0.032617
      dxz     :     0.007734
      dyz     :     0.005057
      dx2y2   :     0.007446
      dxy     :     0.007742

 17 C s       :     3.170608  s :     3.170608
      pz      :     0.930463  p :     2.785315
      px      :     0.957489
      py      :     0.897363
      dz2     :     0.005328  d :     0.033057
      dxz     :     0.007686
      dyz     :     0.005449
      dx2y2   :     0.007485
      dxy     :     0.007109

 18 C s       :     3.223563  s :     3.223563
      pz      :     0.971584  p :     2.763901
      px      :     0.837575
      py      :     0.954742
      dz2     :     0.007203  d :     0.032410
      dxz     :     0.005769
      dyz     :     0.005921
      dx2y2   :     0.006516
      dxy     :     0.007000

 19 C s       :     3.063913  s :     3.063913
      pz      :     0.974986  p :     2.935283
      px      :     0.985642
      py      :     0.974655
      dz2     :     0.008023  d :     0.041443
      dxz     :     0.008581
      dyz     :     0.006651
      dx2y2   :     0.009619
      dxy     :     0.008569

 20 C s       :     3.295652  s :     3.295652
      pz      :     0.903887  p :     2.688917
      px      :     0.900480
      py      :     0.884550
      dz2     :     0.005120  d :     0.031910
      dxz     :     0.007287
      dyz     :     0.005370
      dx2y2   :     0.007369
      dxy     :     0.006765

 21 C s       :     2.945302  s :     2.945302
      pz      :     0.999925  p :     2.995517
      px      :     0.989291
      py      :     1.006300
      dz2     :     0.006589  d :     0.025682
      dxz     :     0.004538
      dyz     :     0.004651
      dx2y2   :     0.007624
      dxy     :     0.002279

 22 H s       :     0.927266  s :     0.927266
      pz      :     0.008461  p :     0.023643
      px      :     0.005396
      py      :     0.009785

 23 H s       :     0.944377  s :     0.944377
      pz      :     0.012148  p :     0.023077
      px      :     0.004963
      py      :     0.005966

 24 H s       :     0.949938  s :     0.949938
      pz      :     0.005880  p :     0.023005
      px      :     0.006813
      py      :     0.010312

 25 H s       :     0.998190  s :     0.998190
      pz      :     0.008581  p :     0.022495
      px      :     0.004743
      py      :     0.009171

 26 H s       :     0.974742  s :     0.974742
      pz      :     0.004598  p :     0.023254
      px      :     0.013903
      py      :     0.004752

 27 H s       :     0.988692  s :     0.988692
      pz      :     0.008529  p :     0.022361
      px      :     0.004820
      py      :     0.009012

 28 H s       :     1.000773  s :     1.000773
      pz      :     0.007559  p :     0.022399
      px      :     0.007788
      py      :     0.007052

 29 H s       :     0.985027  s :     0.985027
      pz      :     0.012488  p :     0.022540
      px      :     0.005992
      py      :     0.004060

 30 H s       :     0.985433  s :     0.985433
      pz      :     0.006612  p :     0.022412
      px      :     0.006471
      py      :     0.009328

 31 H s       :     1.000576  s :     1.000576
      pz      :     0.005503  p :     0.022381
      px      :     0.004898
      py      :     0.011979

 32 H s       :     0.986845  s :     0.986845
      pz      :     0.006652  p :     0.023216
      px      :     0.006535
      py      :     0.010028

 33 H s       :     0.944088  s :     0.944088
      pz      :     0.004865  p :     0.023073
      px      :     0.010233
      py      :     0.007974

 34 H s       :     0.950515  s :     0.950515
      pz      :     0.004650  p :     0.022991
      px      :     0.006088
      py      :     0.012253

 35 H s       :     0.927615  s :     0.927615
      pz      :     0.008267  p :     0.023651
      px      :     0.009339
      py      :     0.006045

 36 H s       :     0.984464  s :     0.984464
      pz      :     0.009339  p :     0.022535
      px      :     0.007810
      py      :     0.005387

 37 H s       :     0.985048  s :     0.985048
      pz      :     0.007636  p :     0.022414
      px      :     0.004688
      py      :     0.010089

 38 H s       :     0.999736  s :     0.999736
      pz      :     0.004490  p :     0.022369
      px      :     0.011789
      py      :     0.006090

 39 H s       :     0.992085  s :     0.992085
      pz      :     0.007794  p :     0.023215
      px      :     0.004903
      py      :     0.010518

 40 H s       :     0.950168  s :     0.950168
      pz      :     0.005236  p :     0.022993
      px      :     0.012180
      py      :     0.005577

 41 H s       :     0.927446  s :     0.927446
      pz      :     0.010878  p :     0.023652
      px      :     0.005640
      py      :     0.007134

 42 H s       :     0.943000  s :     0.943000
      pz      :     0.005038  p :     0.023073
      px      :     0.005192
      py      :     0.012843



                     *******************************
                     * LOEWDIN POPULATION ANALYSIS *
                     *******************************

----------------------
LOEWDIN ATOMIC CHARGES
----------------------
   0 C :   -0.056736
   1 C :   -0.027912
   2 C :   -0.034344
   3 C :   -0.173139
   4 C :   -0.041412
   5 C :   -0.027272
   6 C :   -0.033748
   7 P :    0.508538
   8 C :   -0.173381
   9 C :   -0.035794
  10 C :   -0.027496
  11 C :   -0.032873
  12 C :   -0.027871
  13 C :   -0.037736
  14 C :   -0.057139
  15 C :   -0.174243
  16 C :   -0.036115
  17 C :   -0.027780
  18 C :   -0.031047
  19 C :   -0.027469
  20 C :   -0.033634
  21 C :   -0.057187
  22 H :    0.041935
  23 H :    0.035741
  24 H :    0.033700
  25 H :    0.024836
  26 H :    0.029633
  27 H :    0.029106
  28 H :    0.026006
  29 H :    0.027127
  30 H :    0.030034
  31 H :    0.026124
  32 H :    0.027831
  33 H :    0.035627
  34 H :    0.033509
  35 H :    0.041757
  36 H :    0.027132
  37 H :    0.030160
  38 H :    0.026448
  39 H :    0.027628
[...]
      dz2     :     0.016193  d :     0.103337
      dxz     :     0.020008
      dyz     :     0.017457
      dx2y2   :     0.025209
      dxy     :     0.024469

 20 C s       :     2.875488  s :     2.875488
      pz      :     1.009965  p :     3.076164
      px      :     1.039964
      py      :     1.026235
      dz2     :     0.011892  d :     0.086600
      dxz     :     0.020152
      dyz     :     0.013348
      dx2y2   :     0.021661
      dxy     :     0.019547

 21 C s       :     2.846371  s :     2.846371
      pz      :     1.044494  p :     3.149896
      px      :     1.045676
      py      :     1.059726
      dz2     :     0.018738  d :     0.067091
      dxz     :     0.011835
      dyz     :     0.009852
      dx2y2   :     0.020326
      dxy     :     0.006341

 22 H s       :     0.892208  s :     0.892208
      pz      :     0.020737  p :     0.063710
      px      :     0.014473
      py      :     0.028499

 23 H s       :     0.898636  s :     0.898636
      pz      :     0.036552  p :     0.063770
      px      :     0.013647
      py      :     0.013570

 24 H s       :     0.900819  s :     0.900819
      pz      :     0.014693  p :     0.063647
      px      :     0.019684
      py      :     0.029269

 25 H s       :     0.905911  s :     0.905911
      pz      :     0.027621  p :     0.066868
      px      :     0.014081
      py      :     0.025165

 26 H s       :     0.896117  s :     0.896117
      pz      :     0.012594  p :     0.069379
      px      :     0.043445
      py      :     0.013340

 27 H s       :     0.902006  s :     0.902006
      pz      :     0.026502  p :     0.065723
      px      :     0.014517
      py      :     0.024705

 28 H s       :     0.905169  s :     0.905169
      pz      :     0.022983  p :     0.066116
      px      :     0.022754
      py      :     0.020379

 29 H s       :     0.903094  s :     0.903094
      pz      :     0.038366  p :     0.066815
      px      :     0.016900
      py      :     0.011550

 30 H s       :     0.901434  s :     0.901434
      pz      :     0.018090  p :     0.065708
      px      :     0.018715
      py      :     0.028903

 31 H s       :     0.905221  s :     0.905221
      pz      :     0.017377  p :     0.066112
      px      :     0.013678
      py      :     0.035057

 32 H s       :     0.898307  s :     0.898307
      pz      :     0.017987  p :     0.069571
      px      :     0.019437
      py      :     0.032147

 33 H s       :     0.898422  s :     0.898422
      pz      :     0.012858  p :     0.063789
      px      :     0.029564
      py      :     0.021367

 34 H s       :     0.901178  s :     0.901178
      pz      :     0.013049  p :     0.063661
      px      :     0.014055
      py      :     0.036556

 35 H s       :     0.892518  s :     0.892518
      pz      :     0.024072  p :     0.063700
      px      :     0.025643
      py      :     0.013985

 36 H s       :     0.903159  s :     0.903159
      pz      :     0.027080  p :     0.066830
      px      :     0.023543
      py      :     0.016207

 37 H s       :     0.901366  s :     0.901366
      pz      :     0.020219  p :     0.065708
      px      :     0.013579
      py      :     0.031911

 38 H s       :     0.905105  s :     0.905105
      pz      :     0.013481  p :     0.066101
      px      :     0.035116
      py      :     0.017504

 39 H s       :     0.898514  s :     0.898514
      pz      :     0.020644  p :     0.069499
      px      :     0.014558
      py      :     0.034296

 40 H s       :     0.901069  s :     0.901069
      pz      :     0.013108  p :     0.063664
      px      :     0.037316
      py      :     0.013240

 41 H s       :     0.892599  s :     0.892599
      pz      :     0.034280  p :     0.063702
      px      :     0.013332
      py      :     0.016089

 42 H s       :     0.898169  s :     0.898169
      pz      :     0.012362  p :     0.063804
      px      :     0.012115
      py      :     0.039326



                      *****************************
                      * MAYER POPULATION ANALYSIS *
                      *****************************

  NA   - Mulliken gross atomic population
  ZA   - Total nuclear charge
  QA   - Mulliken gross atomic charge
  VA   - Mayer's total valence
  BVA  - Mayer's bonded valence
  FA   - Mayer's free valence

  ATOM       NA         ZA         QA         VA         BVA        FA
  0 C      5.9878     6.0000     0.0122     3.9118     3.9118    -0.0000
  1 C      6.0429     6.0000    -0.0429     4.0082     4.0082    -0.0000
  2 C      6.0136     6.0000    -0.0136     3.8617     3.8617    -0.0000
  3 C      6.1542     6.0000    -0.1542     3.8361     3.8361    -0.0000
  4 C      5.9970     6.0000     0.0030     3.8675     3.8675    -0.0000
  5 C      5.9932     6.0000     0.0068     3.8194     3.8194    -0.0000
  6 C      6.0206     6.0000    -0.0206     3.8363     3.8363    -0.0000
  7 P     14.7021    15.0000     0.2979     2.9820     2.9820    -0.0000
  8 C      6.1552     6.0000    -0.1552     3.8356     3.8356    -0.0000
  9 C      5.9886     6.0000     0.0114     3.8520     3.8520    -0.0000
 10 C      5.9977     6.0000     0.0023     3.8437     3.8437    -0.0000
 11 C      6.0246     6.0000    -0.0246     3.8372     3.8372    -0.0000
 12 C      6.0390     6.0000    -0.0390     3.9832     3.9832    -0.0000
 13 C      6.0180     6.0000    -0.0180     3.8679     3.8679    -0.0000
 14 C      5.9876     6.0000     0.0124     3.9121     3.9121    -0.0000
 15 C      6.1545     6.0000    -0.1545     3.8343     3.8343    -0.0000
 16 C      5.9893     6.0000     0.0107     3.8523     3.8523    -0.0000
 17 C      5.9971     6.0000     0.0029     3.8438     3.8438    -0.0000
 18 C      6.0238     6.0000    -0.0238     3.8379     3.8379    -0.0000
 19 C      6.0383     6.0000    -0.0383     3.9829     3.9829    -0.0000
 20 C      6.0167     6.0000    -0.0167     3.8676     3.8676    -0.0000
 21 C      5.9885     6.0000     0.0115     3.9125     3.9125    -0.0000
 22 H      0.9482     1.0000     0.0518     0.9860     0.9860    -0.0000
 23 H      0.9624     1.0000     0.0376     0.9932     0.9932    -0.0000
 24 H      0.9674     1.0000     0.0326     0.9933     0.9933    -0.0000
 25 H      1.0123     1.0000    -0.0123     0.9987     0.9987    -0.0000
 26 H      0.9853     1.0000     0.0147     0.9909     0.9909    -0.0000
 27 H      1.0018     1.0000    -0.0018     0.9782     0.9782     0.0000
 28 H      1.0138     1.0000    -0.0138     0.9868     0.9868    -0.0000
 29 H      0.9991     1.0000     0.0009     0.9906     0.9906    -0.0000
 30 H      0.9991     1.0000     0.0009     0.9784     0.9784    -0.0000
 31 H      1.0142     1.0000    -0.0142     0.9869     0.9869    -0.0000
 32 H      0.9984     1.0000     0.0016     1.0005     1.0005    -0.0000
 33 H      0.9613     1.0000     0.0387     0.9931     0.9931    -0.0000
 34 H      0.9684     1.0000     0.0316     0.9932     0.9932     0.0000
 35 H      0.9489     1.0000     0.0511     0.9861     0.9861    -0.0000
 36 H      0.9990     1.0000     0.0010     0.9906     0.9906     0.0000
 37 H      0.9990     1.0000     0.0010     0.9784     0.9784    -0.0000
 38 H      1.0139     1.0000    -0.0139     0.9869     0.9869    -0.0000
 39 H      0.9995     1.0000     0.0005     1.0010     1.0010     0.0000
 40 H      0.9682     1.0000     0.0318     0.9933     0.9933    -0.0000
 41 H      0.9490     1.0000     0.0510     0.9861     0.9861    -0.0000
 42 H      0.9606     1.0000     0.0394     0.9930     0.9930    -0.0000

  Mayer bond orders larger than 0.100000
B(  0-C ,  1-C ) :   1.0710 B(  0-C , 22-H ) :   0.9468 B(  0-C , 23-H ) :   0.9544 
B(  0-C , 24-H ) :   0.9536 B(  1-C ,  2-C ) :   1.3972 B(  1-C ,  6-C ) :   1.3757 
B(  2-C ,  3-C ) :   1.3456 B(  2-C , 25-H ) :   0.9706 B(  3-C ,  4-C ) :   1.3825 
B(  3-C ,  7-P ) :   0.9321 B(  4-C ,  5-C ) :   1.3709 B(  4-C , 26-H ) :   0.9675 
B(  5-C ,  6-C ) :   1.3712 B(  5-C , 27-H ) :   0.9731 B(  6-C , 28-H ) :   0.9750 
B(  7-P ,  8-C ) :   0.9327 B(  7-P , 15-C ) :   0.9331 B(  8-C ,  9-C ) :   1.3583 
B(  8-C , 13-C ) :   1.3682 B(  9-C , 10-C ) :   1.3954 B(  9-C , 29-H ) :   0.9726 
B( 10-C , 11-C ) :   1.3655 B( 10-C , 30-H ) :   0.9739 B( 11-C , 12-C ) :   1.3839 
B( 11-C , 31-H ) :   0.9745 B( 12-C , 13-C ) :   1.3671 B( 12-C , 14-C ) :   1.0727 
B( 13-C , 32-H ) :   0.9692 B( 14-C , 33-H ) :   0.9538 B( 14-C , 34-H ) :   0.9530 
B( 14-C , 35-H ) :   0.9469 B( 15-C , 16-C ) :   1.3591 B( 15-C , 20-C ) :   1.3677 
B( 16-C , 17-C ) :   1.3942 B( 16-C , 36-H ) :   0.9726 B( 17-C , 18-C ) :   1.3667 
B( 17-C , 37-H ) :   0.9739 B( 18-C , 19-C ) :   1.3836 B( 18-C , 38-H ) :   0.9744 
B( 19-C , 20-C ) :   1.3677 B( 19-C , 21-C ) :   1.0726 B( 20-C , 39-H ) :   0.9694 
B( 21-C , 40-H ) :   0.9531 B( 21-C , 41-H ) :   0.9470 B( 21-C , 42-H ) :   0.9539 


-------
TIMINGS
-------

Total SCF time: 0 days 0 hours 0 min 6 sec 

Total time                  ....       6.659 sec
Sum of individual times     ....       6.560 sec  ( 98.5%)

SCF preparation             ....       0.135 sec  (  2.0%)
Fock matrix formation       ....       5.811 sec  ( 87.3%)
  Startup                   ....       0.028 sec  (  0.5% of F)
  Split-RI-J                ....       2.289 sec  ( 39.4% of F)
  XC integration            ....       3.398 sec  ( 58.5% of F)
    Basis function eval.    ....       1.026 sec  ( 30.2% of XC)
    Density eval.           ....       1.018 sec  ( 30.0% of XC)
    XC-Functional eval.     ....       0.103 sec  (  3.0% of XC)
    XC-Potential eval.      ....       0.757 sec  ( 22.3% of XC)
Diagonalization             ....       0.000 sec  (  0.0%)
Density matrix formation    ....       0.066 sec  (  1.0%)
Total Energy calculation    ....       0.022 sec  (  0.3%)
Population analysis         ....       0.122 sec  (  1.8%)
Orbital Transformation      ....       0.055 sec  (  0.8%)
Orbital Orthonormalization  ....       0.000 sec  (  0.0%)
DIIS solution               ....       0.067 sec  (  1.0%)
SOSCF solution              ....       0.282 sec  (  4.2%)
Finished LeanSCF after   6.7 sec

Maximum memory used throughout the entire LEANSCF-calculation: 45.9 MB


-------------------------------------------------------------------------------
                          DFT DISPERSION CORRECTION                            
                                                                               
                              DFTD3 V3.1  Rev 1                                
                          USING Becke-Johnson damping                          
-------------------------------------------------------------------------------
The BP86 functional is recognized
Active option DFTDOPT                   ...         4   

molecular C6(AA) [au] = 23131.109855 


            DFT-D V3
 parameters
 s6 scaling factor         :     1.0000 
 a1 scaling factor         :     0.3946 
 s8 scaling factor         :     3.2822 
 a2 scaling factor         :     4.8516 
 ad hoc parameters k1-k3   :    16.0000     1.3333    -4.0000 

 Edisp/kcal,au: -61.317091525333  -0.097714994783 
 E6   /kcal   : -22.554228706 
 E8   /kcal   : -38.762862819 
 % E8         :  63.217060456 

-------------------------   ----------------
Dispersion correction           -0.097714995
-------------------------   ----------------


-------------------------   --------------------
FINAL SINGLE POINT ENERGY     -1153.686667498578
-------------------------   --------------------

                                *** OPTIMIZATION RUN DONE ***



           ************************************************************
           *        Program running with 6 parallel MPI-processes     *
           *              working on a common directory               *
           ************************************************************

------------------------------------------------------------------------------
                              ORCA PROPERTY CALCULATIONS
------------------------------------------------------------------------------

GBWName                                 ... data/geom_opt_P_BP86/80362/80362.gbw
Number of atoms                         ...     43
Number of basis functions               ...    417
Max core memory                         ...   1024 MB

Electric properties:
Dipole moment                           ... YES
Quadrupole moment                       ...  NO
Static polarizability (Dipole/Dipole)   ...  NO
Static polarizability (Dipole/Quad.)    ...  NO
Static polarizability (Quad./Quad.)     ...  NO
Static polarizability (Velocity)        ...  NO

Atomic electric properties:
Dipole moment                           ...  NO
Quadrupole moment                       ...  NO
Static polarizability                   ...  NO

Choice of electric origin               ... Center of mass
Position of electric origin             ...     0.046827    -0.114697     0.619195

General magnetic properties:
Magnetizability                         ...  NO

EPR properties:
g-Tensor (aka g-matrix)                 ...  NO
Zero-Field splitting spin-orbit         ...  NO
Zero-field splitting spin-spin          ...  NO
Hyperfine couplings                     ...  NO (   0 nuclei)
Quadrupole couplings                    ...  NO (   0 nuclei)
Contact density                         ...  NO (   0 nuclei)

NMR properties:
Chemical shifts                         ...  NO (   0 nuclei)
Spin-rotation constants                 ...  NO (   0 nuclei)
Spin-spin couplings                     ...  NO (   0 nuclei,    0 pairs)

Choice of magnetic origin               ... GIAO
Position of magnetic origin             ...     0.000000     0.000000     0.000000

Properties with geometric perturbations:
SCF Hessian                             ...  NO
IR spectrum                             ...  NO
VCD spectrum                            ...  NO
X-ray spectroscopy properties:
SCF XES/XAS/RIXS spectra                ...  NO


-------------
DIPOLE MOMENT
-------------

Method             : SCF
Type of density    : Electron Density
Multiplicity       :   1
Irrep              :   0
Energy             : -1153.5889525037944168 Eh
Relativity type    : 
Basis              : AO
                                X                 Y                 Z
Electronic contribution:      1.310014886      -2.551749619      12.559172697
Nuclear contribution   :     -1.270892615       2.638050320     -13.363307850
                        -----------------------------------------
Total Dipole Moment    :      0.039122272       0.086300701      -0.804135153
                        -----------------------------------------
Magnitude (a.u.)       :      0.809698529
Magnitude (Debye)      :      2.058090101



--------------------
Rotational spectrum 
--------------------
 
Rotational constants in cm-1:             0.009530             0.007476             0.005198 
Rotational constants in MHz :           285.716501           224.123198           155.823870 

Dipole components along the rotational axes: 
x,y,z [a.u.] :     0.092494     0.228522    -0.771255 
x,y,z [Debye]:     0.235102     0.580858    -1.960374 

 

Dipole moment calculation done in   0.0 sec 

Maximum memory used throughout the entire PROP-calculation: 23.7 MB

--------------------------------
SUGGESTED CITATIONS FOR THIS RUN
--------------------------------

Below you find a list of papers that are relevant to this ORCA run
We neither can nor want to force you to cite these papers, but we appreciate if you do
You receive ORCA, which is the product of decades of hard work by many enthusiastic individuals, for free
The only thing we kindly ask in return is that you cite our papers,
We deeply appreciate it, if you show your appreciation for ORCA by not just citing the generic ORCA reference.

Please note that relegating all ORCA citations to the supporting information does *not* help us.
SI sections are not indexed - citations you put there will not count into any citation statistics
But we need these citations in order to attract the funding resources that allow us to do what we are doing

Therefore, if you are a happy ORCA user, please consider citing a few of the papers listed below in the main body of your paper

In addition to the list printed below, the program has created the file data/geom_opt_P_BP86/80362/80362.bibtex that contains the list in bibtex format
You can import this file easily into all common literature databanks and citation aid programs


List of essential papers. We consider these as the minimum necessary citations

  1. Neese,F.
     Software update: the ORCA program system, version 5.0
     WIRES Comput. Molec. Sci., 2022 12(1)e1606
     doi.org/10.1002/wcms.1606

List of papers to cite with high priority. The work reported in these papers was absolutely
necessary for this run to complete.
Our perspective: the developers of density functionals and basis sets usually get cited in chemistry papers
Good! But without the algorithms to do something with them, the functionals or basis sets would not do anything.
Hence, in our opinion, the algorithm design and method developments papers are equally worthy of getting cited

  1. Neese,F.
     An improvement of the resolution of the identity approximation for the formation of the Coulomb matrix
     J. Comp. Chem., 2003 24(14)1740-1747
     doi.org/10.1002/jcc.10318
  2. Neese,F.
     The SHARK Integral Generation and Digestion System
     J. Comp. Chem., 2022  1-16
     doi.org/10.1002/jcc.26942
  3. Grimme,S.; Antony,J.; Ehrlich,S.; Krieg,H.
     A consistent and accurate ab initio parametrization of density functional dispersion correction (DFT-D) for the 94 elements H-Pu
     J. Chem. Phys., 2010 132 154104-XXXX
     doi.org/10.1063/1.3382344
  4. Grimme,S.; Ehrlich,S.; Goerigk,L.
     Effect of the damping function in dispersion corrected density functional theory
     J. Comput. Chem., 2011 32(7)1456-1465
     doi.org/10.1002/jcc.21759

List of suggested additional citations. These are papers that are important in the 'surrounding' of 
of this run, or papers that preceded the highly important papers. If you like your results we are grateful for a citation.

  1. Neese,F.
     The ORCA program system
     WIRES Comput. Molec. Sci., 2012 2(1)73-78
     doi.org/10.1002/wcms.81
  2. Neese,F.
     Software update: the ORCA program system, version 4.0
     WIRES Comput. Molec. Sci., 2018 8(1)1-6
     doi.org/10.1002/wcms.1327
  3. Neese,F.; Wennmohs,F.; Becker,U.; Riplinger,C.
     The ORCA quantum chemistry program package
     J. Chem. Phys., 2020 152 Art. No. L224108
     doi.org/10.1063/5.0004608

List of optional additional citations

  1. Neese,F.
     Approximate second-order SCF convergence for spin unrestricted wavefunctions
     Chem. Phys. Lett., 2000 325(1-3)93-98
     doi.org/10.1016/s0009-2614(00)00662-x

Timings for individual modules:

Sum of individual times          ...      164.099 sec (=   2.735 min)
Startup calculation              ...       13.207 sec (=   0.220 min)   8.0 %
SCF iterations                   ...      101.443 sec (=   1.691 min)  61.8 %
Property calculations            ...        0.190 sec (=   0.003 min)   0.1 %
SCF Gradient evaluation          ...       49.099 sec (=   0.818 min)  29.9 %
Geometry relaxation              ...        0.160 sec (=   0.003 min)   0.1 %
                             ****ORCA TERMINATED NORMALLY****
TOTAL RUN TIME: 0 days 0 hours 2 minutes 45 seconds 654 msec
