
                                 *****************
                                 * O   R   C   A *
                                 *****************

                                            #,                                       
                                            ###                                      
                                            ####                                     
                                            #####                                    
                                            ######                                   
                                           ########,                                 
                                     ,,################,,,,,                         
                               ,,#################################,,                 
                          ,,##########################################,,             
                       ,#########################################, ''#####,          
                    ,#############################################,,   '####,        
                  ,##################################################,,,,####,       
                ,###########''''           ''''###############################       
              ,#####''   ,,,,##########,,,,          '''####'''          '####       
            ,##' ,,,,###########################,,,                        '##       
           ' ,,###''''                  '''############,,,                           
         ,,##''                                '''############,,,,        ,,,,,,###''
      ,#''                                            '''#######################'''  
     '                                                          ''''####''''         
             ,#######,   #######,   ,#######,      ##                                
            ,#'     '#,  ##    ##  ,#'     '#,    #''#        ,####,   ,####,        
            ##       ##  ##   ,#'  ##            #'  '#       #'       #'  '#        
            ##       ##  #######   ##           ,######,      #####,   #    #        
            '#,     ,#'  ##    ##  '#,     ,#' ,#      #,     #,   #   #,  ,#        
             '#######'   ##     ##  '#######'  #'      '#     '####' # '####'        



                #########################################################
                #                        -***-                          #
                #          Department of theory and spectroscopy        #
                #                                                       #
                #                      Frank Neese                      #
                #                                                       #
                #     Directorship, Architecture, Infrastructure        #
                #                    SHARK, DRIVERS                     #
                #        Core code/Algorithms in most modules           #
                #                                                       #
                #        Max Planck Institute fuer Kohlenforschung      #
                #                Kaiser Wilhelm Platz 1                 #
                #                 D-45470 Muelheim/Ruhr                 #
                #                      Germany                          #
                #                                                       #
                #                  All rights reserved                  #
                #                        -***-                          #
                #########################################################


                         Program Version 6.0.0  -   RELEASE   -


 With contributions from (in alphabetic order):
   Daniel Aravena         : Magnetic Suceptibility
   Michael Atanasov       : Ab Initio Ligand Field Theory (pilot matlab implementation)
   Alexander A. Auer      : GIAO ZORA, VPT2 properties, NMR spectrum
   Ute Becker             : All parallelization in ORCA, NUMFREQ, NUMCALC
   Giovanni Bistoni       : ED, misc. LED, open-shell LED, HFLD
   Martin Brehm           : Molecular dynamics
   Dmytro Bykov           : pre 5.0 version of the SCF Hessian
   Marcos Casanova-Páez   : Triplet and SCS-CIS(D). UHF-(DLPNO)-IP/EA/STEOM-CCSD. UHF-CVS-IP/STEOM-CCSD
   Vijay G. Chilkuri      : MRCI spin determinant printing, contributions to CSF-ICE
   Pauline Colinet        : FMM embedding
   Dipayan Datta          : RHF DLPNO-CCSD density
   Achintya Kumar Dutta   : EOM-CC, STEOM-CC
   Nicolas Foglia         : Exact transition moments, OPA infrastructure, MCD improvements
   Dmitry Ganyushin       : Spin-Orbit,Spin-Spin,Magnetic field MRCI
   Miquel Garcia          : C-PCM and meta-GGA Hessian, CCSD/C-PCM, Gaussian charge scheme
   Tiago L. C. Gouveia    : GS-ROHF, GS-ROCIS
   Yang Guo               : DLPNO-NEVPT2, F12-NEVPT2, CIM, IAO-localization
   Andreas Hansen         : Spin unrestricted coupled pair/coupled cluster methods
   Ingolf Harden          : AUTO-CI MPn and infrastructure 
   Benjamin Helmich-Paris : MC-RPA, TRAH-(SCF,CASSCF), AVAS, COSX integrals, SCF dyn. polar.
   Lee Huntington         : MR-EOM, pCC
   Robert Izsak           : Overlap fitted RIJCOSX, COSX-SCS-MP3, EOM
   Riya Kayal             : Wick's Theorem for AUTO-CI, AUTO-CI UHF-CCSDT
   Emily Kempfer          : AUTO-CI, RHF CISDT and CCSDT
   Christian Kollmar      : KDIIS, OOCD, Brueckner-CCSD(T), CCSD density, CASPT2, CASPT2-K, improved NEVPT2
   Axel Koslowski         : Symmetry handling
   Simone Kossmann        : Meta GGA functionals, TD-DFT gradient, OOMP2, (MP2 Hessian; deprecated post 5.0)
   Lucas Lang             : DCDCAS
   Marvin Lechner         : AUTO-CI (C++ implementation), FIC-MRCC
   Spencer Leger          : CASSCF response
   Dagmar Lenk            : GEPOL surface, SMD, ORCA-2-JSON
   Dimitrios Liakos       : Extrapolation schemes; Compound Job, initial MDCI parallelization
   Dimitrios Manganas     : Further ROCIS development; embedding schemes. LFT, Crystal Embedding
   Dimitrios Pantazis     : SARC Basis sets
   Anastasios Papadopoulos: AUTO-CI, single reference methods and gradients
   Taras Petrenko         : pre 6.0 DFT Hessian and TD-DFT gradient, (ASA, deprecated), ECA, 1-Electron XAS/XES, NRVS
   Peter Pinski           : DLPNO-MP2, DLPNO-MP2 Gradient
   Christoph Reimann      : Effective Core Potentials
   Marius Retegan         : Local ZFS, SOC
   Christoph Riplinger    : Optimizer, TS searches, QM/MM, DLPNO-CCSD(T), (RO)-DLPNO pert. Triples
   Michael Roemelt        : Original ROCIS implementation
   Masaaki Saitow         : Open-shell DLPNO-CCSD energy and density
   Barbara Sandhoefer     : DKH picture change effects
   Kantharuban Sivalingam : CASSCF convergence/infrastructure, NEVPT2 and variants, FIC-MRCI
   Bernardo de Souza      : ESD, SOC TD-DFT
   Georgi Stoychev        : AutoAux, RI-MP2 NMR, DLPNO-MP2 response, X2C
   Van Anh Tran           : RI-MP2 g-tensors
   Willem Van den Heuvel  : Paramagnetic NMR
   Zikuan Wang            : NOTCH, Electric field optimization 
   Frank Wennmohs         : Technical directorship and infrastructure
   Hang Xu                : AUTO-CI-Response properties 


 We gratefully acknowledge several colleagues who have allowed us to
 interface, adapt or use parts of their codes:
   Stefan Grimme, W. Hujo, H. Kruse, P. Pracht,  : VdW corrections, initial TS optimization,
                  C. Bannwarth, S. Ehlert,         DFT functionals, gCP, sTDA/sTD-DF
                  L. Wittmann, M. Mueller
   Ed Valeev, F. Pavosevic, A. Kumar             : LibInt (2-el integral package), F12 methods
   Garnet Chan, S. Sharma, J. Yang, R. Olivares  : DMRG
   Ulf Ekstrom                                   : XCFun DFT Library
   Mihaly Kallay                                 : mrcc  (arbitrary order and MRCC methods)
   Frank Weinhold                                : gennbo (NPA and NBO analysis)
   Simon Mueller                                 : openCOSMO-RS
   Christopher J. Cramer and Donald G. Truhlar   : smd solvation model
   Lars Goerigk                                  : TD-DFT with DH, B97 family of functionals
   V. Asgeirsson, H. Jonsson                     : NEB implementation
   FAccTs GmbH                                   : IRC, NEB, NEB-TS, DLPNO-Multilevel, CI-OPT
                                                   MM, QMMM, 2- and 3-layer-ONIOM, Crystal-QMMM,
                                                   LR-CPCM, SF, NACMEs, symmetry and pop. for TD-DFT,
                                                   nearIR, NL-DFT gradient (VV10), updates on ESD,
                                                   ML-optimized integration grids, MBIS, APM,
                                                   GOAT, DOCKER, SOLVATOR, interface openCOSMO-RS
   S Lehtola, MJT Oliveira, MAL Marques          : LibXC Library
   Liviu Ungur et al                             : ANISO software


 Your calculation uses the libint2 library for the computation of 2-el integrals
 For citations please refer to: http://libint.valeyev.net

 Your ORCA version has been built with support for libXC version: 6.2.2
 For citations please refer to: https://libxc.gitlab.io

 This ORCA versions uses:
   CBLAS   interface :  Fast vector & matrix operations
   LAPACKE interface :  Fast linear algebra routines
   Shared memory     :  Shared parallel matrices


Your calculation utilizes the atom-pairwise dispersion correction
with the zero-damping scheme (D30)


XCFun DFT library Copyright 2009-2010 Ulf Ekstrom and contributors.
See http://admol.org/xcfun for more information.
This is free software; see the source code for copying conditions.
There is ABSOLUTELY NO WARRANTY; not even for MERCHANTABILITY or FITNESS FOR A PARTICULAR PURPOSE.
For details see the documentation.
Scientific users of this library should cite U. Ekstrom, L. Visscher, R. Bast, A. J. Thorvaldsen and K. Ruud;
J.Chem.Theor.Comp. 2010, DOI: 10.1021/ct100117s
XCFun Version 0.99 

Warning: RI is on but no J-basis has been assigned. Assigning Def2/J (nothing to worry about!)
================================================================================

----- Orbital basis set information -----
Your calculation utilizes the basis: def2-TZVP
   F. Weigend and R. Ahlrichs, Phys. Chem. Chem. Phys. 7, 3297 (2005).

----- AuxJ basis set information -----
Your calculation utilizes the auxiliary basis: def2/J
   F. Weigend, Phys. Chem. Chem. Phys. 8, 1057 (2006).

================================================================================
                                        WARNINGS
                       Please study these warnings very carefully!
================================================================================

WARNING: Functional chosen is sensitive to the integration grid.
         DEFGRID3 seems to be a minimum grid for robust results!

================================================================================
                                       INPUT FILE
================================================================================
NAME = data/single_point_PO_M06-2x/342156/342156.inp
|  1> ! RIJCOSX M062X def2-TZVP D3ZERO NormalSCF
|  2> %pal
|  3> nprocs 6
|  4> end
|  5> 
|  6> * xyz 0 1
|  7>   C           3.58598106799617      1.02705810422236      1.05556276993785
|  8>   C           3.14232883817291      0.88877573262301     -0.27148555943337
|  9>   C           1.85417489591567      0.40036139598367     -0.53194804006585
| 10>   C           1.01015180175374      0.04672557647092      0.54060105434631
| 11>   C           1.45655984366698      0.17999030031260      1.86949880753437
| 12>   C           2.74585983907446      0.67129670393026      2.12356411419904
| 13>   P          -0.70060053510688     -0.53087512268394      0.30323685838028
| 14>   O          -1.43417773903856     -0.81447942577476      1.60571011223176
| 15>   C          -0.58359614374807     -2.04261925971030     -0.76426890865790
| 16>   C          -1.87848385656139     -2.87853204908656     -0.66860713869014
| 17>   C          -3.00164407575772     -2.27364610007568     -1.38744341277028
| 18>   N          -3.87172578410302     -1.74162120756341     -1.96400053974958
| 19>   C          -1.54227904515100      0.76816276054866     -0.70811347514341
| 20>   C          -1.85176446878927      2.00078471514084      0.16825336420293
| 21>   C          -0.67903482697152      2.83217161373129      0.45633780009710
| 22>   N           0.26048521629367      3.49841426919554      0.66847126622234
| 23>   H           4.59336277239720      1.42212930962777      1.25691721436794
| 24>   H           3.80061731995097      1.17360154256498     -1.10609363844884
| 25>   H           1.50884004294462      0.30916303251404     -1.57446279294406
| 26>   H           0.76979039900321     -0.09238717952872      2.68576750142724
| 27>   H           3.09360622267976      0.78708711162309      3.16129638675575
| 28>   H           0.25956222695548     -2.63340159250976     -0.35243035693996
| 29>   H          -0.33066024396076     -1.77885524550956     -1.81155567442230
| 30>   H          -1.71337495927338     -3.90121437837814     -1.06768433234879
| 31>   H          -2.16134707695476     -2.97166540475777      0.40270517763372
| 32>   H          -2.49457773815980      0.32735381661788     -1.06537035769647
| 33>   H          -0.93536885860168      1.03377525956432     -1.59762906801447
| 34>   H          -2.61358736901377      2.63877125411545     -0.32683233667087
| 35>   H          -2.28909976561325      1.65367446679192      1.12985620465967
| 36> **                         ****END OF INPUT****
================================================================================

                       ****************************
                       * Single Point Calculation *
                       ****************************

---------------------------------
CARTESIAN COORDINATES (ANGSTROEM)
---------------------------------
  C      3.585981    1.027058    1.055563
  C      3.142329    0.888776   -0.271486
  C      1.854175    0.400361   -0.531948
  C      1.010152    0.046726    0.540601
  C      1.456560    0.179990    1.869499
  C      2.745860    0.671297    2.123564
  P     -0.700601   -0.530875    0.303237
  O     -1.434178   -0.814479    1.605710
  C     -0.583596   -2.042619   -0.764269
  C     -1.878484   -2.878532   -0.668607
  C     -3.001644   -2.273646   -1.387443
  N     -3.871726   -1.741621   -1.964001
  C     -1.542279    0.768163   -0.708113
  C     -1.851764    2.000785    0.168253
  C     -0.679035    2.832172    0.456338
  N      0.260485    3.498414    0.668471
  H      4.593363    1.422129    1.256917
  H      3.800617    1.173602   -1.106094
  H      1.508840    0.309163   -1.574463
  H      0.769790   -0.092387    2.685768
  H      3.093606    0.787087    3.161296
  H      0.259562   -2.633402   -0.352430
  H     -0.330660   -1.778855   -1.811556
  H     -1.713375   -3.901214   -1.067684
  H     -2.161347   -2.971665    0.402705
  H     -2.494578    0.327354   -1.065370
  H     -0.935369    1.033775   -1.597629
  H     -2.613587    2.638771   -0.326832
  H     -2.289100    1.653674    1.129856

----------------------------
CARTESIAN COORDINATES (A.U.)
----------------------------
  NO LB      ZA    FRAG     MASS         X           Y           Z
   0 C     6.0000    0    12.011    6.776522    1.940859    1.994725
   1 C     6.0000    0    12.011    5.938141    1.679543   -0.513033
   2 C     6.0000    0    12.011    3.503883    0.756573   -1.005236
   3 C     6.0000    0    12.011    1.908910    0.088299    1.021588
   4 C     6.0000    0    12.011    2.752499    0.340132    3.532841
   5 C     6.0000    0    12.011    5.188923    1.268567    4.012955
   6 P    15.0000    0    30.974   -1.323943   -1.003209    0.573035
   7 O     8.0000    0    15.999   -2.710203   -1.539143    3.034352
   8 C     6.0000    0    12.011   -1.102837   -3.859991   -1.444259
   9 C     6.0000    0    12.011   -3.549820   -5.439637   -1.263484
  10 C     6.0000    0    12.011   -5.672285   -4.296568   -2.621888
  11 N     7.0000    0    14.007   -7.316501   -3.291187   -3.711423
  12 C     6.0000    0    12.011   -2.914485    1.451617   -1.338141
  13 C     6.0000    0    12.011   -3.499328    3.780935    0.317953
  14 C     6.0000    0    12.011   -1.283190    5.352029    0.862353
  15 N     7.0000    0    14.007    0.492246    6.611045    1.263228
  16 H     1.0000    0     1.008    8.680198    2.687435    2.375229
  17 H     1.0000    0     1.008    7.182126    2.217786   -2.090214
  18 H     1.0000    0     1.008    2.851294    0.584233   -2.975303
  19 H     1.0000    0     1.008    1.454693   -0.174586    5.075365
  20 H     1.0000    0     1.008    5.846069    1.487379    5.973984
  21 H     1.0000    0     1.008    0.490502   -4.976408   -0.665997
  22 H     1.0000    0     1.008   -0.624857   -3.361549   -3.423344
  23 H     1.0000    0     1.008   -3.237809   -7.372227   -2.017631
  24 H     1.0000    0     1.008   -4.084354   -5.615634    0.761002
  25 H     1.0000    0     1.008   -4.714069    0.618609   -2.013258
  26 H     1.0000    0     1.008   -1.767591    1.953552   -3.019081
  27 H     1.0000    0     1.008   -4.938964    4.986555   -0.617624
  28 H     1.0000    0     1.008   -4.325772    3.124992    2.135119

--------------------------------
INTERNAL COORDINATES (ANGSTROEM)
--------------------------------
 C      0   0   0     0.000000000000     0.00000000     0.00000000
 C      1   0   0     1.406060661497     0.00000000     0.00000000
 C      2   1   0     1.402044880524   119.96636770     0.00000000
 C      3   2   1     1.409891781750   119.74021396   359.84522114
 C      4   3   2     1.408193475675   120.29040279   359.89004685
 C      5   4   3     1.402934652949   119.69414634     0.20953902
 P      4   3   2     1.821163882594   122.87107335   177.41347376
 O      7   4   3     1.521513552966   113.60634283   181.75053271
 C      7   4   3     1.854354045508   105.92158787    58.65759729
 C      9   7   4     1.544226523044   110.65442384   161.74560670
 C     10   9   7     1.464275069182   112.90255763    73.84474414
 N     11  10   9     1.171542054781   177.26496925   344.07588719
 C      7   4   3     1.848986650428   106.02621435   305.57685586
 C     13   7   4     1.543747695543   109.98172215   284.96480392
 C     14  13   7     1.466114466933   113.82662538    75.77622909
 N     15  14  13     1.171143797792   179.10368240    57.48904775
 H      1   2   3     1.100655608260   119.78525582   180.73095464
 H      2   1   3     1.100472676993   120.10532599   179.33604281
 H      3   2   1     1.102002863946   119.50427431   179.09628630
 H      5   4   3     1.100970636429   118.58761718   179.23811566
 H      6   5   4     1.100555875606   119.86664686   179.32533922
 H      9   7   4     1.108851115126   105.57602691    43.90748841
 H      9   7   4     1.109214854901   111.35001146   287.30629886
 H     10   9   7     1.110136343477   110.59059157   195.69296069
 H     10   9   7     1.111933227535   108.56245501   313.86607687
 H     13   7   4     1.108520548248   106.73584744   166.66702670
 H     13   7   4     1.109111339826   110.96746355    49.38505001
 H     14  13   7     1.110185032519   110.07554362   197.30641923
 H     14  13   7     1.111947709711   108.69494129   314.39808836

---------------------------
INTERNAL COORDINATES (A.U.)
---------------------------
 C      0   0   0     0.000000000000     0.00000000     0.00000000
 C      1   0   0     2.657069577909     0.00000000     0.00000000
 C      2   1   0     2.649480851658   119.96636770     0.00000000
 C      3   2   1     2.664309345973   119.74021396   359.84522114
 C      4   3   2     2.661100012600   120.29040279   359.89004685
 C      5   4   3     2.651162277861   119.69414634     0.20953902
 P      4   3   2     3.441500983091   122.87107335   177.41347376
 O      7   4   3     2.875243924155   113.60634283   181.75053271
 C      7   4   3     3.504221301338   105.92158787    58.65759729
 C      9   7   4     2.918165217290   110.65442384   161.74560670
 C     10   9   7     2.767078865483   112.90255763    73.84474414
 N     11  10   9     2.213893637907   177.26496925   344.07588719
 C      7   4   3     3.494078394586   106.02621435   305.57685586
 C     13   7   4     2.917260364448   109.98172215   284.96480392
 C     14  13   7     2.770554823483   113.82662538    75.77622909
 N     15  14  13     2.213141041268   179.10368240    57.48904775
 H      1   2   3     2.079937667376   119.78525582   180.73095464
 H      2   1   3     2.079591977380   120.10532599   179.33604281
 H      3   2   1     2.082483611654   119.50427431   179.09628630
 H      5   4   3     2.080532984339   118.58761718   179.23811566
 H      6   5   4     2.079749199972   119.86664686   179.32533922
 H      9   7   4     2.095424930882   105.57602691    43.90748841
 H      9   7   4     2.096112299441   111.35001146   287.30629886
 H     10   9   7     2.097853660483   110.59059157   195.69296069
 H     10   9   7     2.101249279249   108.56245501   313.86607687
 H     13   7   4     2.094800250012   106.73584744   166.66702670
 H     13   7   4     2.095916684298   110.96746355    49.38505001
 H     14  13   7     2.097945669439   110.07554362   197.30641923
 H     14  13   7     2.101276646595   108.69494129   314.39808836

---------------------
BASIS SET INFORMATION
---------------------
There are 5 groups of distinct atoms

 Group   1 Type C   : 11s6p2d1f contracted to 5s3p2d1f pattern {62111/411/11/1}
 Group   2 Type P   : 14s9p3d1f contracted to 5s5p2d1f pattern {73211/51111/21/1}
 Group   3 Type O   : 11s6p2d1f contracted to 5s3p2d1f pattern {62111/411/11/1}
 Group   4 Type N   : 11s6p2d1f contracted to 5s3p2d1f pattern {62111/411/11/1}
 Group   5 Type H   : 5s1p contracted to 3s1p pattern {311/1}

Atom   0C    basis set group =>   1
Atom   1C    basis set group =>   1
Atom   2C    basis set group =>   1
Atom   3C    basis set group =>   1
Atom   4C    basis set group =>   1
Atom   5C    basis set group =>   1
Atom   6P    basis set group =>   2
Atom   7O    basis set group =>   3
Atom   8C    basis set group =>   1
Atom   9C    basis set group =>   1
Atom  10C    basis set group =>   1
Atom  11N    basis set group =>   4
Atom  12C    basis set group =>   1
Atom  13C    basis set group =>   1
Atom  14C    basis set group =>   1
Atom  15N    basis set group =>   4
Atom  16H    basis set group =>   5
Atom  17H    basis set group =>   5
Atom  18H    basis set group =>   5
Atom  19H    basis set group =>   5
Atom  20H    basis set group =>   5
Atom  21H    basis set group =>   5
Atom  22H    basis set group =>   5
Atom  23H    basis set group =>   5
Atom  24H    basis set group =>   5
Atom  25H    basis set group =>   5
Atom  26H    basis set group =>   5
Atom  27H    basis set group =>   5
Atom  28H    basis set group =>   5
---------------------------------
AUXILIARY/J BASIS SET INFORMATION
---------------------------------
There are 5 groups of distinct atoms

 Group   1 Type C   : 12s5p4d2f1g contracted to 6s4p3d1f1g pattern {711111/2111/211/2/1}
 Group   2 Type P   : 14s5p5d2f1g contracted to 8s4p3d1f1g pattern {71111111/2111/311/2/1}
 Group   3 Type O   : 12s5p4d2f1g contracted to 6s4p3d1f1g pattern {711111/2111/211/2/1}
 Group   4 Type N   : 12s5p4d2f1g contracted to 6s4p3d1f1g pattern {711111/2111/211/2/1}
 Group   5 Type H   : 5s2p1d contracted to 3s1p1d pattern {311/2/1}

Atom   0C    basis set group =>   1
Atom   1C    basis set group =>   1
Atom   2C    basis set group =>   1
Atom   3C    basis set group =>   1
Atom   4C    basis set group =>   1
Atom   5C    basis set group =>   1
Atom   6P    basis set group =>   2
Atom   7O    basis set group =>   3
Atom   8C    basis set group =>   1
Atom   9C    basis set group =>   1
Atom  10C    basis set group =>   1
Atom  11N    basis set group =>   4
Atom  12C    basis set group =>   1
Atom  13C    basis set group =>   1
Atom  14C    basis set group =>   1
Atom  15N    basis set group =>   4
Atom  16H    basis set group =>   5
Atom  17H    basis set group =>   5
Atom  18H    basis set group =>   5
Atom  19H    basis set group =>   5
Atom  20H    basis set group =>   5
Atom  21H    basis set group =>   5
Atom  22H    basis set group =>   5
Atom  23H    basis set group =>   5
Atom  24H    basis set group =>   5
Atom  25H    basis set group =>   5
Atom  26H    basis set group =>   5
Atom  27H    basis set group =>   5
Atom  28H    basis set group =>   5


           ************************************************************
           *        Program running with 6 parallel MPI-processes     *
           *              working on a common directory               *
           ************************************************************
------------------------------------------------------------------------------
                             ORCA STARTUP CALCULATIONS
                           -- RI-GTO INTEGRALS CHOSEN --
------------------------------------------------------------------------------
------------------------------------------------------------------------------
                   ___                                                        
                  /   \      - P O W E R E D   B Y -                         
                 /     \                                                     
                 |  |  |   _    _      __       _____    __    __             
                 |  |  |  | |  | |    /  \     |  _  \  |  |  /  |          
                  \  \/   | |  | |   /    \    | | | |  |  | /  /          
                 / \  \   | |__| |  /  /\  \   | |_| |  |  |/  /          
                |  |  |   |  __  | /  /__\  \  |    /   |      \           
                |  |  |   | |  | | |   __   |  |    \   |  |\   \          
                \     /   | |  | | |  |  |  |  | |\  \  |  | \   \       
                 \___/    |_|  |_| |__|  |__|  |_| \__\ |__|  \__/        
                                                                              
                      - O R C A' S   B I G   F R I E N D -                    
                                      &                                       
                       - I N T E G R A L  F E E D E R -                       
                                                                              
 v1 FN, 2020, v2 2021, v3 2022-2024                                           
------------------------------------------------------------------------------


----------------------
SHARK INTEGRAL PACKAGE
----------------------

Number of atoms                             ...     29
Number of basis functions                   ...    580
Number of shells                            ...    230
Maximum angular momentum                    ...      3
Integral batch strategy                     ... SHARK/LIBINT Hybrid
RI-J (if used) integral strategy            ... SPLIT-RIJ (Revised 2003 algorithm where possible)
Printlevel                                  ...      1
Contraction scheme used                     ... SEGMENTED contraction
Prescreening option                         ... SCHWARTZ
   Thresh                                   ... 1.000e-10
   Tcut                                     ... 1.000e-11
   Tpresel                                  ... 1.000e-11 
Coulomb Range Separation                    ... NOT USED
Exchange Range Separation                   ... NOT USED
Multipole approximations                    ... NOT USED
Finite Nucleus Model                        ... NOT USED
CABS basis                                  ... NOT available
Auxiliary Coulomb fitting basis             ... AVAILABLE
   # of basis functions in Aux-J            ...    929
   # of shells in Aux-J                     ...    307
   Maximum angular momentum in Aux-J        ...      4
Auxiliary J/K fitting basis                 ... NOT available
Auxiliary Correlation fitting basis         ... NOT available
Auxiliary 'external' fitting basis          ... NOT available

Checking pre-screening integrals            ... done (  0.0 sec) Dimension = 230
Check shell pair data                       ... done (  0.0 sec)
Shell pair information
Shell pair cut-off parameter TPreSel        ...   1.0e-11
Total number of shell pairs                 ...     26565
Shell pairs after pre-screening             ...     20764
Total number of primitive shell pairs       ...     82620
Primitive shell pairs kept                  ...     43595
          la=0 lb=0:   5358 shell pairs
          la=1 lb=0:   6013 shell pairs
          la=1 lb=1:   1729 shell pairs
          la=2 lb=0:   2911 shell pairs
          la=2 lb=1:   1670 shell pairs
          la=2 lb=2:    421 shell pairs
          la=3 lb=0:   1370 shell pairs
          la=3 lb=1:    802 shell pairs
          la=3 lb=2:    390 shell pairs
          la=3 lb=3:    100 shell pairs

Calculating one electron integrals          ... done (  0.0 sec)
Calculating RI/J V-Matrix + Cholesky decomp.... done (  0.0 sec)
Calculating Nuclear repulsion               ... done (  0.0 sec) ENN=   1161.997251773274 Eh

Diagonalization of the overlap matrix:
Smallest eigenvalue                        ... 8.709e-06
Time for diagonalization                   ...    0.110 sec
Threshold for overlap eigenvalues          ... 1.000e-07
Number of eigenvalues below threshold      ... 0
Time for construction of square roots      ...    0.028 sec
Total time needed                          ...    0.141 sec

-------------------
DFT GRID GENERATION
-------------------

General Integration Accuracy     IntAcc      ... 4.388
Radial Grid Type                 RadialGrid  ... OptM3 with GC (2021)
Angular Grid (max. ang.)         AngularGrid ... 4 (Lebedev-302)
Angular grid pruning method      GridPruning ... 4 (adaptive)
Weight generation scheme         WeightScheme... mBecke (2022)
Basis function cutoff            BFCut       ... 1.0000e-10
Integration weight cutoff        WCut        ... 1.0000e-14
Partially contracted basis set               ... off
Rotationally invariant grid construction     ... off
Angular grids for H and He will be reduced by one unit

Total number of grid points                  ...   138627
Total number of batches                      ...     2182
Average number of points per batch           ...       63
Average number of grid points per atom       ...     4780

--------------------
COSX GRID GENERATION
--------------------

GRIDX 1
-------
General Integration Accuracy     IntAcc      ... 3.816
Radial Grid Type                 RadialGrid  ... OptM3 with GC (2021)
Angular Grid (max. ang.)         AngularGrid ... 1 (Lebedev-50)
Angular grid pruning method      GridPruning ... 4 (adaptive)
Weight generation scheme         WeightScheme... mBecke (2022)
Basis function cutoff            BFCut       ... 1.0000e-10
Integration weight cutoff        WCut        ... 1.0000e-14
Partially contracted basis set               ... on
Rotationally invariant grid construction     ... off
Angular grids for H and He will be reduced by one unit

Total number of grid points                  ...    18633
Total number of batches                      ...      160
Average number of points per batch           ...      116
Average number of grid points per atom       ...      643
UseSFitting                                  ... on

GRIDX 2
-------
General Integration Accuracy     IntAcc      ... 4.020
Radial Grid Type                 RadialGrid  ... OptM3 with GC (2021)
Angular Grid (max. ang.)         AngularGrid ... 2 (Lebedev-110)
Angular grid pruning method      GridPruning ... 4 (adaptive)
Weight generation scheme         WeightScheme... mBecke (2022)
Basis function cutoff            BFCut       ... 1.0000e-10
Integration weight cutoff        WCut        ... 1.0000e-14
Partially contracted basis set               ... on
Rotationally invariant grid construction     ... off
Angular grids for H and He will be reduced by one unit

Total number of grid points                  ...    38178
Total number of batches                      ...      313
Average number of points per batch           ...      121
Average number of grid points per atom       ...     1316
UseSFitting                                  ... on

GRIDX 3
-------
General Integration Accuracy     IntAcc      ... 4.338
Radial Grid Type                 RadialGrid  ... OptM3 with GC (2021)
Angular Grid (max. ang.)         AngularGrid ... 3 (Lebedev-194)
Angular grid pruning method      GridPruning ... 4 (adaptive)
Weight generation scheme         WeightScheme... mBecke (2022)
Basis function cutoff            BFCut       ... 1.0000e-10
Integration weight cutoff        WCut        ... 1.0000e-14
Partially contracted basis set               ... on
Rotationally invariant grid construction     ... off
Angular grids for H and He will be reduced by one unit

Total number of grid points                  ...    83945
Total number of batches                      ...      671
Average number of points per batch           ...      125
Average number of grid points per atom       ...     2895
UseSFitting                                  ... on
Initializing property integral containers    ... done (  0.0 sec)

SHARK setup successfully completed in   3.0 seconds

Maximum memory used throughout the entire STARTUP-calculation: 54.5 MB


           ************************************************************
           *        Program running with 6 parallel MPI-processes     *
           *              working on a common directory               *
           ************************************************************
-------------------------------------------------------------------------------
                                 ORCA GUESS
                   Start orbitals & Density for SCF / CASSCF
-------------------------------------------------------------------------------

------------
SCF SETTINGS
------------
Hamiltonian:
 Density Functional     Method          .... DFT(GTOs)
 Exchange Functional    Exchange        .... M062X
 Correlation Functional Correlation     .... M062X
 Gradients option       PostSCFGGA      .... off
 Hybrid DFT is turned on
   Fraction HF Exchange ScalHFX         ....  0.540000
   Scaling of DF-GGA-X  ScalDFX         ....  0.460000
   Scaling of DF-GGA-C  ScalDFC         ....  1.000000
   Scaling of DF-LDA-C  ScalLDAC        ....  1.000000
   Perturbative correction              ....  0.000000
 RI-approximation to the Coulomb term is turned on
   Number of AuxJ basis functions       .... 929
   RIJ-COSX (HFX calculated with COS-X)).... on


General Settings:
 Integral files         IntName         .... data/single_point_PO_M06-2x/342156/342156
 Hartree-Fock type      HFTyp           .... RHF
 Total Charge           Charge          ....    0
 Multiplicity           Mult            ....    1
 Number of Electrons    NEL             ....  122
 Basis Dimension        Dim             ....  580
 Nuclear Repulsion      ENuc            ....   1161.9972517733 Eh

Convergence Acceleration:
 AO-DIIS                CNVDIIS         .... on
   Start iteration      DIISMaxIt       ....    12
   Startup error        DIISStart       ....  0.200000
   # of expansion vecs  DIISMaxEq       ....     5
   Bias factor          DIISBfac        ....   1.050
   Max. coefficient     DIISMaxC        ....  10.000
 MO-DIIS                CNVKDIIS        .... off
 Trust-Rad. Augm. Hess. CNVTRAH         .... auto
   Auto Start mean grad. ratio tolernc. ....  1.125000
   Auto Start start iteration           ....    50
   Auto Start num. interpolation iter.  ....    10
   Max. Number of Micro iterations      ....    24
   Max. Number of Macro iterations      .... Maxiter - #DIIS iter
   Number of Davidson start vectors     ....     2
   Converg. threshold    (grad. norm)   ....   5.000e-05
   Grad. Scal. Fac. for Micro threshold ....   0.100
   Minimum threshold for Micro iter.    ....   1.000e-02
   NR start threshold (gradient norm)   ....   1.000e-04
   Initial trust radius                 ....   0.400
   Minimum AH scaling param. (alpha)    ....   1.000
   Maximum AH scaling param. (alpha)    .... 1000.000
   Quad. conv. algorithm                .... NR
   White noise on init. David. guess    .... on
   Maximum white noise                  ....   0.010
   Pseudo random numbers                .... off
   Inactive MOs                         .... canonical
   Orbital update algorithm             .... Taylor
   Preconditioner                       .... Diag
   Full preconditioner red. dimension   ....   250
 SOSCF                  CNVSOSCF        .... on
   Start iteration      SOSCFMaxIt      ....   150
   Startup grad/error   SOSCFStart      ....  0.003300
   Hessian update       SOSCFHessUp     .... L-BFGS
 Level Shifting         CNVShift        .... on
   Level shift para.    LevelShift      ....    0.2500
   Turn off err/grad.   ShiftErr        ....    0.0010
 Zerner damping         CNVZerner       .... off
 Static damping         CNVDamp         .... on
   Fraction old density DampFac         ....    0.7000
   Max. Damping (<1)    DampMax         ....    0.9800
   Min. Damping (>=0)   DampMin         ....    0.0000
   Turn off err/grad.   DampErr         ....    0.1000

SCF Procedure:
 Maximum # iterations   MaxIter         ....   125
 SCF integral mode      SCFMode         .... Direct
   Integral package                     .... SHARK and LIBINT hybrid scheme
 Reset frequency        DirectResetFreq ....    20
 Integral Threshold     Thresh          ....  1.000e-10 Eh
 Primitive CutOff       TCut            ....  1.000e-11 Eh

Convergence Tolerance:
 Convergence Check Mode ConvCheckMode   .... Total+1el-Energy
 Convergence forced     ConvForced      .... 0
 Energy Change          TolE            ....  1.000e-06 Eh
 1-El. energy change                    ....  1.000e-03 Eh
 Orbital Gradient       TolG            ....  5.000e-05
 Orbital Rotation angle TolX            ....  5.000e-05
 DIIS Error             TolErr          ....  1.000e-05

------------------------------
INITIAL GUESS: MODEL POTENTIAL
------------------------------
Loading Hartree-Fock densities                     ... done
Calculating cut-offs                               ... done
Initializing the effective Hamiltonian             ... done
Setting up the integral package (SHARK)            ... done
Starting the Coulomb interaction                   ... done (   0.3 sec)
Making the grid                                    ... done (   0.2 sec)
Mapping shells                                     ... done
Starting the XC term evaluation                    ... done (   0.3 sec)
  promolecular density results
     # of electrons  =    121.991648023
     EX              =   -108.775798922
     EC              =     -4.105764886
     EX+EC           =   -112.881563808
Transforming the Hamiltonian                       ... done (   0.0 sec)
Diagonalizing the Hamiltonian                      ... done (   0.1 sec)
Back transforming the eigenvectors                 ... done (   0.0 sec)
Now organizing SCF variables                       ... done
                      ------------------
                      INITIAL GUESS DONE (   1.0 sec)
                      ------------------
             **** ENERGY FILE WAS UPDATED (data/single_point_PO_M06-2x/342156/342156.en.tmp) ****
Finished Guess after   1.1 sec
Maximum memory used throughout the entire GUESS-calculation: 38.8 MB


           ************************************************************
           *        Program running with 6 parallel MPI-processes     *
           *              working on a common directory               *
           ************************************************************

-------------------------------------------------------------------------------------------
                                      ORCA LEAN-SCF
                              memory conserving SCF solver
-------------------------------------------------------------------------------------------

----------------------------------------D-I-I-S--------------------------------------------
Iteration    Energy (Eh)           Delta-E    RMSDP     MaxDP     DIISErr   Damp  Time(sec)
-------------------------------------------------------------------------------------------
               ***  Starting incremental Fock matrix formation  ***
    1    -990.6255110958322803     0.00e+00  1.49e-03  8.40e-02  3.64e-01  0.700   9.6
    2    -990.8697318015838391    -2.44e-01  1.20e-03  7.58e-02  1.56e-01  0.700   6.3
                               ***Turning on AO-DIIS***
    3    -990.9691290619944084    -9.94e-02  6.37e-04  2.30e-02  4.61e-02  0.700   5.9
    4    -991.0307920147461118    -6.17e-02  1.41e-03  6.33e-02  3.19e-02  0.000   5.7
    5    -991.1657209804807280    -1.35e-01  1.92e-04  1.64e-02  8.47e-03  0.000   6.5
                              *** Initializing SOSCF ***
---------------------------------------S-O-S-C-F--------------------------------------
Iteration    Energy (Eh)           Delta-E    RMSDP     MaxDP     MaxGrad    Time(sec)
--------------------------------------------------------------------------------------
    6    -991.1662730068246674    -5.52e-04  7.26e-05  4.82e-03  1.25e-03     5.2
               *** Restarting incremental Fock matrix formation ***
    7    -991.1662944226527543    -2.14e-05  7.07e-05  4.20e-03  2.13e-04    10.0
    8    -991.1662945576313177    -1.35e-07  2.29e-05  1.52e-03  3.19e-04     6.9
                 **** Energy Check signals convergence ****

               *****************************************************
               *                     SUCCESS                       *
               *           SCF CONVERGED AFTER   8 CYCLES          *
               *****************************************************

Recomputing exchange energy using gridx3       ... done (   14.168 sec)
Old exchange energy                            :    -59.802558185 Eh
New exchange energy                            :    -59.802496845 Eh
Exchange energy change after final integration :      0.000061340 Eh
Total energy after final integration           :   -991.166233218 Eh
             **** ENERGY FILE WAS UPDATED (data/single_point_PO_M06-2x/342156/342156.en.tmp) ****

----------------
TOTAL SCF ENERGY
----------------

Total Energy       :       -991.16623321799989 Eh          -26971.00439 eV

Components:
Nuclear Repulsion  :       1161.99725177327446 Eh           31619.55273 eV
Electronic Energy  :      -2153.16354633090577 Eh          -58590.55878 eV
One Electron Energy:      -3659.73766915513761 Eh          -99586.52486 eV
Two Electron Energy:       1506.57412282423184 Eh           40995.96608 eV

Virial components:
Potential Energy   :      -1977.58121083833817 Eh          -53812.72053 eV
Kinetic Energy     :        986.41497762033828 Eh           26841.71615 eV
Virial Ratio       :          2.00481669044515

DFT components:
N(Alpha)           :       61.000001777994 electrons
N(Beta)            :       61.000001777994 electrons
N(Total)           :      122.000003555987 electrons
E(XC)              :      -55.427316941886 Eh       

---------------
SCF CONVERGENCE
---------------

  Last Energy change         ...    1.3498e-07  Tolerance :   1.0000e-06
  Last MAX-Density change    ...    1.5197e-03  Tolerance :   1.0000e-05
  Last RMS-Density change    ...    2.2868e-05  Tolerance :   1.0000e-06
  Last DIIS Error            ...    1.2539e-03  Tolerance :   1.0000e-05
  Last Orbital Gradient      ...    3.1946e-04  Tolerance :   5.0000e-05
  Last Orbital Rotation      ...    2.5122e-04  Tolerance :   5.0000e-05


----------------
ORBITAL ENERGIES
----------------

  NO   OCC          E(Eh)            E(eV) 
   0   2.0000     -78.113808     -2125.5848 
   1   2.0000     -19.584325      -532.9166 
   2   2.0000     -14.772132      -401.9701 
   3   2.0000     -14.758784      -401.6069 
   4   2.0000     -10.609889      -288.7098 
   5   2.0000     -10.601836      -288.4906 
   6   2.0000     -10.596140      -288.3356 
   7   2.0000     -10.588456      -288.1265 
   8   2.0000     -10.582919      -287.9759 
   9   2.0000     -10.579732      -287.8891 
  10   2.0000     -10.574461      -287.7457 
  11   2.0000     -10.569873      -287.6209 
  12   2.0000     -10.566925      -287.5407 
  13   2.0000     -10.565974      -287.5148 
  14   2.0000     -10.565863      -287.5117 
  15   2.0000     -10.562990      -287.4336 
  16   2.0000      -6.920610      -188.3194 
  17   2.0000      -5.037695      -137.0826 
  18   2.0000      -5.037416      -137.0751 
  19   2.0000      -5.035998      -137.0365 
  20   2.0000      -1.081806       -29.4374 
  21   2.0000      -1.024469       -27.8772 
  22   2.0000      -1.010722       -27.5032 
  23   2.0000      -0.972819       -26.4718 
  24   2.0000      -0.925902       -25.1951 
  25   2.0000      -0.913264       -24.8512 
  26   2.0000      -0.864058       -23.5122 
  27   2.0000      -0.857315       -23.3287 
  28   2.0000      -0.802920       -21.8486 
  29   2.0000      -0.767922       -20.8962 
  30   2.0000      -0.710428       -19.3317 
  31   2.0000      -0.702026       -19.1031 
  32   2.0000      -0.644711       -17.5435 
  33   2.0000      -0.608574       -16.5601 
  34   2.0000      -0.600399       -16.3377 
  35   2.0000      -0.597038       -16.2462 
  36   2.0000      -0.574007       -15.6195 
  37   2.0000      -0.554226       -15.0813 
  38   2.0000      -0.535426       -14.5697 
  39   2.0000      -0.530024       -14.4227 
  40   2.0000      -0.526837       -14.3360 
  41   2.0000      -0.510719       -13.8974 
  42   2.0000      -0.503545       -13.7022 
  43   2.0000      -0.495720       -13.4892 
  44   2.0000      -0.484935       -13.1958 
  45   2.0000      -0.474020       -12.8987 
  46   2.0000      -0.463054       -12.6003 
  47   2.0000      -0.453061       -12.3284 
  48   2.0000      -0.445165       -12.1135 
  49   2.0000      -0.441769       -12.0211 
  50   2.0000      -0.440410       -11.9842 
  51   2.0000      -0.419899       -11.4260 
  52   2.0000      -0.417348       -11.3566 
  53   2.0000      -0.404041       -10.9945 
  54   2.0000      -0.401958       -10.9378 
  55   2.0000      -0.391762       -10.6604 
  56   2.0000      -0.390510       -10.6263 
  57   2.0000      -0.354865        -9.6564 
  58   2.0000      -0.351858        -9.5745 
  59   2.0000      -0.324518        -8.8306 
  60   2.0000      -0.323981        -8.8160 
  61   0.0000      -0.017841        -0.4855 
  62   0.0000       0.000120         0.0033 
  63   0.0000       0.028799         0.7837 
  64   0.0000       0.039193         1.0665 
  65   0.0000       0.049441         1.3453 
  66   0.0000       0.057218         1.5570 
  67   0.0000       0.060494         1.6461 
  68   0.0000       0.064620         1.7584 
  69   0.0000       0.067634         1.8404 
  70   0.0000       0.081434         2.2159 
  71   0.0000       0.093496         2.5442 
*Only the first 10 virtual orbitals were printed.

                    ********************************
                    * MULLIKEN POPULATION ANALYSIS *
                    ********************************

-----------------------
MULLIKEN ATOMIC CHARGES
-----------------------
   0 C :   -0.118996
   1 C :   -0.143400
   2 C :   -0.173670
   3 C :   -0.112650
   4 C :   -0.120606
   5 C :   -0.129654
   6 P :    0.611208
   7 O :   -0.598733
   8 C :   -0.409221
   9 C :   -0.212380
  10 C :   -0.159201
  11 N :   -0.028707
  12 C :   -0.397463
  13 C :   -0.239647
  14 C :   -0.164777
  15 N :   -0.010030
  16 H :    0.151342
  17 H :    0.149527
  18 H :    0.156754
  19 H :    0.195235
  20 H :    0.152298
  21 H :    0.196209
  22 H :    0.194147
  23 H :    0.185261
  24 H :    0.221586
  25 H :    0.202612
  26 H :    0.191361
  27 H :    0.189848
  28 H :    0.221747
Sum of atomic charges:   -0.0000000

--------------------------------
MULLIKEN REDUCED ORBITAL CHARGES
--------------------------------
  0 C s       :     3.223475  s :     3.223475
      pz      :     0.885560  p :     2.827828
      px      :     0.998874
      py      :     0.943395
      dz2     :     0.012688  d :     0.061399
      dxz     :     0.015620
      dyz     :     0.019940
      dx2y2   :     0.006909
      dxy     :     0.006243
      f0      :     0.001327  f :     0.006293
      f+1     :     0.001143
      f-1     :     0.001073
      f+2     :     0.000804
      f-2     :     0.000777
      f+3     :     0.000493
      f-3     :     0.000675

  1 C s       :     3.228610  s :     3.228610
      pz      :     0.955180  p :     2.848808
      px      :     0.934226
      py      :     0.959402
      dz2     :     0.012211  d :     0.059609
      dxz     :     0.014550
      dyz     :     0.012143
      dx2y2   :     0.009717
      dxy     :     0.010987
      f0      :     0.001116  f :     0.006372
      f+1     :     0.001094
      f-1     :     0.000963
      f+2     :     0.000665
      f-2     :     0.000612
      f+3     :     0.001104
      f-3     :     0.000819

  2 C s       :     3.200490  s :     3.200490
      pz      :     0.981133  p :     2.899710
      px      :     0.959919
      py      :     0.958659
      dz2     :     0.014488  d :     0.066844
      dxz     :     0.016326
      dyz     :     0.007304
      dx2y2   :     0.013621
      dxy     :     0.015104
      f0      :     0.001199  f :     0.006626
      f+1     :     0.001025
      f-1     :     0.000421
      f+2     :     0.000933
      f-2     :     0.000824
      f+3     :     0.001275
      f-3     :     0.000949

  3 C s       :     3.244020  s :     3.244020
      pz      :     0.877515  p :     2.788330
      px      :     0.907383
      py      :     1.003432
      dz2     :     0.014776  d :     0.073124
      dxz     :     0.016826
      dyz     :     0.022029
      dx2y2   :     0.009954
      dxy     :     0.009539
      f0      :     0.001461  f :     0.007176
      f+1     :     0.001135
      f-1     :     0.001151
      f+2     :     0.000960
      f-2     :     0.000868
      f+3     :     0.000795
      f-3     :     0.000806

  4 C s       :     3.200595  s :     3.200595
      pz      :     0.960454  p :     2.850781
      px      :     0.955900
      py      :     0.934427
      dz2     :     0.010785  d :     0.062704
      dxz     :     0.018035
      dyz     :     0.012972
      dx2y2   :     0.009521
      dxy     :     0.011391
      f0      :     0.001175  f :     0.006525
      f+1     :     0.001035
      f-1     :     0.000921
      f+2     :     0.000770
      f-2     :     0.000672
      f+3     :     0.001100
      f-3     :     0.000853

  5 C s       :     3.225288  s :     3.225288
      pz      :     0.992817  p :     2.838965
      px      :     0.898280
      py      :     0.947869
      dz2     :     0.012954  d :     0.059107
      dxz     :     0.013852
      dyz     :     0.007534
      dx2y2   :     0.012006
      dxy     :     0.012761
      f0      :     0.001126  f :     0.006294
      f+1     :     0.000955
      f-1     :     0.000467
      f+2     :     0.000896
      f-2     :     0.000796
      f+3     :     0.001207
      f-3     :     0.000846

  6 P s       :     5.326817  s :     5.326817
      pz      :     2.667999  p :     8.307270
      px      :     2.786833
      py      :     2.852438
      dz2     :     0.145900  d :     0.688689
      dxz     :     0.111715
      dyz     :     0.204786
      dx2y2   :     0.121103
      dxy     :     0.105185
      f0      :     0.015694  f :     0.066016
      f+1     :     0.007011
      f-1     :     0.010354
      f+2     :     0.010300
      f-2     :     0.010489
      f+3     :     0.006866
      f-3     :     0.005302

  7 O s       :     3.878571  s :     3.878571
      pz      :     1.444608  p :     4.694102
      px      :     1.595698
      py      :     1.653796
      dz2     :     0.007752  d :     0.024819
      dxz     :     0.007336
      dyz     :     0.005664
      dx2y2   :     0.001989
      dxy     :     0.002078
      f0      :     0.000290  f :     0.001241
      f+1     :     0.000351
      f-1     :     0.000184
      f+2     :     0.000182
      f-2     :     0.000183
      f+3     :     0.000026
      f-3     :     0.000025

  8 C s       :     3.268501  s :     3.268501
      pz      :     1.068211  p :     3.072079
      px      :     0.989443
      py      :     1.014426
      dz2     :     0.010313  d :     0.065069
      dxz     :     0.015042
      dyz     :     0.011017
      dx2y2   :     0.016030
      dxy     :     0.012666
      f0      :     0.000687  f :     0.003572
      f+1     :     0.000260
      f-1     :     0.000405
      f+2     :     0.000335
      f-2     :     0.000574
      f+3     :     0.000732
      f-3     :     0.000578

  9 C s       :     3.237079  s :     3.237079
      pz      :     1.054800  p :     2.886953
      px      :     0.856383
      py      :     0.975770
      dz2     :     0.014253  d :     0.084248
      dxz     :     0.020040
      dyz     :     0.010164
      dx2y2   :     0.024887
      dxy     :     0.014903
      f0      :     0.000816  f :     0.004100
      f+1     :     0.000452
      f-1     :     0.000193
      f+2     :     0.000332
      f-2     :     0.000677
      f+3     :     0.000987
      f-3     :     0.000644

 10 C s       :     3.214698  s :     3.214698
      pz      :     0.931660  p :     2.839660
      px      :     1.004404
      py      :     0.903596
      dz2     :     0.024079  d :     0.089385
      dxz     :     0.013133
      dyz     :     0.012047
      dx2y2   :     0.023554
      dxy     :     0.016572
      f0      :     0.001050  f :     0.015458
      f+1     :     0.003254
      f-1     :     0.001192
      f+2     :     0.002571
      f-2     :     0.002527
      f+3     :     0.002890
      f-3     :     0.001975

 11 N s       :     3.684877  s :     3.684877
      pz      :     1.098132  p :     3.299645
      px      :     1.129813
      py      :     1.071700
      dz2     :     0.010118  d :     0.042035
      dxz     :     0.007207
      dyz     :     0.005230
      dx2y2   :     0.012028
      dxy     :     0.007452
      f0      :     0.000046  f :     0.002150
      f+1     :     0.000616
      f-1     :     0.000225
      f+2     :     0.000394
      f-2     :     0.000184
      f+3     :     0.000512
      f-3     :     0.000173

 12 C s       :     3.253510  s :     3.253510
      pz      :     0.985293  p :     3.076556
      px      :     1.125621
      py      :     0.965642
      dz2     :     0.014208  d :     0.063893
      dxz     :     0.014164
      dyz     :     0.011490
      dx2y2   :     0.009017
      dxy     :     0.015014
      f0      :     0.000237  f :     0.003504
      f+1     :     0.000305
      f-1     :     0.000817
      f+2     :     0.000603
      f-2     :     0.000692
      f+3     :     0.000450
      f-3     :     0.000401

 13 C s       :     3.247257  s :     3.247257
      pz      :     1.067643  p :     2.903024
      px      :     0.893693
      py      :     0.941688
      dz2     :     0.016954  d :     0.085223
      dxz     :     0.017422
      dyz     :     0.012778
      dx2y2   :     0.012354
      dxy     :     0.025715
      f0      :     0.000412  f :     0.004142
      f+1     :     0.000310
      f-1     :     0.000828
      f+2     :     0.000411
      f-2     :     0.000957
      f+3     :     0.000533
      f-3     :     0.000691

 14 C s       :     3.211854  s :     3.211854
      pz      :     0.919258  p :     2.851377
      px      :     0.962611
      py      :     0.969508
      dz2     :     0.005767  d :     0.086264
      dxz     :     0.023059
      dyz     :     0.011708
      dx2y2   :     0.030284
      dxy     :     0.015445
      f0      :     0.001700  f :     0.015283
      f+1     :     0.001584
      f-1     :     0.000937
      f+2     :     0.000792
      f-2     :     0.002914
      f+3     :     0.004418
      f-3     :     0.002939

 15 N s       :     3.663453  s :     3.663453
      pz      :     1.056883  p :     3.301288
      px      :     1.145669
      py      :     1.098736
      dz2     :     0.002995  d :     0.043046
      dxz     :     0.011324
      dyz     :     0.005891
      dx2y2   :     0.016482
      dxy     :     0.006355
      f0      :     0.000270  f :     0.002242
      f+1     :     0.000192
      f-1     :     0.000126
      f+2     :     0.000132
      f-2     :     0.000476
      f+3     :     0.000871
      f-3     :     0.000177

 16 H s       :     0.828953  s :     0.828953
      pz      :     0.003018  p :     0.019705
      px      :     0.011760
      py      :     0.004927

 17 H s       :     0.830683  s :     0.830683
      pz      :     0.008748  p :     0.019789
      px      :     0.006672
      py      :     0.004369

 18 H s       :     0.823636  s :     0.823636
      pz      :     0.012030  p :     0.019610
      px      :     0.003797
      py      :     0.003784

 19 H s       :     0.784115  s :     0.784115
      pz      :     0.008518  p :     0.020650
      px      :     0.007961
      py      :     0.004170

 20 H s       :     0.827881  s :     0.827881
      pz      :     0.012240  p :     0.019821
      px      :     0.003861
      py      :     0.003719

 21 H s       :     0.783623  s :     0.783623
      pz      :     0.004817  p :     0.020168
      px      :     0.009037
      py      :     0.006313

 22 H s       :     0.786176  s :     0.786176
      pz      :     0.011342  p :     0.019677
      px      :     0.003946
      py      :     0.004390

 23 H s       :     0.795301  s :     0.795301
      pz      :     0.004378  p :     0.019438
      px      :     0.003347
      py      :     0.011713

 24 H s       :     0.757972  s :     0.757972
      pz      :     0.013287  p :     0.020442
      px      :     0.003727
      py      :     0.003429

 25 H s       :     0.776047  s :     0.776047
      pz      :     0.004908  p :     0.021341
      px      :     0.010818
      py      :     0.005615

 26 H s       :     0.788786  s :     0.788786
      pz      :     0.009517  p :     0.019852
      px      :     0.006160
      py      :     0.004175

 27 H s       :     0.790654  s :     0.790654
      pz      :     0.005111  p :     0.019497
      px      :     0.008047
      py      :     0.006339

 28 H s       :     0.758101  s :     0.758101
      pz      :     0.010867  p :     0.020152
      px      :     0.004748
      py      :     0.004538



                     *******************************
                     * LOEWDIN POPULATION ANALYSIS *
                     *******************************

----------------------
LOEWDIN ATOMIC CHARGES
----------------------
   0 C :   -0.119468
   1 C :   -0.131246
   2 C :   -0.134834
   3 C :   -0.249599
   4 C :   -0.113734
   5 C :   -0.126384
   6 P :    0.617532
   7 O :   -0.314977
   8 C :   -0.341494
   9 C :   -0.259993
  10 C :   -0.199389
  11 N :    0.044235
  12 C :   -0.340424
  13 C :   -0.257374
  14 C :   -0.198451
  15 N :    0.052696
  16 H :    0.150719
  17 H :    0.150423
  18 H :    0.147633
  19 H :    0.162009
  20 H :    0.151301
  21 H :    0.155513
  22 H :    0.147815
  23 H :    0.169350
  24 H :    0.181628
  25 H :    0.157965
  26 H :    0.147508
  27 H :    0.171279
  28 H :    0.179761

-------------------------------
LOEWDIN REDUCED ORBITAL CHARGES
-------------------------------
  0 C s       :     2.779009  s :     2.779009
      pz      :     1.066097  p :     2.927385
      px      :     0.980033
      py      :     0.881256
      dz2     :     0.130482  d :     0.372594
      dxz     :     0.102385
      dyz     :     0.076899
      dx2y2   :     0.033407
      dxy     :     0.029420
      f0      :     0.010506  f :     0.040480
      f+1     :     0.008837
      f-1     :     0.004739
      f+2     :     0.006437
      f-2     :     0.006287
      f+3     :     0.001217
      f-3     :     0.002456

  1 C s       :     2.776982  s :     2.776982
      pz      :     1.026022  p :     2.941648
      px      :     1.014624
      py      :     0.901003
      dz2     :     0.081190  d :     0.371907
      dxz     :     0.143877
      dyz     :     0.054040
      dx2y2   :     0.046327
      dxy     :     0.046473
      f0      :     0.009518  f :     0.040709
      f+1     :     0.008203
      f-1     :     0.005486
      f+2     :     0.004453
      f-2     :     0.003841
      f+3     :     0.004608
      f-3     :     0.004600

  2 C s       :     2.773683  s :     2.773683
      pz      :     0.995667  p :     2.936505
      px      :     1.034311
      py      :     0.906527
      dz2     :     0.105305  d :     0.383423
      dxz     :     0.114250
      dyz     :     0.032069
      dx2y2   :     0.065118
      dxy     :     0.066680
      f0      :     0.008209  f :     0.041223
      f+1     :     0.007679
      f-1     :     0.002803
      f+2     :     0.006857
      f-2     :     0.006278
      f+3     :     0.004437
      f-3     :     0.004960

  3 C s       :     2.769339  s :     2.769339
      pz      :     1.068015  p :     3.000165
      px      :     1.015421
      py      :     0.916728
      dz2     :     0.139389  d :     0.436226
      dxz     :     0.115499
      dyz     :     0.084357
      dx2y2   :     0.052374
      dxy     :     0.044607
      f0      :     0.011274  f :     0.043869
      f+1     :     0.009047
      f-1     :     0.004517
      f+2     :     0.007113
      f-2     :     0.006862
      f+3     :     0.002334
      f-3     :     0.002722

  4 C s       :     2.775816  s :     2.775816
      pz      :     1.021642  p :     2.916853
      px      :     1.016673
      py      :     0.878539
      dz2     :     0.080170  d :     0.379835
      dxz     :     0.147858
      dyz     :     0.055739
      dx2y2   :     0.047434
      dxy     :     0.048634
      f0      :     0.009614  f :     0.041230
      f+1     :     0.008206
      f-1     :     0.005719
      f+2     :     0.004660
      f-2     :     0.003924
      f+3     :     0.004549
      f-3     :     0.004558

  5 C s       :     2.777237  s :     2.777237
      pz      :     1.002920  p :     2.938135
      px      :     1.034062
      py      :     0.901153
      dz2     :     0.102615  d :     0.370475
      dxz     :     0.112523
      dyz     :     0.032038
      dx2y2   :     0.061715
      dxy     :     0.061585
      f0      :     0.008166  f :     0.040536
      f+1     :     0.007643
      f-1     :     0.002773
      f+2     :     0.006505
      f-2     :     0.006009
      f+3     :     0.004457
      f-3     :     0.004984

  6 P s       :     4.660591  s :     4.660591
      pz      :     2.745139  p :     8.303118
      px      :     2.772415
      py      :     2.785564
      dz2     :     0.252332  d :     1.194501
      dxz     :     0.217986
      dyz     :     0.338388
      dx2y2   :     0.209627
      dxy     :     0.176167
      f0      :     0.047926  f :     0.224258
      f+1     :     0.032890
      f-1     :     0.035147
      f+2     :     0.034041
      f-2     :     0.034590
      f+3     :     0.021856
      f-3     :     0.017809

  7 O s       :     3.540489  s :     3.540489
      pz      :     1.550454  p :     4.730240
      px      :     1.583040
      py      :     1.596746
      dz2     :     0.013939  d :     0.042154
      dxz     :     0.015363
      dyz     :     0.007572
      dx2y2   :     0.002593
      dxy     :     0.002687
      f0      :     0.000380  f :     0.002094
      f+1     :     0.000763
      f-1     :     0.000322
      f+2     :     0.000287
      f-2     :     0.000267
      f+3     :     0.000033
      f-3     :     0.000042

  8 C s       :     2.842513  s :     2.842513
      pz      :     1.071215  p :     3.172324
      px      :     1.022710
      py      :     1.078399
      dz2     :     0.051609  d :     0.300714
      dxz     :     0.051945
      dyz     :     0.060073
      dx2y2   :     0.066259
      dxy     :     0.070828
      f0      :     0.004000  f :     0.025943
      f+1     :     0.002263
      f-1     :     0.002228
      f+2     :     0.003258
      f-2     :     0.004625
      f+3     :     0.005338
      f-3     :     0.004232

  9 C s       :     2.778978  s :     2.778978
      pz      :     1.039287  p :     3.063407
      px      :     1.003657
      py      :     1.020463
      dz2     :     0.073923  d :     0.380325
      dxz     :     0.078428
      dyz     :     0.041831
      dx2y2   :     0.106367
      dxy     :     0.079776
      f0      :     0.004834  f :     0.037283
      f+1     :     0.005002
      f-1     :     0.001962
      f+2     :     0.005246
      f-2     :     0.006888
      f+3     :     0.007821
      f-3     :     0.005530

 10 C s       :     2.844450  s :     2.844450
      pz      :     0.927412  p :     2.869961
      px      :     1.028250
      py      :     0.914299
      dz2     :     0.084201  d :     0.428147
      dxz     :     0.094215
      dyz     :     0.055092
      dx2y2   :     0.098287
      dxy     :     0.096352
      f0      :     0.005003  f :     0.056830
      f+1     :     0.010144
      f-1     :     0.003691
      f+2     :     0.008631
      f-2     :     0.011858
      f+3     :     0.008665
      f-3     :     0.008838

 11 N s       :     3.317747  s :     3.317747
      pz      :     1.134443  p :     3.515932
      px      :     1.272173
      py      :     1.109316
      dz2     :     0.017683  d :     0.107565
      dxz     :     0.026490
      dyz     :     0.014421
      dx2y2   :     0.023823
      dxy     :     0.025148
      f0      :     0.001289  f :     0.014521
      f+1     :     0.002500
      f-1     :     0.000934
      f+2     :     0.002204
      f-2     :     0.003148
      f+3     :     0.002188
      f-3     :     0.002257

 12 C s       :     2.839694  s :     2.839694
      pz      :     1.057092  p :     3.173535
      px      :     1.072146
      py      :     1.044297
      dz2     :     0.050525  d :     0.301285
      dxz     :     0.063571
      dyz     :     0.069860
      dx2y2   :     0.048303
      dxy     :     0.069026
      f0      :     0.003017  f :     0.025910
      f+1     :     0.002382
      f-1     :     0.006108
      f+2     :     0.003251
      f-2     :     0.003906
      f+3     :     0.003333
      f-3     :     0.003915

 13 C s       :     2.778070  s :     2.778070
      pz      :     1.039262  p :     3.060614
      px      :     1.012973
      py      :     1.008379
      dz2     :     0.064297  d :     0.381461
      dxz     :     0.071049
      dyz     :     0.072380
      dx2y2   :     0.065158
      dxy     :     0.108577
      f0      :     0.003928  f :     0.037228
      f+1     :     0.003921
      f-1     :     0.006265
      f+2     :     0.003649
      f-2     :     0.006321
      f+3     :     0.006529
      f-3     :     0.006613

 14 C s       :     2.843527  s :     2.843527
      pz      :     0.862773  p :     2.874439
      px      :     1.059099
      py      :     0.952568
      dz2     :     0.042182  d :     0.423626
      dxz     :     0.092741
      dyz     :     0.049132
      dx2y2   :     0.124202
      dxy     :     0.115368
      f0      :     0.005776  f :     0.056858
      f+1     :     0.006685
      f-1     :     0.003727
      f+2     :     0.002547
      f-2     :     0.009743
      f+3     :     0.014016
      f-3     :     0.014364

 15 N s       :     3.316525  s :     3.316525
      pz      :     1.031390  p :     3.508376
      px      :     1.313377
      py      :     1.163608
      dz2     :     0.012350  d :     0.107791
      dxz     :     0.021190
      dyz     :     0.011158
      dx2y2   :     0.030302
      dxy     :     0.032792
      f0      :     0.001453  f :     0.014612
      f+1     :     0.001760
      f-1     :     0.000977
      f+2     :     0.000588
      f-2     :     0.002477
      f+3     :     0.003618
      f-3     :     0.003739

 16 H s       :     0.793487  s :     0.793487
      pz      :     0.010668  p :     0.055795
      px      :     0.030681
      py      :     0.014445

 17 H s       :     0.793610  s :     0.793610
      pz      :     0.023865  p :     0.055967
      px      :     0.018822
      py      :     0.013280

 18 H s       :     0.796416  s :     0.796416
      pz      :     0.031366  p :     0.055952
      px      :     0.012408
      py      :     0.012177

 19 H s       :     0.779463  s :     0.779463
      pz      :     0.023867  p :     0.058527
      px      :     0.021765
      py      :     0.012896

 20 H s       :     0.792744  s :     0.792744
      pz      :     0.031799  p :     0.055955
      px      :     0.012415
      py      :     0.011741

 21 H s       :     0.784314  s :     0.784314
      pz      :     0.015823  p :     0.060174
      px      :     0.024836
      py      :     0.019515

 22 H s       :     0.792043  s :     0.792043
      pz      :     0.033472  p :     0.060142
      px      :     0.012424
      py      :     0.014246

 23 H s       :     0.774042  s :     0.774042
      pz      :     0.015141  p :     0.056608
      px      :     0.010810
      py      :     0.030657

 24 H s       :     0.759854  s :     0.759854
      pz      :     0.035762  p :     0.058518
      px      :     0.011712
      py      :     0.011044

 25 H s       :     0.779264  s :     0.779264
      pz      :     0.014661  p :     0.062771
      px      :     0.031664
      py      :     0.016446

 26 H s       :     0.792266  s :     0.792266
      pz      :     0.026979  p :     0.060225
      px      :     0.019544
      py      :     0.013702

 27 H s       :     0.772103  s :     0.772103
      pz      :     0.016721  p :     0.056618
      px      :     0.021134
      py      :     0.018763

 28 H s       :     0.762173  s :     0.762173
      pz      :     0.030720  p :     0.058066
      px      :     0.013736
      py      :     0.013610



                      *****************************
                      * MAYER POPULATION ANALYSIS *
                      *****************************

  NA   - Mulliken gross atomic population
  ZA   - Total nuclear charge
  QA   - Mulliken gross atomic charge
  VA   - Mayer's total valence
  BVA  - Mayer's bonded valence
  FA   - Mayer's free valence

  ATOM       NA         ZA         QA         VA         BVA        FA
  0 C      6.1190     6.0000    -0.1190     3.9469     3.9469    -0.0000
  1 C      6.1434     6.0000    -0.1434     4.0253     4.0253    -0.0000
  2 C      6.1737     6.0000    -0.1737     3.9450     3.9450    -0.0000
  3 C      6.1127     6.0000    -0.1127     3.7155     3.7155    -0.0000
  4 C      6.1206     6.0000    -0.1206     3.9089     3.9089    -0.0000
  5 C      6.1297     6.0000    -0.1297     3.9338     3.9338    -0.0000
  6 P     14.3888    15.0000     0.6112     4.8438     4.8438    -0.0000
  7 O      8.5987     8.0000    -0.5987     1.9736     1.9736    -0.0000
  8 C      6.4092     6.0000    -0.4092     3.7000     3.7000    -0.0000
  9 C      6.2124     6.0000    -0.2124     3.7472     3.7472    -0.0000
 10 C      6.1592     6.0000    -0.1592     3.9550     3.9550    -0.0000
 11 N      7.0287     7.0000    -0.0287     3.0543     3.0543    -0.0000
 12 C      6.3975     6.0000    -0.3975     3.7083     3.7083    -0.0000
 13 C      6.2396     6.0000    -0.2396     3.7407     3.7407     0.0000
 14 C      6.1648     6.0000    -0.1648     3.9908     3.9908     0.0000
 15 N      7.0100     7.0000    -0.0100     3.0849     3.0849    -0.0000
 16 H      0.8487     1.0000     0.1513     0.9626     0.9626    -0.0000
 17 H      0.8505     1.0000     0.1495     0.9648     0.9648     0.0000
 18 H      0.8432     1.0000     0.1568     0.9632     0.9632    -0.0000
 19 H      0.8048     1.0000     0.1952     0.9704     0.9704    -0.0000
 20 H      0.8477     1.0000     0.1523     0.9649     0.9649    -0.0000
 21 H      0.8038     1.0000     0.1962     0.9538     0.9538     0.0000
 22 H      0.8059     1.0000     0.1941     0.9463     0.9463    -0.0000
 23 H      0.8147     1.0000     0.1853     0.9455     0.9455    -0.0000
 24 H      0.7784     1.0000     0.2216     0.9575     0.9575     0.0000
 25 H      0.7974     1.0000     0.2026     0.9722     0.9722    -0.0000
 26 H      0.8086     1.0000     0.1914     0.9442     0.9442     0.0000
 27 H      0.8102     1.0000     0.1898     0.9438     0.9438     0.0000
 28 H      0.7783     1.0000     0.2217     0.9545     0.9545     0.0000

  Mayer bond orders larger than 0.100000
B(  0-C ,  1-C ) :   1.4370 B(  0-C ,  5-C ) :   1.4401 B(  0-C , 16-H ) :   0.9426 
B(  1-C ,  2-C ) :   1.5047 B(  1-C , 17-H ) :   0.9421 B(  2-C ,  3-C ) :   1.3460 
B(  2-C , 18-H ) :   0.9223 B(  3-C ,  4-C ) :   1.3927 B(  3-C ,  6-P ) :   0.9293 
B(  4-C ,  5-C ) :   1.4330 B(  4-C , 19-H ) :   0.9120 B(  5-C , 20-H ) :   0.9446 
B(  6-P ,  7-O ) :   1.9204 B(  6-P ,  8-C ) :   0.8957 B(  6-P , 12-C ) :   0.9161 
B(  8-C ,  9-C ) :   0.9076 B(  8-C , 21-H ) :   0.9497 B(  8-C , 22-H ) :   0.9333 
B(  9-C , 10-C ) :   0.9441 B(  9-C , 23-H ) :   0.9461 B(  9-C , 24-H ) :   0.9462 
B( 10-C , 11-N ) :   2.9886 B( 12-C , 13-C ) :   0.9112 B( 12-C , 25-H ) :   0.9361 
B( 12-C , 26-H ) :   0.9282 B( 13-C , 14-C ) :   0.9465 B( 13-C , 27-H ) :   0.9502 
B( 13-C , 28-H ) :   0.9462 B( 14-C , 15-N ) :   3.0280 

-------
TIMINGS
-------

Total SCF time: 0 days 0 hours 1 min 10 sec 

Total time                  ....      70.788 sec
Sum of individual times     ....      70.814 sec  (100.0%)

SCF preparation             ....       0.220 sec  (  0.3%)
Fock matrix formation       ....      68.583 sec  ( 96.9%)
  Startup                   ....       0.066 sec  (  0.1% of F)
  Split-RI-J                ....       4.682 sec  (  6.8% of F)
  Chain of spheres X        ....      47.804 sec  ( 69.7% of F)
  XC integration            ....      15.836 sec  ( 23.1% of F)
    Basis function eval.    ....       2.260 sec  ( 14.3% of XC)
    Density eval.           ....       6.369 sec  ( 40.2% of XC)
    XC-Functional eval.     ....       0.318 sec  (  2.0% of XC)
    XC-Potential eval.      ....       6.260 sec  ( 39.5% of XC)
Diagonalization             ....       0.000 sec  (  0.0%)
Density matrix formation    ....       0.172 sec  (  0.2%)
Total Energy calculation    ....       0.064 sec  (  0.1%)
Population analysis         ....       0.130 sec  (  0.2%)
Orbital Transformation      ....       0.254 sec  (  0.4%)
Orbital Orthonormalization  ....       0.000 sec  (  0.0%)
DIIS solution               ....       1.081 sec  (  1.5%)
SOSCF solution              ....       0.310 sec  (  0.4%)
Finished LeanSCF after  70.8 sec

Maximum memory used throughout the entire LEANSCF-calculation: 73.4 MB


-------------------------------------------------------------------------------
                          DFT DISPERSION CORRECTION                            
                                                                               
                              DFTD3 V3.1  Rev 1                                
                              USING zero damping                               
-------------------------------------------------------------------------------
The M062X functional is recognized
Active option DFTDOPT                   ...         3   

molecular C6(AA) [au] = 11201.039217 


            DFT-D V3
 parameters
 s6 scaling factor         :     1.0000 
 rs6 scaling factor        :     1.6190 
 s8 scaling factor         :     0.0000 
 rs8 scaling factor        :     1.0000 
 Damping factor alpha6     :    14.0000 
 Damping factor alpha8     :    16.0000 
 ad hoc parameters k1-k3   :    16.0000     1.3333    -4.0000 

 Edisp/kcal,au: -1.030526769364  -0.001642248766 
 E6   /kcal   :  -1.030526769 
 E8   /kcal   :  -0.000000000 
 % E8         :   0.000000000 

-------------------------   ----------------
Dispersion correction           -0.001642249
-------------------------   ----------------


-------------------------   --------------------
FINAL SINGLE POINT ENERGY      -991.167875466766
-------------------------   --------------------



           ************************************************************
           *        Program running with 6 parallel MPI-processes     *
           *              working on a common directory               *
           ************************************************************

------------------------------------------------------------------------------
                              ORCA PROPERTY CALCULATIONS
------------------------------------------------------------------------------

GBWName                                 ... data/single_point_PO_M06-2x/342156/342156.gbw
Number of atoms                         ...     29
Number of basis functions               ...    580
Max core memory                         ...   1024 MB

Electric properties:
Dipole moment                           ... YES
Quadrupole moment                       ...  NO
Static polarizability (Dipole/Dipole)   ...  NO
Static polarizability (Dipole/Quad.)    ...  NO
Static polarizability (Quad./Quad.)     ...  NO
Static polarizability (Velocity)        ...  NO

Atomic electric properties:
Dipole moment                           ...  NO
Quadrupole moment                       ...  NO
Static polarizability                   ...  NO

Choice of electric origin               ... Center of mass
Position of electric origin             ...    -0.346520     0.102120     0.319580

General magnetic properties:
Magnetizability                         ...  NO

EPR properties:
g-Tensor (aka g-matrix)                 ...  NO
Zero-Field splitting spin-orbit         ...  NO
Zero-field splitting spin-spin          ...  NO
Hyperfine couplings                     ...  NO (   0 nuclei)
Quadrupole couplings                    ...  NO (   0 nuclei)
Contact density                         ...  NO (   0 nuclei)

NMR properties:
Chemical shifts                         ...  NO (   0 nuclei)
Spin-rotation constants                 ...  NO (   0 nuclei)
Spin-spin couplings                     ...  NO (   0 nuclei,    0 pairs)

Choice of magnetic origin               ... GIAO
Position of magnetic origin             ...     0.000000     0.000000     0.000000

Properties with geometric perturbations:
SCF Hessian                             ...  NO
IR spectrum                             ...  NO
VCD spectrum                            ...  NO
X-ray spectroscopy properties:
SCF XES/XAS/RIXS spectra                ...  NO


-------------
DIPOLE MOMENT
-------------

Method             : SCF
Type of density    : Electron Density
Multiplicity       :   1
Irrep              :   0
Energy             :  -991.1662332179998884 Eh
Relativity type    : 
Basis              : AO
                                X                 Y                 Z
Electronic contribution:     -2.850615357       1.034337651       1.671338780
Nuclear contribution   :      4.058004315      -2.046572338      -2.419255722
                        -----------------------------------------
Total Dipole Moment    :      1.207388958      -1.012234687      -0.747916942
                        -----------------------------------------
Magnitude (a.u.)       :      1.744071934
Magnitude (Debye)      :      4.433078553



--------------------
Rotational spectrum 
--------------------
 
Rotational constants in cm-1:             0.026725             0.011153             0.009412 
Rotational constants in MHz :           801.189327           334.369320           282.176258 

Dipole components along the rotational axes: 
x,y,z [a.u.] :    -0.216925     1.487408     0.884504 
x,y,z [Debye]:    -0.551380     3.780690     2.248232 

 

Dipole moment calculation done in   0.0 sec 

Maximum memory used throughout the entire PROP-calculation: 38.8 MB

--------------------------------
SUGGESTED CITATIONS FOR THIS RUN
--------------------------------

Below you find a list of papers that are relevant to this ORCA run
We neither can nor want to force you to cite these papers, but we appreciate if you do
You receive ORCA, which is the product of decades of hard work by many enthusiastic individuals, for free
The only thing we kindly ask in return is that you cite our papers,
We deeply appreciate it, if you show your appreciation for ORCA by not just citing the generic ORCA reference.

Please note that relegating all ORCA citations to the supporting information does *not* help us.
SI sections are not indexed - citations you put there will not count into any citation statistics
But we need these citations in order to attract the funding resources that allow us to do what we are doing

Therefore, if you are a happy ORCA user, please consider citing a few of the papers listed below in the main body of your paper

In addition to the list printed below, the program has created the file data/single_point_PO_M06-2x/342156/342156.bibtex that contains the list in bibtex format
You can import this file easily into all common literature databanks and citation aid programs


List of essential papers. We consider these as the minimum necessary citations

  1. Neese,F.
     Software update: the ORCA program system, version 5.0
     WIRES Comput. Molec. Sci., 2022 12(1)e1606
     doi.org/10.1002/wcms.1606

List of papers to cite with high priority. The work reported in these papers was absolutely
necessary for this run to complete.
Our perspective: the developers of density functionals and basis sets usually get cited in chemistry papers
Good! But without the algorithms to do something with them, the functionals or basis sets would not do anything.
Hence, in our opinion, the algorithm design and method developments papers are equally worthy of getting cited

  1. Neese,F.
     An improvement of the resolution of the identity approximation for the formation of the Coulomb matrix
     J. Comp. Chem., 2003 24(14)1740-1747
     doi.org/10.1002/jcc.10318
  2. Neese,F.; Wennmohs,F.; Hansen,A.; Becker,U.
     Efficient, approximate and parallel Hartree-Fock and hybrid DFT calculations. A 'chain-of-spheres' algorithm for the Hartree-Fock exchange
     Chem. Phys., 2009 356(1-3)98-109
     doi.org/10.1016/j.chemphys.2008.10.036
  3. Helmich-Paris,B.; de Souza,B.; Neese,F.; Izsák,R.
     An improved chain of spheres for exchange algorithm
     J. Chem. Phys., 2021 155 104109
     doi.org/doi: 10.1063/5.0058766.
  4. Neese,F.
     The SHARK Integral Generation and Digestion System
     J. Comp. Chem., 2022  1-16
     doi.org/10.1002/jcc.26942
  5. Grimme,S.; Antony,J.; Ehrlich,S.; Krieg,H.
     A consistent and accurate ab initio parametrization of density functional dispersion correction (DFT-D) for the 94 elements H-Pu
     J. Chem. Phys., 2010 132 154104-XXXX
     doi.org/10.1063/1.3382344

List of suggested additional citations. These are papers that are important in the 'surrounding' of 
of this run, or papers that preceded the highly important papers. If you like your results we are grateful for a citation.

  1. Izsak,R.; Neese,F.
     An overlap fitted chain of spheres exchange method
     J. Chem. Phys., 2011 135 144105
     doi.org/10.1063/1.3646921
  2. Izsak,R.; Hansen,A.; Neese,F.
     The resolution of identity and chain of spheres approximations for the LPNO-CCSD singles Fock term
     Molec. Phys., 2012 110 2413-2417
     doi.org/10.1080/00268976.2012.687466
  3. Neese,F.
     The ORCA program system
     WIRES Comput. Molec. Sci., 2012 2(1)73-78
     doi.org/10.1002/wcms.81
  4. Izsak,R.; Neese,F.; Klopper,W.
     Robust fitting techniques in the chain of spheres approximation to the Fock exchange: The role of the complementary space
     J. Chem. Phys., 2013 139 
     doi.org/10.1063/1.4819264
  5. Neese,F.
     Software update: the ORCA program system, version 4.0
     WIRES Comput. Molec. Sci., 2018 8(1)1-6
     doi.org/10.1002/wcms.1327
  6. Neese,F.; Wennmohs,F.; Becker,U.; Riplinger,C.
     The ORCA quantum chemistry program package
     J. Chem. Phys., 2020 152 Art. No. L224108
     doi.org/10.1063/5.0004608

List of optional additional citations

  1. Neese,F.
     Approximate second-order SCF convergence for spin unrestricted wavefunctions
     Chem. Phys. Lett., 2000 325(1-3)93-98
     doi.org/10.1016/s0009-2614(00)00662-x

Timings for individual modules:

Sum of individual times          ...       75.579 sec (=   1.260 min)
Startup calculation              ...        3.174 sec (=   0.053 min)   4.2 %
SCF iterations                   ...       72.176 sec (=   1.203 min)  95.5 %
Property calculations            ...        0.229 sec (=   0.004 min)   0.3 %
                             ****ORCA TERMINATED NORMALLY****
TOTAL RUN TIME: 0 days 0 hours 1 minutes 15 seconds 813 msec
