
                                 *****************
                                 * O   R   C   A *
                                 *****************

                                            #,                                       
                                            ###                                      
                                            ####                                     
                                            #####                                    
                                            ######                                   
                                           ########,                                 
                                     ,,################,,,,,                         
                               ,,#################################,,                 
                          ,,##########################################,,             
                       ,#########################################, ''#####,          
                    ,#############################################,,   '####,        
                  ,##################################################,,,,####,       
                ,###########''''           ''''###############################       
              ,#####''   ,,,,##########,,,,          '''####'''          '####       
            ,##' ,,,,###########################,,,                        '##       
           ' ,,###''''                  '''############,,,                           
         ,,##''                                '''############,,,,        ,,,,,,###''
      ,#''                                            '''#######################'''  
     '                                                          ''''####''''         
             ,#######,   #######,   ,#######,      ##                                
            ,#'     '#,  ##    ##  ,#'     '#,    #''#        ,####,   ,####,        
            ##       ##  ##   ,#'  ##            #'  '#       #'       #'  '#        
            ##       ##  #######   ##           ,######,      #####,   #    #        
            '#,     ,#'  ##    ##  '#,     ,#' ,#      #,     #,   #   #,  ,#        
             '#######'   ##     ##  '#######'  #'      '#     '####' # '####'        



                #########################################################
                #                        -***-                          #
                #          Department of theory and spectroscopy        #
                #                                                       #
                #                      Frank Neese                      #
                #                                                       #
                #     Directorship, Architecture, Infrastructure        #
                #                    SHARK, DRIVERS                     #
                #        Core code/Algorithms in most modules           #
                #                                                       #
                #        Max Planck Institute fuer Kohlenforschung      #
                #                Kaiser Wilhelm Platz 1                 #
                #                 D-45470 Muelheim/Ruhr                 #
                #                      Germany                          #
                #                                                       #
                #                  All rights reserved                  #
                #                        -***-                          #
                #########################################################


                         Program Version 6.0.0  -   RELEASE   -


 With contributions from (in alphabetic order):
   Daniel Aravena         : Magnetic Suceptibility
   Michael Atanasov       : Ab Initio Ligand Field Theory (pilot matlab implementation)
   Alexander A. Auer      : GIAO ZORA, VPT2 properties, NMR spectrum
   Ute Becker             : All parallelization in ORCA, NUMFREQ, NUMCALC
   Giovanni Bistoni       : ED, misc. LED, open-shell LED, HFLD
   Martin Brehm           : Molecular dynamics
   Dmytro Bykov           : pre 5.0 version of the SCF Hessian
   Marcos Casanova-Páez   : Triplet and SCS-CIS(D). UHF-(DLPNO)-IP/EA/STEOM-CCSD. UHF-CVS-IP/STEOM-CCSD
   Vijay G. Chilkuri      : MRCI spin determinant printing, contributions to CSF-ICE
   Pauline Colinet        : FMM embedding
   Dipayan Datta          : RHF DLPNO-CCSD density
   Achintya Kumar Dutta   : EOM-CC, STEOM-CC
   Nicolas Foglia         : Exact transition moments, OPA infrastructure, MCD improvements
   Dmitry Ganyushin       : Spin-Orbit,Spin-Spin,Magnetic field MRCI
   Miquel Garcia          : C-PCM and meta-GGA Hessian, CCSD/C-PCM, Gaussian charge scheme
   Tiago L. C. Gouveia    : GS-ROHF, GS-ROCIS
   Yang Guo               : DLPNO-NEVPT2, F12-NEVPT2, CIM, IAO-localization
   Andreas Hansen         : Spin unrestricted coupled pair/coupled cluster methods
   Ingolf Harden          : AUTO-CI MPn and infrastructure 
   Benjamin Helmich-Paris : MC-RPA, TRAH-(SCF,CASSCF), AVAS, COSX integrals, SCF dyn. polar.
   Lee Huntington         : MR-EOM, pCC
   Robert Izsak           : Overlap fitted RIJCOSX, COSX-SCS-MP3, EOM
   Riya Kayal             : Wick's Theorem for AUTO-CI, AUTO-CI UHF-CCSDT
   Emily Kempfer          : AUTO-CI, RHF CISDT and CCSDT
   Christian Kollmar      : KDIIS, OOCD, Brueckner-CCSD(T), CCSD density, CASPT2, CASPT2-K, improved NEVPT2
   Axel Koslowski         : Symmetry handling
   Simone Kossmann        : Meta GGA functionals, TD-DFT gradient, OOMP2, (MP2 Hessian; deprecated post 5.0)
   Lucas Lang             : DCDCAS
   Marvin Lechner         : AUTO-CI (C++ implementation), FIC-MRCC
   Spencer Leger          : CASSCF response
   Dagmar Lenk            : GEPOL surface, SMD, ORCA-2-JSON
   Dimitrios Liakos       : Extrapolation schemes; Compound Job, initial MDCI parallelization
   Dimitrios Manganas     : Further ROCIS development; embedding schemes. LFT, Crystal Embedding
   Dimitrios Pantazis     : SARC Basis sets
   Anastasios Papadopoulos: AUTO-CI, single reference methods and gradients
   Taras Petrenko         : pre 6.0 DFT Hessian and TD-DFT gradient, (ASA, deprecated), ECA, 1-Electron XAS/XES, NRVS
   Peter Pinski           : DLPNO-MP2, DLPNO-MP2 Gradient
   Christoph Reimann      : Effective Core Potentials
   Marius Retegan         : Local ZFS, SOC
   Christoph Riplinger    : Optimizer, TS searches, QM/MM, DLPNO-CCSD(T), (RO)-DLPNO pert. Triples
   Michael Roemelt        : Original ROCIS implementation
   Masaaki Saitow         : Open-shell DLPNO-CCSD energy and density
   Barbara Sandhoefer     : DKH picture change effects
   Kantharuban Sivalingam : CASSCF convergence/infrastructure, NEVPT2 and variants, FIC-MRCI
   Bernardo de Souza      : ESD, SOC TD-DFT
   Georgi Stoychev        : AutoAux, RI-MP2 NMR, DLPNO-MP2 response, X2C
   Van Anh Tran           : RI-MP2 g-tensors
   Willem Van den Heuvel  : Paramagnetic NMR
   Zikuan Wang            : NOTCH, Electric field optimization 
   Frank Wennmohs         : Technical directorship and infrastructure
   Hang Xu                : AUTO-CI-Response properties 


 We gratefully acknowledge several colleagues who have allowed us to
 interface, adapt or use parts of their codes:
   Stefan Grimme, W. Hujo, H. Kruse, P. Pracht,  : VdW corrections, initial TS optimization,
                  C. Bannwarth, S. Ehlert,         DFT functionals, gCP, sTDA/sTD-DF
                  L. Wittmann, M. Mueller
   Ed Valeev, F. Pavosevic, A. Kumar             : LibInt (2-el integral package), F12 methods
   Garnet Chan, S. Sharma, J. Yang, R. Olivares  : DMRG
   Ulf Ekstrom                                   : XCFun DFT Library
   Mihaly Kallay                                 : mrcc  (arbitrary order and MRCC methods)
   Frank Weinhold                                : gennbo (NPA and NBO analysis)
   Simon Mueller                                 : openCOSMO-RS
   Christopher J. Cramer and Donald G. Truhlar   : smd solvation model
   Lars Goerigk                                  : TD-DFT with DH, B97 family of functionals
   V. Asgeirsson, H. Jonsson                     : NEB implementation
   FAccTs GmbH                                   : IRC, NEB, NEB-TS, DLPNO-Multilevel, CI-OPT
                                                   MM, QMMM, 2- and 3-layer-ONIOM, Crystal-QMMM,
                                                   LR-CPCM, SF, NACMEs, symmetry and pop. for TD-DFT,
                                                   nearIR, NL-DFT gradient (VV10), updates on ESD,
                                                   ML-optimized integration grids, MBIS, APM,
                                                   GOAT, DOCKER, SOLVATOR, interface openCOSMO-RS
   S Lehtola, MJT Oliveira, MAL Marques          : LibXC Library
   Liviu Ungur et al                             : ANISO software


 Your calculation uses the libint2 library for the computation of 2-el integrals
 For citations please refer to: http://libint.valeyev.net

 Your ORCA version has been built with support for libXC version: 6.2.2
 For citations please refer to: https://libxc.gitlab.io

 This ORCA versions uses:
   CBLAS   interface :  Fast vector & matrix operations
   LAPACKE interface :  Fast linear algebra routines
   Shared memory     :  Shared parallel matrices


Your calculation utilizes the atom-pairwise dispersion correction
with the zero-damping scheme (D30)


XCFun DFT library Copyright 2009-2010 Ulf Ekstrom and contributors.
See http://admol.org/xcfun for more information.
This is free software; see the source code for copying conditions.
There is ABSOLUTELY NO WARRANTY; not even for MERCHANTABILITY or FITNESS FOR A PARTICULAR PURPOSE.
For details see the documentation.
Scientific users of this library should cite U. Ekstrom, L. Visscher, R. Bast, A. J. Thorvaldsen and K. Ruud;
J.Chem.Theor.Comp. 2010, DOI: 10.1021/ct100117s
XCFun Version 0.99 

Warning: RI is on but no J-basis has been assigned. Assigning Def2/J (nothing to worry about!)
================================================================================

----- Orbital basis set information -----
Your calculation utilizes the basis: def2-TZVP
   F. Weigend and R. Ahlrichs, Phys. Chem. Chem. Phys. 7, 3297 (2005).

----- AuxJ basis set information -----
Your calculation utilizes the auxiliary basis: def2/J
   F. Weigend, Phys. Chem. Chem. Phys. 8, 1057 (2006).

================================================================================
                                        WARNINGS
                       Please study these warnings very carefully!
================================================================================

WARNING: Functional chosen is sensitive to the integration grid.
         DEFGRID3 seems to be a minimum grid for robust results!

================================================================================
                                       INPUT FILE
================================================================================
NAME = data/single_point_PO_M06-2x/73879/73879.inp
|  1> ! RIJCOSX M062X def2-TZVP D3ZERO NormalSCF
|  2> %pal
|  3> nprocs 6
|  4> end
|  5> 
|  6> * xyz 0 1
|  7>   C          -0.09924043697966     -2.07680693220558      1.68115571531830
|  8>   P           0.04520330332307     -1.44614008059517     -0.03432080288861
|  9>   O           0.15240940490279     -2.51867527576943     -1.10403292318416
| 10>   C           1.48951062999263     -0.31613641669938     -0.03129390012352
| 11>   C           1.81559602994934      0.55677711920898      1.02691718996939
| 12>   C           2.93635290832131      1.39630740094405      0.92494926561369
| 13>   C           3.73619447360170      1.36496575195902     -0.23062222645462
| 14>   C           3.41908785672747      0.48839664808167     -1.28246073196912
| 15>   C           2.30040444156880     -0.35320515734292     -1.18365759066193
| 16>   C          -1.43195432446819     -0.38273763131689     -0.28021478634324
| 17>   C          -1.74264256260036      0.73315593301029      0.52306058309223
| 18>   C          -2.89761319159392      1.48586271798858      0.26070909524392
| 19>   C          -3.74381132722217      1.12863652435499     -0.80441409354901
| 20>   C          -3.43299191366144      0.01943283563256     -1.60877576201299
| 21>   C          -2.27817953153924     -0.73630538010858     -1.34928356202786
| 22>   H          -0.23446018584943     -1.26123211530050      2.41821532994869
| 23>   H           0.81269760386745     -2.65541257534734      1.92620999190023
| 24>   H          -0.97946687441153     -2.74774603770730      1.71849550842168
| 25>   H           1.20442041008754      0.58253506496894      1.94246628143103
| 26>   H           3.19014285845951      2.07531750627953      1.75349127014055
| 27>   H           4.61500250399462      2.02355097684350     -0.30798974569204
| 28>   H           4.05063795254027      0.45714561853992     -2.18370777199558
| 29>   H           2.03691454288437     -1.06152213981378     -1.98470700053196
| 30>   H          -1.08008474855814      1.02950627535191      1.35122370350045
| 31>   H          -3.13792748101449      2.35820691734171      0.88785115637635
| 32>   H          -4.64854137653204      1.72183122470004     -1.00861498117247
| 33>   H          -4.09359322551487     -0.25768253991806     -2.44483213199002
| 34>   H          -2.00406774027538     -1.60802623308075     -1.96421608035938
| 35> **                         ****END OF INPUT****
================================================================================

                       ****************************
                       * Single Point Calculation *
                       ****************************

---------------------------------
CARTESIAN COORDINATES (ANGSTROEM)
---------------------------------
  C     -0.099240   -2.076807    1.681156
  P      0.045203   -1.446140   -0.034321
  O      0.152409   -2.518675   -1.104033
  C      1.489511   -0.316136   -0.031294
  C      1.815596    0.556777    1.026917
  C      2.936353    1.396307    0.924949
  C      3.736194    1.364966   -0.230622
  C      3.419088    0.488397   -1.282461
  C      2.300404   -0.353205   -1.183658
  C     -1.431954   -0.382738   -0.280215
  C     -1.742643    0.733156    0.523061
  C     -2.897613    1.485863    0.260709
  C     -3.743811    1.128637   -0.804414
  C     -3.432992    0.019433   -1.608776
  C     -2.278180   -0.736305   -1.349284
  H     -0.234460   -1.261232    2.418215
  H      0.812698   -2.655413    1.926210
  H     -0.979467   -2.747746    1.718496
  H      1.204420    0.582535    1.942466
  H      3.190143    2.075318    1.753491
  H      4.615003    2.023551   -0.307990
  H      4.050638    0.457146   -2.183708
  H      2.036915   -1.061522   -1.984707
  H     -1.080085    1.029506    1.351224
  H     -3.137927    2.358207    0.887851
  H     -4.648541    1.721831   -1.008615
  H     -4.093593   -0.257683   -2.444832
  H     -2.004068   -1.608026   -1.964216

----------------------------
CARTESIAN COORDINATES (A.U.)
----------------------------
  NO LB      ZA    FRAG     MASS         X           Y           Z
   0 C     6.0000    0    12.011   -0.187537   -3.924596    3.176924
   1 P    15.0000    0    30.974    0.085422   -2.732809   -0.064857
   2 O     8.0000    0    15.999    0.288012   -4.759606   -2.086320
   3 C     6.0000    0    12.011    2.814767   -0.597411   -0.059137
   4 C     6.0000    0    12.011    3.430979    1.052156    1.940592
   5 C     6.0000    0    12.011    5.548903    2.638639    1.747901
   6 C     6.0000    0    12.011    7.060384    2.579411   -0.435813
   7 C     6.0000    0    12.011    6.461140    0.922936   -2.423500
   8 C     6.0000    0    12.011    4.347134   -0.667461   -2.236789
   9 C     6.0000    0    12.011   -2.706002   -0.723269   -0.529529
  10 C     6.0000    0    12.011   -3.293117    1.385464    0.988441
  11 C     6.0000    0    12.011   -5.475695    2.807874    0.492669
  12 C     6.0000    0    12.011   -7.074778    2.132814   -1.520122
  13 C     6.0000    0    12.011   -6.487415    0.036723   -3.040146
  14 C     6.0000    0    12.011   -4.305135   -1.391416   -2.549776
  15 H     1.0000    0     1.008   -0.443066   -2.383383    4.569765
  16 H     1.0000    0     1.008    1.535776   -5.018003    3.640009
  17 H     1.0000    0     1.008   -1.850924   -5.192487    3.247486
  18 H     1.0000    0     1.008    2.276025    1.100832    3.670729
  19 H     1.0000    0     1.008    6.028496    3.921782    3.313618
  20 H     1.0000    0     1.008    8.721091    3.823957   -0.582016
  21 H     1.0000    0     1.008    7.654596    0.863880   -4.126610
  22 H     1.0000    0     1.008    3.849211   -2.005986   -3.750553
  23 H     1.0000    0     1.008   -2.041064    1.945485    2.553443
  24 H     1.0000    0     1.008   -5.929824    4.456365    1.677796
  25 H     1.0000    0     1.008   -8.784470    3.253789   -1.906006
  26 H     1.0000    0     1.008   -7.735770   -0.486949   -4.620063
  27 H     1.0000    0     1.008   -3.787139   -3.038729   -3.711830

--------------------------------
INTERNAL COORDINATES (ANGSTROEM)
--------------------------------
 C      0   0   0     0.000000000000     0.00000000     0.00000000
 P      1   0   0     1.833429670413     0.00000000     0.00000000
 O      2   1   0     1.518587802338   114.94268043     0.00000000
 C      2   1   3     1.833832352324   105.81103483   235.37876577
 C      4   2   1     1.410007248362   124.39251833   321.91730503
 C      5   4   2     1.404031528124   120.01834532   180.79648484
 C      6   5   4     1.405729099717   120.03697728   359.84040910
 C      7   6   5     1.405451614970   120.04925610   359.67286143
 C      8   7   6     1.403391692642   120.07850557     0.26442714
 C      2   1   3     1.836650014993   105.13343697   123.37349970
 C     10   2   1     1.409608792312   124.00886103    57.98060509
 C     11  10   2     1.403336367792   119.96516700   180.15562541
 C     12  11  10     1.406466937209   120.03389308   359.89661222
 C     13  12  11     1.404969474621   120.06512516   359.88316239
 C     14  13  12     1.404303418242   120.06636354     0.12250716
 H      1   2   3     1.107566493703   112.27082561   183.36816851
 H      1   2   3     1.107459741521   108.77687846    61.69904490
 H      1   2   3     1.107407840226   107.61242744   303.39201758
 H      5   4   2     1.101103650416   120.67350525     1.37143542
 H      6   5   4     1.100884151582   119.87866956   180.13786606
 H      7   6   5     1.100919518290   119.90908876   180.05177091
 H      8   7   6     1.100944311727   120.06113328   180.55584646
 H      9   8   7     1.101281086471   121.68278612   180.99771379
 H     11  10   2     1.101208670670   120.59648775     0.86047562
 H     12  11  10     1.100928028840   119.87835258   180.11069906
 H     13  12  11     1.100960679202   119.86946853   180.07826401
 H     14  13  12     1.100989227181   120.04762557   180.23038366
 H     15  14  13     1.101442927127   121.83034348   180.31273859

---------------------------
INTERNAL COORDINATES (A.U.)
---------------------------
 C      0   0   0     0.000000000000     0.00000000     0.00000000
 P      1   0   0     3.464679962887     0.00000000     0.00000000
 O      2   1   0     2.869715056733   114.94268043     0.00000000
 C      2   1   3     3.465440921417   105.81103483   235.37876577
 C      4   2   1     2.664527546248   124.39251833   321.91730503
 C      5   4   2     2.653235071545   120.01834532   180.79648484
 C      6   5   4     2.656443016950   120.03697728   359.84040910
 C      7   6   5     2.655918646770   120.04925610   359.67286143
 C      8   7   6     2.652025957714   120.07850557     0.26442714
 C      2   1   3     3.470765532198   105.13343697   123.37349970
 C     10   2   1     2.663774573436   124.00886103    57.98060509
 C     11  10   2     2.651921408898   119.96516700   180.15562541
 C     12  11  10     2.657837327741   120.03389308   359.89661222
 C     13  12  11     2.655007533552   120.06512516   359.88316239
 C     14  13  12     2.653748869408   120.06636354     0.12250716
 H      1   2   3     2.092997348206   112.27082561   183.36816851
 H      1   2   3     2.092795615819   108.77687846    61.69904490
 H      1   2   3     2.092697536585   107.61242744   303.39201758
 H      5   4   2     2.080784344347   120.67350525     1.37143542
 H      6   5   4     2.080369551664   119.87866956   180.13786606
 H      7   6   5     2.080436385057   119.90908876   180.05177091
 H      8   7   6     2.080483237863   120.06113328   180.55584646
 H      9   8   7     2.081119649897   121.68278612   180.99771379
 H     11  10   2     2.080982803866   120.59648775     0.86047562
 H     12  11  10     2.080452467666   119.87835258   180.11069906
 H     13  12  11     2.080514167907   119.86946853   180.07826401
 H     14  13  12     2.080568115769   120.04762557   180.23038366
 H     15  14  13     2.081425484414   121.83034348   180.31273859

---------------------
BASIS SET INFORMATION
---------------------
There are 4 groups of distinct atoms

 Group   1 Type C   : 11s6p2d1f contracted to 5s3p2d1f pattern {62111/411/11/1}
 Group   2 Type P   : 14s9p3d1f contracted to 5s5p2d1f pattern {73211/51111/21/1}
 Group   3 Type O   : 11s6p2d1f contracted to 5s3p2d1f pattern {62111/411/11/1}
 Group   4 Type H   : 5s1p contracted to 3s1p pattern {311/1}

Atom   0C    basis set group =>   1
Atom   1P    basis set group =>   2
Atom   2O    basis set group =>   3
Atom   3C    basis set group =>   1
Atom   4C    basis set group =>   1
Atom   5C    basis set group =>   1
Atom   6C    basis set group =>   1
Atom   7C    basis set group =>   1
Atom   8C    basis set group =>   1
Atom   9C    basis set group =>   1
Atom  10C    basis set group =>   1
Atom  11C    basis set group =>   1
Atom  12C    basis set group =>   1
Atom  13C    basis set group =>   1
Atom  14C    basis set group =>   1
Atom  15H    basis set group =>   4
Atom  16H    basis set group =>   4
Atom  17H    basis set group =>   4
Atom  18H    basis set group =>   4
Atom  19H    basis set group =>   4
Atom  20H    basis set group =>   4
Atom  21H    basis set group =>   4
Atom  22H    basis set group =>   4
Atom  23H    basis set group =>   4
Atom  24H    basis set group =>   4
Atom  25H    basis set group =>   4
Atom  26H    basis set group =>   4
Atom  27H    basis set group =>   4
---------------------------------
AUXILIARY/J BASIS SET INFORMATION
---------------------------------
There are 4 groups of distinct atoms

 Group   1 Type C   : 12s5p4d2f1g contracted to 6s4p3d1f1g pattern {711111/2111/211/2/1}
 Group   2 Type P   : 14s5p5d2f1g contracted to 8s4p3d1f1g pattern {71111111/2111/311/2/1}
 Group   3 Type O   : 12s5p4d2f1g contracted to 6s4p3d1f1g pattern {711111/2111/211/2/1}
 Group   4 Type H   : 5s2p1d contracted to 3s1p1d pattern {311/2/1}

Atom   0C    basis set group =>   1
Atom   1P    basis set group =>   2
Atom   2O    basis set group =>   3
Atom   3C    basis set group =>   1
Atom   4C    basis set group =>   1
Atom   5C    basis set group =>   1
Atom   6C    basis set group =>   1
Atom   7C    basis set group =>   1
Atom   8C    basis set group =>   1
Atom   9C    basis set group =>   1
Atom  10C    basis set group =>   1
Atom  11C    basis set group =>   1
Atom  12C    basis set group =>   1
Atom  13C    basis set group =>   1
Atom  14C    basis set group =>   1
Atom  15H    basis set group =>   4
Atom  16H    basis set group =>   4
Atom  17H    basis set group =>   4
Atom  18H    basis set group =>   4
Atom  19H    basis set group =>   4
Atom  20H    basis set group =>   4
Atom  21H    basis set group =>   4
Atom  22H    basis set group =>   4
Atom  23H    basis set group =>   4
Atom  24H    basis set group =>   4
Atom  25H    basis set group =>   4
Atom  26H    basis set group =>   4
Atom  27H    basis set group =>   4


           ************************************************************
           *        Program running with 6 parallel MPI-processes     *
           *              working on a common directory               *
           ************************************************************
------------------------------------------------------------------------------
                             ORCA STARTUP CALCULATIONS
                           -- RI-GTO INTEGRALS CHOSEN --
------------------------------------------------------------------------------
------------------------------------------------------------------------------
                   ___                                                        
                  /   \      - P O W E R E D   B Y -                         
                 /     \                                                     
                 |  |  |   _    _      __       _____    __    __             
                 |  |  |  | |  | |    /  \     |  _  \  |  |  /  |          
                  \  \/   | |  | |   /    \    | | | |  |  | /  /          
                 / \  \   | |__| |  /  /\  \   | |_| |  |  |/  /          
                |  |  |   |  __  | /  /__\  \  |    /   |      \           
                |  |  |   | |  | | |   __   |  |    \   |  |\   \          
                \     /   | |  | | |  |  |  |  | |\  \  |  | \   \       
                 \___/    |_|  |_| |__|  |__|  |_| \__\ |__|  \__/        
                                                                              
                      - O R C A' S   B I G   F R I E N D -                    
                                      &                                       
                       - I N T E G R A L  F E E D E R -                       
                                                                              
 v1 FN, 2020, v2 2021, v3 2022-2024                                           
------------------------------------------------------------------------------


----------------------
SHARK INTEGRAL PACKAGE
----------------------

Number of atoms                             ...     28
Number of basis functions                   ...    549
Number of shells                            ...    219
Maximum angular momentum                    ...      3
Integral batch strategy                     ... SHARK/LIBINT Hybrid
RI-J (if used) integral strategy            ... SPLIT-RIJ (Revised 2003 algorithm where possible)
Printlevel                                  ...      1
Contraction scheme used                     ... SEGMENTED contraction
Prescreening option                         ... SCHWARTZ
   Thresh                                   ... 1.000e-10
   Tcut                                     ... 1.000e-11
   Tpresel                                  ... 1.000e-11 
Coulomb Range Separation                    ... NOT USED
Exchange Range Separation                   ... NOT USED
Multipole approximations                    ... NOT USED
Finite Nucleus Model                        ... NOT USED
CABS basis                                  ... NOT available
Auxiliary Coulomb fitting basis             ... AVAILABLE
   # of basis functions in Aux-J            ...    880
   # of shells in Aux-J                     ...    292
   Maximum angular momentum in Aux-J        ...      4
Auxiliary J/K fitting basis                 ... NOT available
Auxiliary Correlation fitting basis         ... NOT available
Auxiliary 'external' fitting basis          ... NOT available

Checking pre-screening integrals            ... done (  0.0 sec) Dimension = 219
Check shell pair data                       ... done (  0.0 sec)
Shell pair information
Shell pair cut-off parameter TPreSel        ...   1.0e-11
Total number of shell pairs                 ...     24090
Shell pairs after pre-screening             ...     18837
Total number of primitive shell pairs       ...     74688
Primitive shell pairs kept                  ...     39949
          la=0 lb=0:   4909 shell pairs
          la=1 lb=0:   5449 shell pairs
          la=1 lb=1:   1556 shell pairs
          la=2 lb=0:   2631 shell pairs
          la=2 lb=1:   1502 shell pairs
          la=2 lb=2:    393 shell pairs
          la=3 lb=0:   1262 shell pairs
          la=3 lb=1:    706 shell pairs
          la=3 lb=2:    342 shell pairs
          la=3 lb=3:     87 shell pairs

Calculating one electron integrals          ... done (  0.0 sec)
Calculating RI/J V-Matrix + Cholesky decomp.... done (  0.0 sec)
Calculating Nuclear repulsion               ... done (  0.0 sec) ENN=   1037.919978881713 Eh

Diagonalization of the overlap matrix:
Smallest eigenvalue                        ... 8.867e-06
Time for diagonalization                   ...    0.050 sec
Threshold for overlap eigenvalues          ... 1.000e-07
Number of eigenvalues below threshold      ... 0
Time for construction of square roots      ...    0.026 sec
Total time needed                          ...    0.079 sec

-------------------
DFT GRID GENERATION
-------------------

General Integration Accuracy     IntAcc      ... 4.388
Radial Grid Type                 RadialGrid  ... OptM3 with GC (2021)
Angular Grid (max. ang.)         AngularGrid ... 4 (Lebedev-302)
Angular grid pruning method      GridPruning ... 4 (adaptive)
Weight generation scheme         WeightScheme... mBecke (2022)
Basis function cutoff            BFCut       ... 1.0000e-10
Integration weight cutoff        WCut        ... 1.0000e-14
Partially contracted basis set               ... off
Rotationally invariant grid construction     ... off
Angular grids for H and He will be reduced by one unit

Total number of grid points                  ...   132856
Total number of batches                      ...     2093
Average number of points per batch           ...       63
Average number of grid points per atom       ...     4745

--------------------
COSX GRID GENERATION
--------------------

GRIDX 1
-------
General Integration Accuracy     IntAcc      ... 3.816
Radial Grid Type                 RadialGrid  ... OptM3 with GC (2021)
Angular Grid (max. ang.)         AngularGrid ... 1 (Lebedev-50)
Angular grid pruning method      GridPruning ... 4 (adaptive)
Weight generation scheme         WeightScheme... mBecke (2022)
Basis function cutoff            BFCut       ... 1.0000e-10
Integration weight cutoff        WCut        ... 1.0000e-14
Partially contracted basis set               ... on
Rotationally invariant grid construction     ... off
Angular grids for H and He will be reduced by one unit

Total number of grid points                  ...    17917
Total number of batches                      ...      154
Average number of points per batch           ...      116
Average number of grid points per atom       ...      640
UseSFitting                                  ... on

GRIDX 2
-------
General Integration Accuracy     IntAcc      ... 4.020
Radial Grid Type                 RadialGrid  ... OptM3 with GC (2021)
Angular Grid (max. ang.)         AngularGrid ... 2 (Lebedev-110)
Angular grid pruning method      GridPruning ... 4 (adaptive)
Weight generation scheme         WeightScheme... mBecke (2022)
Basis function cutoff            BFCut       ... 1.0000e-10
Integration weight cutoff        WCut        ... 1.0000e-14
Partially contracted basis set               ... on
Rotationally invariant grid construction     ... off
Angular grids for H and He will be reduced by one unit

Total number of grid points                  ...    36557
Total number of batches                      ...      298
Average number of points per batch           ...      122
Average number of grid points per atom       ...     1306
UseSFitting                                  ... on

GRIDX 3
-------
General Integration Accuracy     IntAcc      ... 4.338
Radial Grid Type                 RadialGrid  ... OptM3 with GC (2021)
Angular Grid (max. ang.)         AngularGrid ... 3 (Lebedev-194)
Angular grid pruning method      GridPruning ... 4 (adaptive)
Weight generation scheme         WeightScheme... mBecke (2022)
Basis function cutoff            BFCut       ... 1.0000e-10
Integration weight cutoff        WCut        ... 1.0000e-14
Partially contracted basis set               ... on
Rotationally invariant grid construction     ... off
Angular grids for H and He will be reduced by one unit

Total number of grid points                  ...    80422
Total number of batches                      ...      643
Average number of points per batch           ...      125
Average number of grid points per atom       ...     2872
UseSFitting                                  ... on
Initializing property integral containers    ... done (  0.0 sec)

SHARK setup successfully completed in   2.5 seconds

Maximum memory used throughout the entire STARTUP-calculation: 51.2 MB


           ************************************************************
           *        Program running with 6 parallel MPI-processes     *
           *              working on a common directory               *
           ************************************************************
-------------------------------------------------------------------------------
                                 ORCA GUESS
                   Start orbitals & Density for SCF / CASSCF
-------------------------------------------------------------------------------

------------
SCF SETTINGS
------------
Hamiltonian:
 Density Functional     Method          .... DFT(GTOs)
 Exchange Functional    Exchange        .... M062X
 Correlation Functional Correlation     .... M062X
 Gradients option       PostSCFGGA      .... off
 Hybrid DFT is turned on
   Fraction HF Exchange ScalHFX         ....  0.540000
   Scaling of DF-GGA-X  ScalDFX         ....  0.460000
   Scaling of DF-GGA-C  ScalDFC         ....  1.000000
   Scaling of DF-LDA-C  ScalLDAC        ....  1.000000
   Perturbative correction              ....  0.000000
 RI-approximation to the Coulomb term is turned on
   Number of AuxJ basis functions       .... 880
   RIJ-COSX (HFX calculated with COS-X)).... on


General Settings:
 Integral files         IntName         .... data/single_point_PO_M06-2x/73879/73879
 Hartree-Fock type      HFTyp           .... RHF
 Total Charge           Charge          ....    0
 Multiplicity           Mult            ....    1
 Number of Electrons    NEL             ....  114
 Basis Dimension        Dim             ....  549
 Nuclear Repulsion      ENuc            ....   1037.9199788817 Eh

Convergence Acceleration:
 AO-DIIS                CNVDIIS         .... on
   Start iteration      DIISMaxIt       ....    12
   Startup error        DIISStart       ....  0.200000
   # of expansion vecs  DIISMaxEq       ....     5
   Bias factor          DIISBfac        ....   1.050
   Max. coefficient     DIISMaxC        ....  10.000
 MO-DIIS                CNVKDIIS        .... off
 Trust-Rad. Augm. Hess. CNVTRAH         .... auto
   Auto Start mean grad. ratio tolernc. ....  1.125000
   Auto Start start iteration           ....    50
   Auto Start num. interpolation iter.  ....    10
   Max. Number of Micro iterations      ....    24
   Max. Number of Macro iterations      .... Maxiter - #DIIS iter
   Number of Davidson start vectors     ....     2
   Converg. threshold    (grad. norm)   ....   5.000e-05
   Grad. Scal. Fac. for Micro threshold ....   0.100
   Minimum threshold for Micro iter.    ....   1.000e-02
   NR start threshold (gradient norm)   ....   1.000e-04
   Initial trust radius                 ....   0.400
   Minimum AH scaling param. (alpha)    ....   1.000
   Maximum AH scaling param. (alpha)    .... 1000.000
   Quad. conv. algorithm                .... NR
   White noise on init. David. guess    .... on
   Maximum white noise                  ....   0.010
   Pseudo random numbers                .... off
   Inactive MOs                         .... canonical
   Orbital update algorithm             .... Taylor
   Preconditioner                       .... Diag
   Full preconditioner red. dimension   ....   250
 SOSCF                  CNVSOSCF        .... on
   Start iteration      SOSCFMaxIt      ....   150
   Startup grad/error   SOSCFStart      ....  0.003300
   Hessian update       SOSCFHessUp     .... L-BFGS
 Level Shifting         CNVShift        .... on
   Level shift para.    LevelShift      ....    0.2500
   Turn off err/grad.   ShiftErr        ....    0.0010
 Zerner damping         CNVZerner       .... off
 Static damping         CNVDamp         .... on
   Fraction old density DampFac         ....    0.7000
   Max. Damping (<1)    DampMax         ....    0.9800
   Min. Damping (>=0)   DampMin         ....    0.0000
   Turn off err/grad.   DampErr         ....    0.1000

SCF Procedure:
 Maximum # iterations   MaxIter         ....   125
 SCF integral mode      SCFMode         .... Direct
   Integral package                     .... SHARK and LIBINT hybrid scheme
 Reset frequency        DirectResetFreq ....    20
 Integral Threshold     Thresh          ....  1.000e-10 Eh
 Primitive CutOff       TCut            ....  1.000e-11 Eh

Convergence Tolerance:
 Convergence Check Mode ConvCheckMode   .... Total+1el-Energy
 Convergence forced     ConvForced      .... 0
 Energy Change          TolE            ....  1.000e-06 Eh
 1-El. energy change                    ....  1.000e-03 Eh
 Orbital Gradient       TolG            ....  5.000e-05
 Orbital Rotation angle TolX            ....  5.000e-05
 DIIS Error             TolErr          ....  1.000e-05

------------------------------
INITIAL GUESS: MODEL POTENTIAL
------------------------------
Loading Hartree-Fock densities                     ... done
Calculating cut-offs                               ... done
Initializing the effective Hamiltonian             ... done
Setting up the integral package (SHARK)            ... done
Starting the Coulomb interaction                   ... done (   0.2 sec)
Making the grid                                    ... done (   0.2 sec)
Mapping shells                                     ... done
Starting the XC term evaluation                    ... done (   0.3 sec)
  promolecular density results
     # of electrons  =    114.000440786
     EX              =   -100.929564352
     EC              =     -3.853076234
     EX+EC           =   -104.782640586
Transforming the Hamiltonian                       ... done (   0.0 sec)
Diagonalizing the Hamiltonian                      ... done (   0.1 sec)
Back transforming the eigenvectors                 ... done (   0.0 sec)
Now organizing SCF variables                       ... done
                      ------------------
                      INITIAL GUESS DONE (   0.9 sec)
                      ------------------
             **** ENERGY FILE WAS UPDATED (data/single_point_PO_M06-2x/73879/73879.en.tmp) ****
Finished Guess after   1.1 sec
Maximum memory used throughout the entire GUESS-calculation: 36.1 MB


           ************************************************************
           *        Program running with 6 parallel MPI-processes     *
           *              working on a common directory               *
           ************************************************************

-------------------------------------------------------------------------------------------
                                      ORCA LEAN-SCF
                              memory conserving SCF solver
-------------------------------------------------------------------------------------------

----------------------------------------D-I-I-S--------------------------------------------
Iteration    Energy (Eh)           Delta-E    RMSDP     MaxDP     DIISErr   Damp  Time(sec)
-------------------------------------------------------------------------------------------
               ***  Starting incremental Fock matrix formation  ***
    1    -919.3338930911579610     0.00e+00  1.63e-03  8.49e-02  3.62e-01  0.700   9.4
    2    -919.5314848931636789    -1.98e-01  1.33e-03  7.97e-02  1.56e-01  0.700   5.3
                               ***Turning on AO-DIIS***
    3    -919.6195592850356206    -8.81e-02  7.51e-04  1.92e-02  5.06e-02  0.700   5.7
    4    -919.6724005444423256    -5.28e-02  1.70e-03  5.31e-02  3.25e-02  0.000   4.8
    5    -919.7868091210100374    -1.14e-01  1.54e-04  1.23e-02  6.13e-03  0.000   5.2
                              *** Initializing SOSCF ***
---------------------------------------S-O-S-C-F--------------------------------------
Iteration    Energy (Eh)           Delta-E    RMSDP     MaxDP     MaxGrad    Time(sec)
--------------------------------------------------------------------------------------
    6    -919.7871410682130318    -3.32e-04  5.26e-05  3.78e-03  1.64e-03     4.8
               *** Restarting incremental Fock matrix formation ***
    7    -919.7870426846736791     9.84e-05  8.78e-05  4.46e-03  1.67e-04     9.0
    8    -919.7870434301701152    -7.45e-07  2.74e-05  1.34e-03  2.31e-04     6.1
                 **** Energy Check signals convergence ****

               *****************************************************
               *                     SUCCESS                       *
               *           SCF CONVERGED AFTER   8 CYCLES          *
               *****************************************************

Recomputing exchange energy using gridx3       ... done (   13.047 sec)
Old exchange energy                            :    -55.526121100 Eh
New exchange energy                            :    -55.526078741 Eh
Exchange energy change after final integration :      0.000042359 Eh
Total energy after final integration           :   -919.787001072 Eh
             **** ENERGY FILE WAS UPDATED (data/single_point_PO_M06-2x/73879/73879.en.tmp) ****

----------------
TOTAL SCF ENERGY
----------------

Total Energy       :       -919.78700107161058 Eh          -25028.67673 eV

Components:
Nuclear Repulsion  :       1037.91997888171340 Eh           28243.23848 eV
Electronic Energy  :      -1957.70702231188352 Eh          -53271.91637 eV
One Electron Energy:      -3315.85165805698125 Eh          -90228.91076 eV
Two Electron Energy:       1358.14463574509773 Eh           36956.99440 eV

Virial components:
Potential Energy   :      -1835.14128207557405 Eh          -49936.73302 eV
Kinetic Energy     :        915.35428100396359 Eh           24908.05629 eV
Virial Ratio       :          2.00484262777772

DFT components:
N(Alpha)           :       57.000070405540 electrons
N(Beta)            :       57.000070405540 electrons
N(Total)           :      114.000140811081 electrons
E(XC)              :      -51.441577947189 Eh       

---------------
SCF CONVERGENCE
---------------

  Last Energy change         ...    7.4550e-07  Tolerance :   1.0000e-06
  Last MAX-Density change    ...    1.3383e-03  Tolerance :   1.0000e-05
  Last RMS-Density change    ...    2.7403e-05  Tolerance :   1.0000e-06
  Last DIIS Error            ...    1.6412e-03  Tolerance :   1.0000e-05
  Last Orbital Gradient      ...    2.3108e-04  Tolerance :   5.0000e-05
  Last Orbital Rotation      ...    3.3236e-04  Tolerance :   5.0000e-05


----------------
ORBITAL ENERGIES
----------------

  NO   OCC          E(Eh)            E(eV) 
   0   2.0000     -78.096350     -2125.1097 
   1   2.0000     -19.567222      -532.4512 
   2   2.0000     -10.566343      -287.5248 
   3   2.0000     -10.563908      -287.4586 
   4   2.0000     -10.561471      -287.3922 
   5   2.0000     -10.560436      -287.3641 
   6   2.0000     -10.559904      -287.3496 
   7   2.0000     -10.559637      -287.3423 
   8   2.0000     -10.558751      -287.3182 
   9   2.0000     -10.557959      -287.2967 
  10   2.0000     -10.557698      -287.2896 
  11   2.0000     -10.557143      -287.2745 
  12   2.0000     -10.556357      -287.2531 
  13   2.0000     -10.555470      -287.2289 
  14   2.0000     -10.550829      -287.1027 
  15   2.0000      -6.902495      -187.8264 
  16   2.0000      -5.019692      -136.5928 
  17   2.0000      -5.019499      -136.5875 
  18   2.0000      -5.017928      -136.5448 
  19   2.0000      -1.062549       -28.9134 
  20   2.0000      -0.965756       -26.2796 
  21   2.0000      -0.962423       -26.1889 
  22   2.0000      -0.867750       -23.6127 
  23   2.0000      -0.850251       -23.1365 
  24   2.0000      -0.848204       -23.0808 
  25   2.0000      -0.845912       -23.0184 
  26   2.0000      -0.816948       -22.2303 
  27   2.0000      -0.715359       -19.4659 
  28   2.0000      -0.696909       -18.9638 
  29   2.0000      -0.693535       -18.8720 
  30   2.0000      -0.685404       -18.6508 
  31   2.0000      -0.633998       -17.2520 
  32   2.0000      -0.599564       -16.3150 
  33   2.0000      -0.581143       -15.8137 
  34   2.0000      -0.533665       -14.5218 
  35   2.0000      -0.529364       -14.4047 
  36   2.0000      -0.523971       -14.2580 
  37   2.0000      -0.522666       -14.2225 
  38   2.0000      -0.505449       -13.7540 
  39   2.0000      -0.504111       -13.7176 
  40   2.0000      -0.495100       -13.4723 
  41   2.0000      -0.492771       -13.4090 
  42   2.0000      -0.472625       -12.8608 
  43   2.0000      -0.466839       -12.7033 
  44   2.0000      -0.447997       -12.1906 
  45   2.0000      -0.443612       -12.0713 
  46   2.0000      -0.436892       -11.8884 
  47   2.0000      -0.415158       -11.2970 
  48   2.0000      -0.410134       -11.1603 
  49   2.0000      -0.405167       -11.0251 
  50   2.0000      -0.401035       -10.9127 
  51   2.0000      -0.339586        -9.2406 
  52   2.0000      -0.335907        -9.1405 
  53   2.0000      -0.322990        -8.7890 
  54   2.0000      -0.318679        -8.6717 
  55   2.0000      -0.315547        -8.5865 
  56   2.0000      -0.310956        -8.4615 
  57   0.0000      -0.015711        -0.4275 
  58   0.0000       0.002173         0.0591 
  59   0.0000       0.008364         0.2276 
  60   0.0000       0.012934         0.3520 
  61   0.0000       0.053807         1.4642 
  62   0.0000       0.083443         2.2706 
  63   0.0000       0.083571         2.2741 
  64   0.0000       0.090175         2.4538 
  65   0.0000       0.096793         2.6339 
  66   0.0000       0.111024         3.0211 
  67   0.0000       0.113603         3.0913 
*Only the first 10 virtual orbitals were printed.

                    ********************************
                    * MULLIKEN POPULATION ANALYSIS *
                    ********************************

-----------------------
MULLIKEN ATOMIC CHARGES
-----------------------
   0 C :   -0.492800
   1 P :    0.645012
   2 O :   -0.608840
   3 C :   -0.038017
   4 C :   -0.185266
   5 C :   -0.166147
   6 C :   -0.136405
   7 C :   -0.135375
   8 C :   -0.155909
   9 C :   -0.076052
  10 C :   -0.157280
  11 C :   -0.168738
  12 C :   -0.135385
  13 C :   -0.139728
  14 C :   -0.144968
  15 H :    0.154237
  16 H :    0.179735
  17 H :    0.178193
  18 H :    0.159214
  19 H :    0.146853
  20 H :    0.148949
  21 H :    0.150182
  22 H :    0.193637
  23 H :    0.144208
  24 H :    0.145807
  25 H :    0.148633
  26 H :    0.149983
  27 H :    0.196267
Sum of atomic charges:   -0.0000000

--------------------------------
MULLIKEN REDUCED ORBITAL CHARGES
--------------------------------
  0 C s       :     3.279094  s :     3.279094
      pz      :     0.996932  p :     3.179649
      px      :     1.116416
      py      :     1.066301
      dz2     :     0.007517  d :     0.032150
      dxz     :     0.004046
      dyz     :     0.008487
      dx2y2   :     0.003097
      dxy     :     0.009002
      f0      :     0.000349  f :     0.001908
      f+1     :     0.000154
      f-1     :     0.000504
      f+2     :     0.000133
      f-2     :     0.000181
      f+3     :     0.000045
      f-3     :     0.000542

  1 P s       :     5.297411  s :     5.297411
      pz      :     2.750161  p :     8.288307
      px      :     2.819169
      py      :     2.718977
      dz2     :     0.222274  d :     0.703733
      dxz     :     0.095859
      dyz     :     0.098975
      dx2y2   :     0.089134
      dxy     :     0.197491
      f0      :     0.010243  f :     0.065537
      f+1     :     0.008296
      f-1     :     0.012014
      f+2     :     0.006324
      f-2     :     0.013789
      f+3     :     0.007958
      f-3     :     0.006913

  2 O s       :     3.880055  s :     3.880055
      pz      :     1.511574  p :     4.702771
      px      :     1.663962
      py      :     1.527235
      dz2     :     0.005905  d :     0.024753
      dxz     :     0.003710
      dyz     :     0.007384
      dx2y2   :     0.004051
      dxy     :     0.003703
      f0      :     0.000169  f :     0.001261
      f+1     :     0.000056
      f-1     :     0.000358
      f+2     :     0.000278
      f-2     :     0.000225
      f+3     :     0.000085
      f-3     :     0.000090

  3 C s       :     3.219612  s :     3.219612
      pz      :     0.871682  p :     2.738620
      px      :     0.930028
      py      :     0.936910
      dz2     :     0.021560  d :     0.072762
      dxz     :     0.011421
      dyz     :     0.014324
      dx2y2   :     0.010819
      dxy     :     0.014637
      f0      :     0.001328  f :     0.007024
      f+1     :     0.000800
      f-1     :     0.000997
      f+2     :     0.000987
      f-2     :     0.001503
      f+3     :     0.000657
      f-3     :     0.000753

  4 C s       :     3.166489  s :     3.166489
      pz      :     0.963755  p :     2.944957
      px      :     1.049202
      py      :     0.931999
      dz2     :     0.011941  d :     0.067297
      dxz     :     0.017142
      dyz     :     0.009141
      dx2y2   :     0.019677
      dxy     :     0.009395
      f0      :     0.000934  f :     0.006522
      f+1     :     0.000820
      f-1     :     0.000728
      f+2     :     0.000742
      f-2     :     0.001289
      f+3     :     0.001216
      f-3     :     0.000793

  5 C s       :     3.235857  s :     3.235857
      pz      :     0.965405  p :     2.863215
      px      :     0.926960
      py      :     0.970850
      dz2     :     0.012143  d :     0.060753
      dxz     :     0.010324
      dyz     :     0.013863
      dx2y2   :     0.014093
      dxy     :     0.010331
      f0      :     0.001069  f :     0.006322
      f+1     :     0.000666
      f-1     :     0.000823
      f+2     :     0.000553
      f-2     :     0.001369
      f+3     :     0.001154
      f-3     :     0.000689

  6 C s       :     3.227042  s :     3.227042
      pz      :     0.893832  p :     2.841420
      px      :     0.985314
      py      :     0.962275
      dz2     :     0.017525  d :     0.061665
      dxz     :     0.013491
      dyz     :     0.012732
      dx2y2   :     0.007087
      dxy     :     0.010830
      f0      :     0.001198  f :     0.006278
      f+1     :     0.000805
      f-1     :     0.000969
      f+2     :     0.000925
      f-2     :     0.001249
      f+3     :     0.000403
      f-3     :     0.000728

  7 C s       :     3.225957  s :     3.225957
      pz      :     0.970996  p :     2.843341
      px      :     0.953840
      py      :     0.918505
      dz2     :     0.011353  d :     0.059814
      dxz     :     0.014601
      dyz     :     0.008582
      dx2y2   :     0.017666
      dxy     :     0.007612
      f0      :     0.000894  f :     0.006263
      f+1     :     0.000785
      f-1     :     0.000742
      f+2     :     0.000709
      f-2     :     0.001247
      f+3     :     0.001130
      f-3     :     0.000755

  8 C s       :     3.214469  s :     3.214469
      pz      :     0.990478  p :     2.871862
      px      :     0.911354
      py      :     0.970030
      dz2     :     0.011155  d :     0.063092
      dxz     :     0.012123
      dyz     :     0.015453
      dx2y2   :     0.015377
      dxy     :     0.008985
      f0      :     0.001090  f :     0.006486
      f+1     :     0.000683
      f-1     :     0.000742
      f+2     :     0.000603
      f-2     :     0.001466
      f+3     :     0.001139
      f-3     :     0.000763

  9 C s       :     3.223065  s :     3.223065
      pz      :     0.901114  p :     2.773209
      px      :     0.952472
      py      :     0.919622
      dz2     :     0.021647  d :     0.072751
      dxz     :     0.008971
      dyz     :     0.011885
      dx2y2   :     0.013076
      dxy     :     0.017171
      f0      :     0.000845  f :     0.007027
      f+1     :     0.000781
      f-1     :     0.001248
      f+2     :     0.001119
      f-2     :     0.001432
      f+3     :     0.000804
      f-3     :     0.000797

 10 C s       :     3.166594  s :     3.166594
      pz      :     0.981722  p :     2.917501
      px      :     1.003638
      py      :     0.932141
      dz2     :     0.009277  d :     0.066655
      dxz     :     0.015466
      dyz     :     0.010610
      dx2y2   :     0.019249
      dxy     :     0.012053
      f0      :     0.000508  f :     0.006529
      f+1     :     0.000692
      f-1     :     0.001116
      f+2     :     0.000799
      f-2     :     0.001337
      f+3     :     0.001286
      f-3     :     0.000792

 11 C s       :     3.239160  s :     3.239160
      pz      :     0.955953  p :     2.863319
      px      :     0.916107
      py      :     0.991259
      dz2     :     0.012780  d :     0.059953
      dxz     :     0.009855
      dyz     :     0.012390
      dx2y2   :     0.012989
      dxy     :     0.011939
      f0      :     0.000975  f :     0.006306
      f+1     :     0.000853
      f-1     :     0.000567
      f+2     :     0.000951
      f-2     :     0.001261
      f+3     :     0.001118
      f-3     :     0.000582

 12 C s       :     3.226574  s :     3.226574
      pz      :     0.910882  p :     2.840886
      px      :     0.987013
      py      :     0.942991
      dz2     :     0.019311  d :     0.061647
      dxz     :     0.010306
      dyz     :     0.008804
      dx2y2   :     0.009701
      dxy     :     0.013525
      f0      :     0.000808  f :     0.006278
      f+1     :     0.000740
      f-1     :     0.001133
      f+2     :     0.001038
      f-2     :     0.001220
      f+3     :     0.000524
      f-3     :     0.000815

 13 C s       :     3.226709  s :     3.226709
      pz      :     0.982229  p :     2.846873
      px      :     0.952304
      py      :     0.912341
      dz2     :     0.008914  d :     0.059881
      dxz     :     0.013709
      dyz     :     0.010257
      dx2y2   :     0.017497
      dxy     :     0.009504
      f0      :     0.000509  f :     0.006264
      f+1     :     0.000670
      f-1     :     0.001079
      f+2     :     0.000772
      f-2     :     0.001268
      f+3     :     0.001196
      f-3     :     0.000770

 14 C s       :     3.207393  s :     3.207393
      pz      :     0.951993  p :     2.867767
      px      :     0.905069
      py      :     1.010706
      dz2     :     0.013236  d :     0.063345
      dxz     :     0.011701
      dyz     :     0.012662
      dx2y2   :     0.015079
      dxy     :     0.010668
      f0      :     0.000983  f :     0.006462
      f+1     :     0.000834
      f-1     :     0.000527
      f+2     :     0.000987
      f-2     :     0.001317
      f+3     :     0.001189
      f-3     :     0.000624

 15 H s       :     0.826048  s :     0.826048
      pz      :     0.008260  p :     0.019715
      px      :     0.003701
      py      :     0.007754

 16 H s       :     0.800588  s :     0.800588
      pz      :     0.004614  p :     0.019677
      px      :     0.008969
      py      :     0.006095

 17 H s       :     0.801917  s :     0.801917
      pz      :     0.004179  p :     0.019890
      px      :     0.008754
      py      :     0.006958

 18 H s       :     0.820985  s :     0.820985
      pz      :     0.010261  p :     0.019801
      px      :     0.006246
      py      :     0.003294

 19 H s       :     0.833427  s :     0.833427
      pz      :     0.008797  p :     0.019720
      px      :     0.003623
      py      :     0.007300

 20 H s       :     0.831399  s :     0.831399
      pz      :     0.002891  p :     0.019652
      px      :     0.009775
      py      :     0.006986

 21 H s       :     0.830071  s :     0.830071
      pz      :     0.010020  p :     0.019747
      px      :     0.006524
      py      :     0.003203

 22 H s       :     0.785625  s :     0.785625
      pz      :     0.008430  p :     0.020738
      px      :     0.003929
      py      :     0.008379

 23 H s       :     0.835944  s :     0.835944
      pz      :     0.008974  p :     0.019848
      px      :     0.006963
      py      :     0.003910

 24 H s       :     0.834482  s :     0.834482
      pz      :     0.006524  p :     0.019711
      px      :     0.003479
      py      :     0.009707

 25 H s       :     0.831728  s :     0.831728
      pz      :     0.003423  p :     0.019639
      px      :     0.010111
      py      :     0.006105

 26 H s       :     0.830280  s :     0.830280
      pz      :     0.009201  p :     0.019737
      px      :     0.006805
      py      :     0.003730

 27 H s       :     0.782962  s :     0.782962
      pz      :     0.006224  p :     0.020771
      px      :     0.004040
      py      :     0.010507



                     *******************************
                     * LOEWDIN POPULATION ANALYSIS *
                     *******************************

----------------------
LOEWDIN ATOMIC CHARGES
----------------------
   0 C :   -0.417849
   1 P :    0.621657
   2 O :   -0.315569
   3 C :   -0.232049
   4 C :   -0.140499
   5 C :   -0.141254
   6 C :   -0.132130
   7 C :   -0.134835
   8 C :   -0.114335
   9 C :   -0.233321
  10 C :   -0.134430
  11 C :   -0.141160
  12 C :   -0.133142
  13 C :   -0.136586
  14 C :   -0.117579
  15 H :    0.124011
  16 H :    0.134639
  17 H :    0.136156
  18 H :    0.144434
  19 H :    0.148539
  20 H :    0.148834
  21 H :    0.149883
  22 H :    0.161960
  23 H :    0.146213
  24 H :    0.148376
  25 H :    0.148545
  26 H :    0.149439
  27 H :    0.162053

-------------------------------
LOEWDIN REDUCED ORBITAL CHARGES
-------------------------------
  0 C s       :     2.904335  s :     2.904335
      pz      :     1.129352  p :     3.328017
      px      :     1.103718
      py      :     1.094946
      dz2     :     0.048600  d :     0.171860
      dxz     :     0.018953
      dyz     :     0.047637
      dx2y2   :     0.013825
      dxy     :     0.042845
      f0      :     0.001973  f :     0.013637
      f+1     :     0.002597
      f-1     :     0.002262
      f+2     :     0.002510
      f-2     :     0.001084
      f+3     :     0.000482
      f-3     :     0.002729

  1 P s       :     4.654513  s :     4.654513
      pz      :     2.773369  p :     8.297011
      px      :     2.771420
      py      :     2.752222
      dz2     :     0.358857  d :     1.203606
      dxz     :     0.150975
      dyz     :     0.223232
      dx2y2   :     0.154110
      dxy     :     0.316432
      f0      :     0.034728  f :     0.223212
      f+1     :     0.026198
      f-1     :     0.042361
      f+2     :     0.027791
      f-2     :     0.042344
      f+3     :     0.026658
      f-3     :     0.023133

  2 O s       :     3.540010  s :     3.540010
      pz      :     1.566076  p :     4.731735
      px      :     1.600093
      py      :     1.565566
      dz2     :     0.007559  d :     0.041711
      dxz     :     0.004294
      dyz     :     0.018758
      dx2y2   :     0.006864
      dxy     :     0.004236
      f0      :     0.000259  f :     0.002113
      f+1     :     0.000058
      f-1     :     0.000643
      f+2     :     0.000580
      f-2     :     0.000292
      f+3     :     0.000140
      f-3     :     0.000140

  3 C s       :     2.773048  s :     2.773048
      pz      :     1.034476  p :     2.985537
      px      :     0.985795
      py      :     0.965266
      dz2     :     0.126379  d :     0.429855
      dxz     :     0.088079
      dyz     :     0.086321
      dx2y2   :     0.046407
      dxy     :     0.082668
      f0      :     0.007913  f :     0.043610
      f+1     :     0.006296
      f-1     :     0.007131
      f+2     :     0.006780
      f-2     :     0.008504
      f+3     :     0.003491
      f-3     :     0.003495

  4 C s       :     2.774473  s :     2.774473
      pz      :     0.981193  p :     2.941777
      px      :     0.988038
      py      :     0.972546
      dz2     :     0.076342  d :     0.383361
      dxz     :     0.105630
      dyz     :     0.057962
      dx2y2   :     0.077292
      dxy     :     0.066135
      f0      :     0.007192  f :     0.040889
      f+1     :     0.004681
      f-1     :     0.005729
      f+2     :     0.004629
      f-2     :     0.007614
      f+3     :     0.006426
      f-3     :     0.004617

  5 C s       :     2.777948  s :     2.777948
      pz      :     0.996550  p :     2.949249
      px      :     1.004608
      py      :     0.948091
      dz2     :     0.069734  d :     0.373498
      dxz     :     0.089049
      dyz     :     0.086092
      dx2y2   :     0.069572
      dxy     :     0.059050
      f0      :     0.008050  f :     0.040560
      f+1     :     0.005438
      f-1     :     0.005051
      f+2     :     0.003825
      f-2     :     0.007463
      f+3     :     0.005731
      f-3     :     0.005002

  6 C s       :     2.779432  s :     2.779432
      pz      :     1.035269  p :     2.938263
      px      :     0.958143
      py      :     0.944851
      dz2     :     0.119654  d :     0.373970
      dxz     :     0.077071
      dyz     :     0.079274
      dx2y2   :     0.030896
      dxy     :     0.067075
      f0      :     0.007352  f :     0.040464
      f+1     :     0.006066
      f-1     :     0.007126
      f+2     :     0.006874
      f-2     :     0.007442
      f+3     :     0.002315
      f-3     :     0.003289

  7 C s       :     2.778134  s :     2.778134
      pz      :     0.985459  p :     2.944065
      px      :     0.984135
      py      :     0.974471
      dz2     :     0.072625  d :     0.372199
      dxz     :     0.102101
      dyz     :     0.058817
      dx2y2   :     0.072996
      dxy     :     0.065659
      f0      :     0.006984  f :     0.040437
      f+1     :     0.004493
      f-1     :     0.005849
      f+2     :     0.004586
      f-2     :     0.007546
      f+3     :     0.006357
      f-3     :     0.004622

  8 C s       :     2.776495  s :     2.776495
      pz      :     0.989438  p :     2.917856
      px      :     0.988822
      py      :     0.939596
      dz2     :     0.068689  d :     0.378987
      dxz     :     0.090709
      dyz     :     0.085884
      dx2y2   :     0.072560
      dxy     :     0.061144
      f0      :     0.008099  f :     0.040997
      f+1     :     0.005484
      f-1     :     0.004893
      f+2     :     0.003954
      f-2     :     0.007671
      f+3     :     0.005871
      f-3     :     0.005024

  9 C s       :     2.773196  s :     2.773196
      pz      :     0.997233  p :     2.985650
      px      :     0.993164
      py      :     0.995253
      dz2     :     0.101874  d :     0.430865
      dxz     :     0.069738
      dyz     :     0.087488
      dx2y2   :     0.070258
      dxy     :     0.101507
      f0      :     0.004847  f :     0.043611
      f+1     :     0.005614
      f-1     :     0.007786
      f+2     :     0.007411
      f-2     :     0.007122
      f+3     :     0.006022
      f-3     :     0.004809

 10 C s       :     2.773919  s :     2.773919
      pz      :     0.953433  p :     2.937002
      px      :     0.990847
      py      :     0.992722
      dz2     :     0.055620  d :     0.382505
      dxz     :     0.088401
      dyz     :     0.059910
      dx2y2   :     0.088264
      dxy     :     0.090311
      f0      :     0.003989  f :     0.041005
      f+1     :     0.003873
      f-1     :     0.007104
      f+2     :     0.006002
      f-2     :     0.006295
      f+3     :     0.008565
      f-3     :     0.005177

 11 C s       :     2.777897  s :     2.777897
      pz      :     0.976654  p :     2.949172
      px      :     1.013572
      py      :     0.958946
      dz2     :     0.058572  d :     0.373522
      dxz     :     0.085491
      dyz     :     0.075386
      dx2y2   :     0.087129
      dxy     :     0.066944
      f0      :     0.006416  f :     0.040568
      f+1     :     0.005274
      f-1     :     0.004424
      f+2     :     0.006025
      f-2     :     0.006248
      f+3     :     0.007442
      f-3     :     0.004741

 12 C s       :     2.779497  s :     2.779497
      pz      :     0.993494  p :     2.939066
      px      :     0.964763
      py      :     0.980809
      dz2     :     0.094018  d :     0.374127
      dxz     :     0.060312
      dyz     :     0.079644
      dx2y2   :     0.055534
      dxy     :     0.084619
      f0      :     0.004663  f :     0.040452
      f+1     :     0.005304
      f-1     :     0.007384
      f+2     :     0.007485
      f-2     :     0.006347
      f+3     :     0.004619
      f-3     :     0.004649

 13 C s       :     2.778244  s :     2.778244
      pz      :     0.956474  p :     2.945678
      px      :     0.990476
      py      :     0.998728
      dz2     :     0.054722  d :     0.372259
      dxz     :     0.085912
      dyz     :     0.059449
      dx2y2   :     0.084572
      dxy     :     0.087604
      f0      :     0.003916  f :     0.040405
      f+1     :     0.003778
      f-1     :     0.006990
      f+2     :     0.006057
      f-2     :     0.006211
      f+3     :     0.008310
      f-3     :     0.005144

 14 C s       :     2.776829  s :     2.776829
      pz      :     0.963146  p :     2.920403
      px      :     0.999459
      py      :     0.957797
      dz2     :     0.059668  d :     0.379356
      dxz     :     0.088837
      dyz     :     0.074385
      dx2y2   :     0.087851
      dxy     :     0.068615
      f0      :     0.006557  f :     0.040992
      f+1     :     0.005380
      f-1     :     0.004408
      f+2     :     0.005922
      f-2     :     0.006400
      f+3     :     0.007567
      f-3     :     0.004758

 15 H s       :     0.814178  s :     0.814178
      pz      :     0.023950  p :     0.061811
      px      :     0.012691
      py      :     0.025170

 16 H s       :     0.803400  s :     0.803400
      pz      :     0.014161  p :     0.061961
      px      :     0.028719
      py      :     0.019082

 17 H s       :     0.801873  s :     0.801873
      pz      :     0.013074  p :     0.061971
      px      :     0.027482
      py      :     0.021415

 18 H s       :     0.799320  s :     0.799320
      pz      :     0.026943  p :     0.056247
      px      :     0.018130
      py      :     0.011174

 19 H s       :     0.795548  s :     0.795548
      pz      :     0.023890  p :     0.055914
      px      :     0.011852
      py      :     0.020171

 20 H s       :     0.795377  s :     0.795377
      pz      :     0.010300  p :     0.055788
      px      :     0.026007
      py      :     0.019481

 21 H s       :     0.794236  s :     0.794236
      pz      :     0.026620  p :     0.055881
      px      :     0.018461
      py      :     0.010800

 22 H s       :     0.779384  s :     0.779384
      pz      :     0.023655  p :     0.058656
      px      :     0.012271
      py      :     0.022730

 23 H s       :     0.797467  s :     0.797467
      pz      :     0.024265  p :     0.056320
      px      :     0.019466
      py      :     0.012589

 24 H s       :     0.795744  s :     0.795744
      pz      :     0.018513  p :     0.055879
      px      :     0.011563
      py      :     0.025803

 25 H s       :     0.795684  s :     0.795684
      pz      :     0.011402  p :     0.055771
      px      :     0.026799
      py      :     0.017570

 26 H s       :     0.794678  s :     0.794678
      pz      :     0.024683  p :     0.055883
      px      :     0.019111
      py      :     0.012088

 27 H s       :     0.779018  s :     0.779018
      pz      :     0.018173  p :     0.058929
      px      :     0.012527
      py      :     0.028229



                      *****************************
                      * MAYER POPULATION ANALYSIS *
                      *****************************

  NA   - Mulliken gross atomic population
  ZA   - Total nuclear charge
  QA   - Mulliken gross atomic charge
  VA   - Mayer's total valence
  BVA  - Mayer's bonded valence
  FA   - Mayer's free valence

  ATOM       NA         ZA         QA         VA         BVA        FA
  0 C      6.4928     6.0000    -0.4928     3.7796     3.7796     0.0000
  1 P     14.3550    15.0000     0.6450     4.9047     4.9047    -0.0000
  2 O      8.6088     8.0000    -0.6088     1.9703     1.9703     0.0000
  3 C      6.0380     6.0000    -0.0380     3.6962     3.6962    -0.0000
  4 C      6.1853     6.0000    -0.1853     3.9527     3.9527     0.0000
  5 C      6.1661     6.0000    -0.1661     4.0457     4.0457     0.0000
  6 C      6.1364     6.0000    -0.1364     3.9503     3.9503    -0.0000
  7 C      6.1354     6.0000    -0.1354     3.9147     3.9147     0.0000
  8 C      6.1559     6.0000    -0.1559     3.9664     3.9664    -0.0000
  9 C      6.0761     6.0000    -0.0761     3.7316     3.7316    -0.0000
 10 C      6.1573     6.0000    -0.1573     3.9417     3.9417    -0.0000
 11 C      6.1687     6.0000    -0.1687     4.0418     4.0418    -0.0000
 12 C      6.1354     6.0000    -0.1354     3.9415     3.9415     0.0000
 13 C      6.1397     6.0000    -0.1397     3.9141     3.9141    -0.0000
 14 C      6.1450     6.0000    -0.1450     3.9308     3.9308    -0.0000
 15 H      0.8458     1.0000     0.1542     0.9556     0.9556     0.0000
 16 H      0.8203     1.0000     0.1797     0.9578     0.9578    -0.0000
 17 H      0.8218     1.0000     0.1782     0.9632     0.9632     0.0000
 18 H      0.8408     1.0000     0.1592     0.9562     0.9562     0.0000
 19 H      0.8531     1.0000     0.1469     0.9664     0.9664    -0.0000
 20 H      0.8511     1.0000     0.1489     0.9629     0.9629    -0.0000
 21 H      0.8498     1.0000     0.1502     0.9654     0.9654     0.0000
 22 H      0.8064     1.0000     0.1936     0.9731     0.9731     0.0000
 23 H      0.8558     1.0000     0.1442     0.9703     0.9703    -0.0000
 24 H      0.8542     1.0000     0.1458     0.9662     0.9662     0.0000
 25 H      0.8514     1.0000     0.1486     0.9629     0.9629     0.0000
 26 H      0.8500     1.0000     0.1500     0.9654     0.9654    -0.0000
 27 H      0.8037     1.0000     0.1963     0.9721     0.9721    -0.0000

  Mayer bond orders larger than 0.100000
B(  0-C ,  1-P ) :   0.9509 B(  0-C , 15-H ) :   0.9327 B(  0-C , 16-H ) :   0.9433 
B(  0-C , 17-H ) :   0.9431 B(  1-P ,  2-O ) :   1.9258 B(  1-P ,  3-C ) :   0.9029 
B(  1-P ,  9-C ) :   0.9110 B(  3-C ,  4-C ) :   1.3528 B(  3-C ,  8-C ) :   1.4203 
B(  4-C ,  5-C ) :   1.5103 B(  4-C , 18-H ) :   0.9115 B(  5-C ,  6-C ) :   1.4466 
B(  5-C , 19-H ) :   0.9438 B(  6-C ,  7-C ) :   1.4385 B(  6-C , 20-H ) :   0.9453 
B(  7-C ,  8-C ) :   1.4343 B(  7-C , 21-H ) :   0.9475 B(  8-C , 22-H ) :   0.9068 
B(  9-C , 10-C ) :   1.3607 B(  9-C , 14-C ) :   1.4138 B( 10-C , 11-C ) :   1.5159 
B( 10-C , 23-H ) :   0.9093 B( 11-C , 12-C ) :   1.4364 B( 11-C , 24-H ) :   0.9449 
B( 12-C , 13-C ) :   1.4415 B( 12-C , 25-H ) :   0.9456 B( 13-C , 14-C ) :   1.4268 
B( 13-C , 26-H ) :   0.9478 B( 14-C , 27-H ) :   0.9089 

-------
TIMINGS
-------

Total SCF time: 0 days 0 hours 1 min 4 sec 

Total time                  ....      64.125 sec
Sum of individual times     ....      64.151 sec  (100.0%)

SCF preparation             ....       0.201 sec  (  0.3%)
Fock matrix formation       ....      62.066 sec  ( 96.8%)
  Startup                   ....       0.063 sec  (  0.1% of F)
  Split-RI-J                ....       3.989 sec  (  6.4% of F)
  Chain of spheres X        ....      42.414 sec  ( 68.3% of F)
  XC integration            ....      15.399 sec  ( 24.8% of F)
    Basis function eval.    ....       2.132 sec  ( 13.8% of XC)
    Density eval.           ....       6.037 sec  ( 39.2% of XC)
    XC-Functional eval.     ....       0.299 sec  (  1.9% of XC)
    XC-Potential eval.      ....       5.824 sec  ( 37.8% of XC)
Diagonalization             ....       0.000 sec  (  0.0%)
Density matrix formation    ....       0.165 sec  (  0.3%)
Total Energy calculation    ....       0.061 sec  (  0.1%)
Population analysis         ....       0.129 sec  (  0.2%)
Orbital Transformation      ....       0.242 sec  (  0.4%)
Orbital Orthonormalization  ....       0.000 sec  (  0.0%)
DIIS solution               ....       1.010 sec  (  1.6%)
SOSCF solution              ....       0.277 sec  (  0.4%)
Finished LeanSCF after  64.2 sec

Maximum memory used throughout the entire LEANSCF-calculation: 67.6 MB


-------------------------------------------------------------------------------
                          DFT DISPERSION CORRECTION                            
                                                                               
                              DFTD3 V3.1  Rev 1                                
                              USING zero damping                               
-------------------------------------------------------------------------------
The M062X functional is recognized
Active option DFTDOPT                   ...         3   

molecular C6(AA) [au] = 10605.091589 


            DFT-D V3
 parameters
 s6 scaling factor         :     1.0000 
 rs6 scaling factor        :     1.6190 
 s8 scaling factor         :     0.0000 
 rs8 scaling factor        :     1.0000 
 Damping factor alpha6     :    14.0000 
 Damping factor alpha8     :    16.0000 
 ad hoc parameters k1-k3   :    16.0000     1.3333    -4.0000 

 Edisp/kcal,au: -0.899051087400  -0.001432728953 
 E6   /kcal   :  -0.899051087 
 E8   /kcal   :  -0.000000000 
 % E8         :   0.000000000 

-------------------------   ----------------
Dispersion correction           -0.001432729
-------------------------   ----------------


-------------------------   --------------------
FINAL SINGLE POINT ENERGY      -919.788433800563
-------------------------   --------------------



           ************************************************************
           *        Program running with 6 parallel MPI-processes     *
           *              working on a common directory               *
           ************************************************************

------------------------------------------------------------------------------
                              ORCA PROPERTY CALCULATIONS
------------------------------------------------------------------------------

GBWName                                 ... data/single_point_PO_M06-2x/73879/73879.gbw
Number of atoms                         ...     28
Number of basis functions               ...    549
Max core memory                         ...   1024 MB

Electric properties:
Dipole moment                           ... YES
Quadrupole moment                       ...  NO
Static polarizability (Dipole/Dipole)   ...  NO
Static polarizability (Dipole/Quad.)    ...  NO
Static polarizability (Quad./Quad.)     ...  NO
Static polarizability (Velocity)        ...  NO

Atomic electric properties:
Dipole moment                           ...  NO
Quadrupole moment                       ...  NO
Static polarizability                   ...  NO

Choice of electric origin               ... Center of mass
Position of electric origin             ...     0.038607    -0.390590    -0.392233

General magnetic properties:
Magnetizability                         ...  NO

EPR properties:
g-Tensor (aka g-matrix)                 ...  NO
Zero-Field splitting spin-orbit         ...  NO
Zero-field splitting spin-spin          ...  NO
Hyperfine couplings                     ...  NO (   0 nuclei)
Quadrupole couplings                    ...  NO (   0 nuclei)
Contact density                         ...  NO (   0 nuclei)

NMR properties:
Chemical shifts                         ...  NO (   0 nuclei)
Spin-rotation constants                 ...  NO (   0 nuclei)
Spin-spin couplings                     ...  NO (   0 nuclei,    0 pairs)

Choice of magnetic origin               ... GIAO
Position of magnetic origin             ...     0.000000     0.000000     0.000000

Properties with geometric perturbations:
SCF Hessian                             ...  NO
IR spectrum                             ...  NO
VCD spectrum                            ...  NO
X-ray spectroscopy properties:
SCF XES/XAS/RIXS spectra                ...  NO


-------------
DIPOLE MOMENT
-------------

Method             : SCF
Type of density    : Electron Density
Multiplicity       :   1
Irrep              :   0
Energy             :  -919.7870010716105753 Eh
Relativity type    : 
Basis              : AO
                                X                 Y                 Z
Electronic contribution:      0.429040947      -2.903359641      -3.335955233
Nuclear contribution   :     -0.521090750       4.210001448       4.337242467
                        -----------------------------------------
Total Dipole Moment    :     -0.092049803       1.306641807       1.001287234
                        -----------------------------------------
Magnitude (a.u.)       :      1.648745615
Magnitude (Debye)      :      4.190778305



--------------------
Rotational spectrum 
--------------------
 
Rotational constants in cm-1:             0.029992             0.012064             0.010846 
Rotational constants in MHz :           899.138128           361.655480           325.155791 

Dipole components along the rotational axes: 
x,y,z [a.u.] :    -0.055229    -1.406769    -0.858087 
x,y,z [Debye]:    -0.140382    -3.575723    -2.181083 

 

Dipole moment calculation done in   0.0 sec 

Maximum memory used throughout the entire PROP-calculation: 35.4 MB

--------------------------------
SUGGESTED CITATIONS FOR THIS RUN
--------------------------------

Below you find a list of papers that are relevant to this ORCA run
We neither can nor want to force you to cite these papers, but we appreciate if you do
You receive ORCA, which is the product of decades of hard work by many enthusiastic individuals, for free
The only thing we kindly ask in return is that you cite our papers,
We deeply appreciate it, if you show your appreciation for ORCA by not just citing the generic ORCA reference.

Please note that relegating all ORCA citations to the supporting information does *not* help us.
SI sections are not indexed - citations you put there will not count into any citation statistics
But we need these citations in order to attract the funding resources that allow us to do what we are doing

Therefore, if you are a happy ORCA user, please consider citing a few of the papers listed below in the main body of your paper

In addition to the list printed below, the program has created the file data/single_point_PO_M06-2x/73879/73879.bibtex that contains the list in bibtex format
You can import this file easily into all common literature databanks and citation aid programs


List of essential papers. We consider these as the minimum necessary citations

  1. Neese,F.
     Software update: the ORCA program system, version 5.0
     WIRES Comput. Molec. Sci., 2022 12(1)e1606
     doi.org/10.1002/wcms.1606

List of papers to cite with high priority. The work reported in these papers was absolutely
necessary for this run to complete.
Our perspective: the developers of density functionals and basis sets usually get cited in chemistry papers
Good! But without the algorithms to do something with them, the functionals or basis sets would not do anything.
Hence, in our opinion, the algorithm design and method developments papers are equally worthy of getting cited

  1. Neese,F.
     An improvement of the resolution of the identity approximation for the formation of the Coulomb matrix
     J. Comp. Chem., 2003 24(14)1740-1747
     doi.org/10.1002/jcc.10318
  2. Neese,F.; Wennmohs,F.; Hansen,A.; Becker,U.
     Efficient, approximate and parallel Hartree-Fock and hybrid DFT calculations. A 'chain-of-spheres' algorithm for the Hartree-Fock exchange
     Chem. Phys., 2009 356(1-3)98-109
     doi.org/10.1016/j.chemphys.2008.10.036
  3. Helmich-Paris,B.; de Souza,B.; Neese,F.; Izsák,R.
     An improved chain of spheres for exchange algorithm
     J. Chem. Phys., 2021 155 104109
     doi.org/doi: 10.1063/5.0058766.
  4. Neese,F.
     The SHARK Integral Generation and Digestion System
     J. Comp. Chem., 2022  1-16
     doi.org/10.1002/jcc.26942
  5. Grimme,S.; Antony,J.; Ehrlich,S.; Krieg,H.
     A consistent and accurate ab initio parametrization of density functional dispersion correction (DFT-D) for the 94 elements H-Pu
     J. Chem. Phys., 2010 132 154104-XXXX
     doi.org/10.1063/1.3382344

List of suggested additional citations. These are papers that are important in the 'surrounding' of 
of this run, or papers that preceded the highly important papers. If you like your results we are grateful for a citation.

  1. Izsak,R.; Neese,F.
     An overlap fitted chain of spheres exchange method
     J. Chem. Phys., 2011 135 144105
     doi.org/10.1063/1.3646921
  2. Izsak,R.; Hansen,A.; Neese,F.
     The resolution of identity and chain of spheres approximations for the LPNO-CCSD singles Fock term
     Molec. Phys., 2012 110 2413-2417
     doi.org/10.1080/00268976.2012.687466
  3. Neese,F.
     The ORCA program system
     WIRES Comput. Molec. Sci., 2012 2(1)73-78
     doi.org/10.1002/wcms.81
  4. Izsak,R.; Neese,F.; Klopper,W.
     Robust fitting techniques in the chain of spheres approximation to the Fock exchange: The role of the complementary space
     J. Chem. Phys., 2013 139 
     doi.org/10.1063/1.4819264
  5. Neese,F.
     Software update: the ORCA program system, version 4.0
     WIRES Comput. Molec. Sci., 2018 8(1)1-6
     doi.org/10.1002/wcms.1327
  6. Neese,F.; Wennmohs,F.; Becker,U.; Riplinger,C.
     The ORCA quantum chemistry program package
     J. Chem. Phys., 2020 152 Art. No. L224108
     doi.org/10.1063/5.0004608

List of optional additional citations

  1. Neese,F.
     Approximate second-order SCF convergence for spin unrestricted wavefunctions
     Chem. Phys. Lett., 2000 325(1-3)93-98
     doi.org/10.1016/s0009-2614(00)00662-x

Timings for individual modules:

Sum of individual times          ...       68.332 sec (=   1.139 min)
Startup calculation              ...        2.659 sec (=   0.044 min)   3.9 %
SCF iterations                   ...       65.445 sec (=   1.091 min)  95.8 %
Property calculations            ...        0.228 sec (=   0.004 min)   0.3 %
                             ****ORCA TERMINATED NORMALLY****
TOTAL RUN TIME: 0 days 0 hours 1 minutes 8 seconds 563 msec
