
                                 *****************
                                 * O   R   C   A *
                                 *****************

                                            #,                                       
                                            ###                                      
                                            ####                                     
                                            #####                                    
                                            ######                                   
                                           ########,                                 
                                     ,,################,,,,,                         
                               ,,#################################,,                 
                          ,,##########################################,,             
                       ,#########################################, ''#####,          
                    ,#############################################,,   '####,        
                  ,##################################################,,,,####,       
                ,###########''''           ''''###############################       
              ,#####''   ,,,,##########,,,,          '''####'''          '####       
            ,##' ,,,,###########################,,,                        '##       
           ' ,,###''''                  '''############,,,                           
         ,,##''                                '''############,,,,        ,,,,,,###''
      ,#''                                            '''#######################'''  
     '                                                          ''''####''''         
             ,#######,   #######,   ,#######,      ##                                
            ,#'     '#,  ##    ##  ,#'     '#,    #''#        ,####,   ,####,        
            ##       ##  ##   ,#'  ##            #'  '#       #'       #'  '#        
            ##       ##  #######   ##           ,######,      #####,   #    #        
            '#,     ,#'  ##    ##  '#,     ,#' ,#      #,     #,   #   #,  ,#        
             '#######'   ##     ##  '#######'  #'      '#     '####' # '####'        



                #########################################################
                #                        -***-                          #
                #          Department of theory and spectroscopy        #
                #                                                       #
                #                      Frank Neese                      #
                #                                                       #
                #     Directorship, Architecture, Infrastructure        #
                #                    SHARK, DRIVERS                     #
                #        Core code/Algorithms in most modules           #
                #                                                       #
                #        Max Planck Institute fuer Kohlenforschung      #
                #                Kaiser Wilhelm Platz 1                 #
                #                 D-45470 Muelheim/Ruhr                 #
                #                      Germany                          #
                #                                                       #
                #                  All rights reserved                  #
                #                        -***-                          #
                #########################################################


                         Program Version 6.0.0  -   RELEASE   -


 With contributions from (in alphabetic order):
   Daniel Aravena         : Magnetic Suceptibility
   Michael Atanasov       : Ab Initio Ligand Field Theory (pilot matlab implementation)
   Alexander A. Auer      : GIAO ZORA, VPT2 properties, NMR spectrum
   Ute Becker             : All parallelization in ORCA, NUMFREQ, NUMCALC
   Giovanni Bistoni       : ED, misc. LED, open-shell LED, HFLD
   Martin Brehm           : Molecular dynamics
   Dmytro Bykov           : pre 5.0 version of the SCF Hessian
   Marcos Casanova-Páez   : Triplet and SCS-CIS(D). UHF-(DLPNO)-IP/EA/STEOM-CCSD. UHF-CVS-IP/STEOM-CCSD
   Vijay G. Chilkuri      : MRCI spin determinant printing, contributions to CSF-ICE
   Pauline Colinet        : FMM embedding
   Dipayan Datta          : RHF DLPNO-CCSD density
   Achintya Kumar Dutta   : EOM-CC, STEOM-CC
   Nicolas Foglia         : Exact transition moments, OPA infrastructure, MCD improvements
   Dmitry Ganyushin       : Spin-Orbit,Spin-Spin,Magnetic field MRCI
   Miquel Garcia          : C-PCM and meta-GGA Hessian, CCSD/C-PCM, Gaussian charge scheme
   Tiago L. C. Gouveia    : GS-ROHF, GS-ROCIS
   Yang Guo               : DLPNO-NEVPT2, F12-NEVPT2, CIM, IAO-localization
   Andreas Hansen         : Spin unrestricted coupled pair/coupled cluster methods
   Ingolf Harden          : AUTO-CI MPn and infrastructure 
   Benjamin Helmich-Paris : MC-RPA, TRAH-(SCF,CASSCF), AVAS, COSX integrals, SCF dyn. polar.
   Lee Huntington         : MR-EOM, pCC
   Robert Izsak           : Overlap fitted RIJCOSX, COSX-SCS-MP3, EOM
   Riya Kayal             : Wick's Theorem for AUTO-CI, AUTO-CI UHF-CCSDT
   Emily Kempfer          : AUTO-CI, RHF CISDT and CCSDT
   Christian Kollmar      : KDIIS, OOCD, Brueckner-CCSD(T), CCSD density, CASPT2, CASPT2-K, improved NEVPT2
   Axel Koslowski         : Symmetry handling
   Simone Kossmann        : Meta GGA functionals, TD-DFT gradient, OOMP2, (MP2 Hessian; deprecated post 5.0)
   Lucas Lang             : DCDCAS
   Marvin Lechner         : AUTO-CI (C++ implementation), FIC-MRCC
   Spencer Leger          : CASSCF response
   Dagmar Lenk            : GEPOL surface, SMD, ORCA-2-JSON
   Dimitrios Liakos       : Extrapolation schemes; Compound Job, initial MDCI parallelization
   Dimitrios Manganas     : Further ROCIS development; embedding schemes. LFT, Crystal Embedding
   Dimitrios Pantazis     : SARC Basis sets
   Anastasios Papadopoulos: AUTO-CI, single reference methods and gradients
   Taras Petrenko         : pre 6.0 DFT Hessian and TD-DFT gradient, (ASA, deprecated), ECA, 1-Electron XAS/XES, NRVS
   Peter Pinski           : DLPNO-MP2, DLPNO-MP2 Gradient
   Christoph Reimann      : Effective Core Potentials
   Marius Retegan         : Local ZFS, SOC
   Christoph Riplinger    : Optimizer, TS searches, QM/MM, DLPNO-CCSD(T), (RO)-DLPNO pert. Triples
   Michael Roemelt        : Original ROCIS implementation
   Masaaki Saitow         : Open-shell DLPNO-CCSD energy and density
   Barbara Sandhoefer     : DKH picture change effects
   Kantharuban Sivalingam : CASSCF convergence/infrastructure, NEVPT2 and variants, FIC-MRCI
   Bernardo de Souza      : ESD, SOC TD-DFT
   Georgi Stoychev        : AutoAux, RI-MP2 NMR, DLPNO-MP2 response, X2C
   Van Anh Tran           : RI-MP2 g-tensors
   Willem Van den Heuvel  : Paramagnetic NMR
   Zikuan Wang            : NOTCH, Electric field optimization 
   Frank Wennmohs         : Technical directorship and infrastructure
   Hang Xu                : AUTO-CI-Response properties 


 We gratefully acknowledge several colleagues who have allowed us to
 interface, adapt or use parts of their codes:
   Stefan Grimme, W. Hujo, H. Kruse, P. Pracht,  : VdW corrections, initial TS optimization,
                  C. Bannwarth, S. Ehlert,         DFT functionals, gCP, sTDA/sTD-DF
                  L. Wittmann, M. Mueller
   Ed Valeev, F. Pavosevic, A. Kumar             : LibInt (2-el integral package), F12 methods
   Garnet Chan, S. Sharma, J. Yang, R. Olivares  : DMRG
   Ulf Ekstrom                                   : XCFun DFT Library
   Mihaly Kallay                                 : mrcc  (arbitrary order and MRCC methods)
   Frank Weinhold                                : gennbo (NPA and NBO analysis)
   Simon Mueller                                 : openCOSMO-RS
   Christopher J. Cramer and Donald G. Truhlar   : smd solvation model
   Lars Goerigk                                  : TD-DFT with DH, B97 family of functionals
   V. Asgeirsson, H. Jonsson                     : NEB implementation
   FAccTs GmbH                                   : IRC, NEB, NEB-TS, DLPNO-Multilevel, CI-OPT
                                                   MM, QMMM, 2- and 3-layer-ONIOM, Crystal-QMMM,
                                                   LR-CPCM, SF, NACMEs, symmetry and pop. for TD-DFT,
                                                   nearIR, NL-DFT gradient (VV10), updates on ESD,
                                                   ML-optimized integration grids, MBIS, APM,
                                                   GOAT, DOCKER, SOLVATOR, interface openCOSMO-RS
   S Lehtola, MJT Oliveira, MAL Marques          : LibXC Library
   Liviu Ungur et al                             : ANISO software


 Your calculation uses the libint2 library for the computation of 2-el integrals
 For citations please refer to: http://libint.valeyev.net

 Your ORCA version has been built with support for libXC version: 6.2.2
 For citations please refer to: https://libxc.gitlab.io

 This ORCA versions uses:
   CBLAS   interface :  Fast vector & matrix operations
   LAPACKE interface :  Fast linear algebra routines
   Shared memory     :  Shared parallel matrices


Your calculation utilizes the atom-pairwise dispersion correction
with the Becke-Johnson damping scheme (D3BJ)


Warning: RI is on but no J-basis has been assigned. Assigning Def2/J (nothing to worry about!)
================================================================================

----- Orbital basis set information -----
Your calculation utilizes the basis: def2-SVP
   F. Weigend and R. Ahlrichs, Phys. Chem. Chem. Phys. 7, 3297 (2005).

----- AuxJ basis set information -----
Your calculation utilizes the auxiliary basis: def2/J
   F. Weigend, Phys. Chem. Chem. Phys. 8, 1057 (2006).

================================================================================
                                        WARNINGS
                       Please study these warnings very carefully!
================================================================================


WARNING: Geometry Optimization
  ===> : Switching off AutoStart
         For restart on a previous wavefunction, please use MOREAD

================================================================================
                                       INPUT FILE
================================================================================
NAME = data/geom_opt_PO_BP86/76001/76001.inp
|  1> ! RI BP86 def2-SVP D3BJ TIGHTSCF Opt
|  2> %pal
|  3> nprocs 6
|  4> end
|  5> 
|  6> * xyz 0 1
|  7> C     -0.261731    1.445794    0.952921
|  8> O     -1.299401    2.238749    0.377769
|  9> P      0.042927    0.084323   -0.157142
| 10> O      0.270160    0.530731   -1.582010
| 11> C     -1.357085   -1.006891    0.009820
| 12> O     -1.198786   -2.050834   -0.950108
| 13> C      1.435863   -0.798343    0.520567
| 14> O      2.595448    0.003138    0.298464
| 15> H     -0.588507    1.102277    1.937658
| 16> H      0.625567    2.073062    1.073491
| 17> H     -1.011415    2.451725   -0.533600
| 18> H     -2.297791   -0.488932   -0.195346
| 19> H     -1.408750   -1.452496    1.006438
| 20> H     -1.065499   -1.612488   -1.815544
| 21> H      1.581831   -1.761686    0.024628
| 22> H      1.326996   -0.966550    1.594971
| 23> H      2.610170    0.208422   -0.658897
| 24> **                         ****END OF INPUT****
================================================================================

                       *****************************
                       * Geometry Optimization Run *
                       *****************************

Geometry optimization settings:
Update method            Update   .... BFGS
Choice of coordinates    CoordSys .... (2022) Redundant Internals
Initial Hessian          InHess   .... Almloef's Model
Max. no of cycles        MaxIter  .... 51

Convergence Tolerances:
Energy Change            TolE     ....  5.0000e-06 Eh
Max. Gradient            TolMAXG  ....  3.0000e-04 Eh/bohr
RMS Gradient             TolRMSG  ....  1.0000e-04 Eh/bohr
Max. Displacement        TolMAXD  ....  4.0000e-03 bohr
RMS Displacement         TolRMSD  ....  2.0000e-03 bohr
Strict Convergence                .... False

------------------------------------------------------------------------------
                        ORCA OPTIMIZATION COORDINATE SETUP
------------------------------------------------------------------------------

The optimization will be done in redundant internal coordinates (2022)
Making redundant internal coordinates   ...  (2022 redundants) done
Evaluating the initial hessian          ...  (Almloef) done
Evaluating the coordinates              ...  done
Calculating the B-matrix                .... done
Calculating the G-matrix                .... done
Diagonalizing the G-matrix              .... done
The first mode is                       ....   25
The number of degrees of freedom        ....   45

    -----------------------------------------------------------------
                    Redundant Internal Coordinates


    -----------------------------------------------------------------
         Definition                    Initial Value    Approx d2E/dq
    -----------------------------------------------------------------
      1. B(O   1,C   0)                  1.4270         0.488473   
      2. B(P   2,C   0)                  1.7829         0.495927   
      3. B(O   3,P   2)                  1.5104         1.208802   
      4. B(C   4,P   2)                  1.7829         0.495928   
      5. B(O   5,C   4)                  1.4270         0.488472   
      6. B(C   6,P   2)                  1.7829         0.495928   
      7. B(O   7,C   6)                  1.4270         0.488471   
      8. B(H   8,C   0)                  1.0929         0.356246   
      9. B(H   9,C   0)                  1.0933         0.355764   
     10. B(H  10,O   1)                  0.9792         0.484495   
     11. B(H  11,C   4)                  1.0933         0.355762   
     12. B(H  12,C   4)                  1.0929         0.356254   
     13. B(H  13,O   5)                  0.9792         0.484491   
     14. B(H  14,C   6)                  1.0933         0.355769   
     15. B(H  15,C   6)                  1.0929         0.356249   
     16. B(H  16,O   7)                  0.9792         0.484486   
     17. A(O   1,C   0,H   9)          108.4084         0.336307   
     18. A(H   8,C   0,H   9)          108.8821         0.289797   
     19. A(O   1,C   0,P   2)          107.3163         0.423459   
     20. A(P   2,C   0,H   9)          111.5990         0.360475   
     21. A(P   2,C   0,H   8)          111.8429         0.360558   
     22. A(O   1,C   0,H   8)          108.6864         0.336383   
     23. A(C   0,O   1,H  10)          106.3867         0.351123   
     24. A(O   3,P   2,C   6)          112.7922         0.535131   
     25. A(C   0,P   2,C   4)          105.9557         0.456142   
     26. A(C   0,P   2,C   6)          105.9557         0.456142   
     27. A(O   3,P   2,C   4)          112.7922         0.535131   
     28. A(C   0,P   2,O   3)          112.7921         0.535131   
     29. A(C   4,P   2,C   6)          105.9558         0.456142   
     30. A(P   2,C   4,O   5)          107.3165         0.423459   
     31. A(H  11,C   4,H  12)          108.8812         0.289798   
     32. A(O   5,C   4,H  12)          108.6862         0.336385   
     33. A(P   2,C   4,H  12)          111.8428         0.360559   
     34. A(O   5,C   4,H  11)          108.4089         0.336307   
     35. A(P   2,C   4,H  11)          111.5995         0.360475   
     36. A(C   4,O   5,H  13)          106.3877         0.351122   
     37. A(H  14,C   6,H  15)          108.8819         0.289798   
     38. A(O   7,C   6,H  15)          108.6865         0.336384   
     39. A(P   2,C   6,H  15)          111.8420         0.360558   
     40. A(O   7,C   6,H  14)          108.4091         0.336308   
     41. A(P   2,C   6,H  14)          111.5993         0.360475   
     42. A(P   2,C   6,O   7)          107.3163         0.423458   
     43. A(C   6,O   7,H  16)          106.3872         0.351121   
     44. D(H  10,O   1,C   0,H   8)   -174.4022         0.018838   
     45. D(H  10,O   1,C   0,H   9)     67.3933         0.018838   
     46. D(H  10,O   1,C   0,P   2)    -53.2802         0.018838   
     47. D(O   3,P   2,C   0,H   9)    -67.3398         0.005144   
     48. D(O   3,P   2,C   0,H   8)    170.4058         0.005144   
     49. D(C   4,P   2,C   0,H   8)     46.5450         0.005144   
     50. D(O   3,P   2,C   0,O   1)     51.2931         0.005144   
     51. D(C   4,P   2,C   0,H   9)    168.7994         0.005144   
     52. D(C   4,P   2,C   0,O   1)    -72.5676         0.005144   
     53. D(H  11,C   4,P   2,O   3)    -67.3416         0.005144   
     54. D(H  11,C   4,P   2,C   0)     56.5191         0.005144   
     55. D(O   5,C   4,P   2,C   6)    -72.5685         0.005144   
     56. D(O   5,C   4,P   2,O   3)     51.2924         0.005144   
     57. D(H  11,C   4,P   2,C   6)    168.7975         0.005144   
     58. D(O   5,C   4,P   2,C   0)    175.1531         0.005144   
     59. D(H  13,O   5,C   4,H  12)   -174.4025         0.018838   
     60. D(H  13,O   5,C   4,H  11)     67.3939         0.018838   
     61. D(H  13,O   5,C   4,P   2)    -53.2806         0.018838   
     62. D(H  14,C   6,P   2,C   4)     56.5181         0.005144   
     63. D(H  14,C   6,P   2,O   3)    -67.3427         0.005144   
     64. D(H  14,C   6,P   2,C   0)    168.7966         0.005144   
     65. D(O   7,C   6,P   2,C   4)    175.1521         0.005144   
     66. D(O   7,C   6,P   2,O   3)     51.2912         0.005144   
     67. D(O   7,C   6,P   2,C   0)    -72.5694         0.005144   
     68. D(H  16,O   7,C   6,H  15)   -174.3989         0.018838   
     69. D(H  16,O   7,C   6,H  14)     67.3964         0.018838   
     70. D(H  16,O   7,C   6,P   2)    -53.2779         0.018838   
    -----------------------------------------------------------------

Number of atoms                         .... 17
Number of degrees of freedom            .... 70


         *************************************************************
         *                GEOMETRY OPTIMIZATION CYCLE   1            *
         *************************************************************
---------------------------------
CARTESIAN COORDINATES (ANGSTROEM)
---------------------------------
  C     -0.261731    1.445794    0.952921
  O     -1.299401    2.238749    0.377769
  P      0.042927    0.084323   -0.157142
  O      0.270160    0.530731   -1.582010
  C     -1.357085   -1.006891    0.009820
  O     -1.198786   -2.050834   -0.950108
  C      1.435863   -0.798343    0.520567
  O      2.595448    0.003138    0.298464
  H     -0.588507    1.102277    1.937658
  H      0.625567    2.073062    1.073491
  H     -1.011415    2.451725   -0.533600
  H     -2.297791   -0.488932   -0.195346
  H     -1.408750   -1.452496    1.006438
  H     -1.065499   -1.612488   -1.815544
  H      1.581831   -1.761686    0.024628
  H      1.326996   -0.966550    1.594971
  H      2.610170    0.208422   -0.658897

----------------------------
CARTESIAN COORDINATES (A.U.)
----------------------------
  NO LB      ZA    FRAG     MASS         X           Y           Z
   0 C     6.0000    0    12.011   -0.494600    2.732155    1.800760
   1 O     8.0000    0    15.999   -2.455512    4.230622    0.713880
   2 P    15.0000    0    30.974    0.081120    0.159347   -0.296955
   3 O     8.0000    0    15.999    0.510528    1.002936   -2.989566
   4 C     6.0000    0    12.011   -2.564519   -1.902748    0.018557
   5 O     8.0000    0    15.999   -2.265377   -3.875515   -1.795444
   6 C     6.0000    0    12.011    2.713388   -1.508650    0.983729
   7 O     8.0000    0    15.999    4.904686    0.005930    0.564015
   8 H     1.0000    0     1.008   -1.112117    2.083002    3.661643
   9 H     1.0000    0     1.008    1.182150    3.917519    2.028604
  10 H     1.0000    0     1.008   -1.911297    4.633089   -1.008358
  11 H     1.0000    0     1.008   -4.342196   -0.923948   -0.369150
  12 H     1.0000    0     1.008   -2.662152   -2.744820    1.901892
  13 H     1.0000    0     1.008   -2.013501   -3.047161   -3.430881
  14 H     1.0000    0     1.008    2.989227   -3.329104    0.046540
  15 H     1.0000    0     1.008    2.507659   -1.826515    3.014058
  16 H     1.0000    0     1.008    4.932506    0.393861   -1.245135

--------------------------------
INTERNAL COORDINATES (ANGSTROEM)
--------------------------------
 C      0   0   0     0.000000000000     0.00000000     0.00000000
 O      1   0   0     1.427002622292     0.00000000     0.00000000
 P      1   2   0     1.782879593459   107.31630837     0.00000000
 O      3   1   2     1.510352196071   112.79209124    51.29310563
 C      3   1   2     1.782879105095   105.95567479   287.43237243
 O      5   3   1     1.427002917248   107.31650936   175.15305180
 C      3   1   2     1.782879540612   105.95568111   175.15382454
 O      7   3   1     1.427003471683   107.31633866   287.43056683
 H      1   2   3     1.092928836949   108.68640099   238.87799728
 H      1   2   3     1.093297768007   108.40839852   120.67350792
 H      2   1   3     0.979228352803   106.38669037   306.71983132
 H      5   3   1     1.093298857437   111.59952657    56.51905741
 H      5   3   1     1.092922927829   111.84278430   294.26556315
 H      6   5   3     0.979230366247   106.38774442   306.71936712
 H      7   3   1     1.093294052117   111.59934316   168.79662591
 H      7   3   1     1.092927066988   111.84204952    46.54290933
 H      8   7   3     0.979233548374   106.38717782   306.72214427

---------------------------
INTERNAL COORDINATES (A.U.)
---------------------------
 C      0   0   0     0.000000000000     0.00000000     0.00000000
 O      1   0   0     2.696644148520     0.00000000     0.00000000
 P      1   2   0     3.369154161395   107.31630837     0.00000000
 O      3   1   2     2.854152016341   112.79209124    51.29310563
 C      3   1   2     3.369153238520   105.95567479   287.43237243
 O      5   3   1     2.696644705905   107.31650936   175.15305180
 C      3   1   2     3.369154061528   105.95568111   175.15382454
 O      7   3   1     2.696645753635   107.31633866   287.43056683
 H      1   2   3     2.065336185698   108.68640099   238.87799728
 H      1   2   3     2.066033364360   108.40839852   120.67350792
 H      2   1   3     1.850473409368   106.38669037   306.71983132
 H      5   3   1     2.066035423085   111.59952657    56.51905741
 H      5   3   1     2.065325019080   111.84278430   294.26556315
 H      6   5   3     1.850477214227   106.38774442   306.71936712
 H      7   3   1     2.066026342346   111.59934316   168.79662591
 H      7   3   1     2.065332840956   111.84204952    46.54290933
 H      8   7   3     1.850483227575   106.38717782   306.72214427

---------------------
BASIS SET INFORMATION
---------------------
There are 4 groups of distinct atoms

 Group   1 Type C   : 7s4p1d contracted to 3s2p1d pattern {511/31/1}
 Group   2 Type O   : 7s4p1d contracted to 3s2p1d pattern {511/31/1}
 Group   3 Type P   : 10s7p1d contracted to 4s3p1d pattern {5311/511/1}
 Group   4 Type H   : 4s1p contracted to 2s1p pattern {31/1}

Atom   0C    basis set group =>   1
Atom   1O    basis set group =>   2
Atom   2P    basis set group =>   3
Atom   3O    basis set group =>   2
Atom   4C    basis set group =>   1
Atom   5O    basis set group =>   2
Atom   6C    basis set group =>   1
Atom   7O    basis set group =>   2
Atom   8H    basis set group =>   4
Atom   9H    basis set group =>   4
Atom  10H    basis set group =>   4
Atom  11H    basis set group =>   4
Atom  12H    basis set group =>   4
Atom  13H    basis set group =>   4
Atom  14H    basis set group =>   4
Atom  15H    basis set group =>   4
Atom  16H    basis set group =>   4
---------------------------------
AUXILIARY/J BASIS SET INFORMATION
---------------------------------
There are 4 groups of distinct atoms

 Group   1 Type C   : 12s5p4d2f1g contracted to 6s4p3d1f1g pattern {711111/2111/211/2/1}
 Group   2 Type O   : 12s5p4d2f1g contracted to 6s4p3d1f1g pattern {711111/2111/211/2/1}
 Group   3 Type P   : 14s5p5d2f1g contracted to 8s4p3d1f1g pattern {71111111/2111/311/2/1}
 Group   4 Type H   : 5s2p1d contracted to 3s1p1d pattern {311/2/1}

Atom   0C    basis set group =>   1
Atom   1O    basis set group =>   2
Atom   2P    basis set group =>   3
Atom   3O    basis set group =>   2
Atom   4C    basis set group =>   1
Atom   5O    basis set group =>   2
Atom   6C    basis set group =>   1
Atom   7O    basis set group =>   2
Atom   8H    basis set group =>   4
Atom   9H    basis set group =>   4
Atom  10H    basis set group =>   4
Atom  11H    basis set group =>   4
Atom  12H    basis set group =>   4
Atom  13H    basis set group =>   4
Atom  14H    basis set group =>   4
Atom  15H    basis set group =>   4
Atom  16H    basis set group =>   4


           ************************************************************
           *        Program running with 6 parallel MPI-processes     *
           *              working on a common directory               *
           ************************************************************
------------------------------------------------------------------------------
                             ORCA STARTUP CALCULATIONS
                           -- RI-GTO INTEGRALS CHOSEN --
------------------------------------------------------------------------------
------------------------------------------------------------------------------
                   ___                                                        
                  /   \      - P O W E R E D   B Y -                         
                 /     \                                                     
                 |  |  |   _    _      __       _____    __    __             
                 |  |  |  | |  | |    /  \     |  _  \  |  |  /  |          
                  \  \/   | |  | |   /    \    | | | |  |  | /  /          
                 / \  \   | |__| |  /  /\  \   | |_| |  |  |/  /          
                |  |  |   |  __  | /  /__\  \  |    /   |      \           
                |  |  |   | |  | | |   __   |  |    \   |  |\   \          
                \     /   | |  | | |  |  |  |  | |\  \  |  | \   \       
                 \___/    |_|  |_| |__|  |__|  |_| \__\ |__|  \__/        
                                                                              
                      - O R C A' S   B I G   F R I E N D -                    
                                      &                                       
                       - I N T E G R A L  F E E D E R -                       
                                                                              
 v1 FN, 2020, v2 2021, v3 2022-2024                                           
------------------------------------------------------------------------------


----------------------
SHARK INTEGRAL PACKAGE
----------------------

Number of atoms                             ...     17
Number of basis functions                   ...    161
Number of shells                            ...     77
Maximum angular momentum                    ...      2
Integral batch strategy                     ... SHARK/LIBINT Hybrid
RI-J (if used) integral strategy            ... SPLIT-RIJ (Revised 2003 algorithm where possible)
Printlevel                                  ...      1
Contraction scheme used                     ... SEGMENTED contraction
Prescreening option                         ... SCHWARTZ
   Thresh                                   ... 2.500e-11
   Tcut                                     ... 2.500e-12
   Tpresel                                  ... 2.500e-12 
Coulomb Range Separation                    ... NOT USED
Exchange Range Separation                   ... NOT USED
Multipole approximations                    ... NOT USED
Finite Nucleus Model                        ... NOT USED
CABS basis                                  ... NOT available
Auxiliary Coulomb fitting basis             ... AVAILABLE
   # of basis functions in Aux-J            ...    493
   # of shells in Aux-J                     ...    167
   Maximum angular momentum in Aux-J        ...      4
Auxiliary J/K fitting basis                 ... NOT available
Auxiliary Correlation fitting basis         ... NOT available
Auxiliary 'external' fitting basis          ... NOT available

Checking pre-screening integrals            ... done (  0.0 sec) Dimension = 77
Check shell pair data                       ... done (  0.0 sec)
Shell pair information
Shell pair cut-off parameter TPreSel        ...   2.5e-12
Total number of shell pairs                 ...      3003
Shell pairs after pre-screening             ...      2820
Total number of primitive shell pairs       ...     11019
Primitive shell pairs kept                  ...      7518
          la=0 lb=0:    894 shell pairs
          la=1 lb=0:   1055 shell pairs
          la=1 lb=1:    331 shell pairs
          la=2 lb=0:    317 shell pairs
          la=2 lb=1:    190 shell pairs
          la=2 lb=2:     33 shell pairs

Calculating one electron integrals          ... done (  0.0 sec)
Calculating RI/J V-Matrix + Cholesky decomp.... done (  0.0 sec)
Calculating Nuclear repulsion               ... done (  0.0 sec) ENN=    525.558762256712 Eh

Diagonalization of the overlap matrix:
Smallest eigenvalue                        ... 2.265e-03
Time for diagonalization                   ...    0.004 sec
Threshold for overlap eigenvalues          ... 1.000e-07
Number of eigenvalues below threshold      ... 0
Time for construction of square roots      ...    0.002 sec
Total time needed                          ...    0.006 sec

-------------------
DFT GRID GENERATION
-------------------

General Integration Accuracy     IntAcc      ... 4.388
Radial Grid Type                 RadialGrid  ... OptM3 with GC (2021)
Angular Grid (max. ang.)         AngularGrid ... 4 (Lebedev-302)
Angular grid pruning method      GridPruning ... 4 (adaptive)
Weight generation scheme         WeightScheme... mBecke (2022)
Basis function cutoff            BFCut       ... 1.0000e-11
Integration weight cutoff        WCut        ... 1.0000e-14
Partially contracted basis set               ... off
Rotationally invariant grid construction     ... off
Angular grids for H and He will be reduced by one unit

Total number of grid points                  ...    78583
Total number of batches                      ...     1236
Average number of points per batch           ...       63
Average number of grid points per atom       ...     4623
Initializing property integral containers    ... done (  0.0 sec)

SHARK setup successfully completed in   0.5 seconds

Maximum memory used throughout the entire STARTUP-calculation: 21.4 MB


           ************************************************************
           *        Program running with 6 parallel MPI-processes     *
           *              working on a common directory               *
           ************************************************************
-------------------------------------------------------------------------------
                                 ORCA GUESS
                   Start orbitals & Density for SCF / CASSCF
-------------------------------------------------------------------------------

------------
SCF SETTINGS
------------
Hamiltonian:
 Density Functional     Method          .... DFT(GTOs)
 Exchange Functional    Exchange        .... B88
   X-Alpha parameter    XAlpha          ....  0.666667
   Becke's b parameter  XBeta           ....  0.004200
 Correlation Functional Correlation     .... P86
 LDA part of GGA corr.  LDAOpt          .... PW91-LDA
 Gradients option       PostSCFGGA      .... off
   NL short-range parameter             ....  4.400000
 RI-approximation to the Coulomb term is turned on
   Number of AuxJ basis functions       .... 493


General Settings:
 Integral files         IntName         .... data/geom_opt_PO_BP86/76001/76001
 Hartree-Fock type      HFTyp           .... RHF
 Total Charge           Charge          ....    0
 Multiplicity           Mult            ....    1
 Number of Electrons    NEL             ....   74
 Basis Dimension        Dim             ....  161
 Nuclear Repulsion      ENuc            ....    525.5587622567 Eh

Convergence Acceleration:
 AO-DIIS                CNVDIIS         .... on
   Start iteration      DIISMaxIt       ....    12
   Startup error        DIISStart       ....  0.200000
   # of expansion vecs  DIISMaxEq       ....     5
   Bias factor          DIISBfac        ....   1.050
   Max. coefficient     DIISMaxC        ....  10.000
 MO-DIIS                CNVKDIIS        .... off
 Trust-Rad. Augm. Hess. CNVTRAH         .... auto
   Auto Start mean grad. ratio tolernc. ....  1.125000
   Auto Start start iteration           ....    50
   Auto Start num. interpolation iter.  ....    10
   Max. Number of Micro iterations      ....    24
   Max. Number of Macro iterations      .... Maxiter - #DIIS iter
   Number of Davidson start vectors     ....     2
   Converg. threshold    (grad. norm)   ....   1.000e-05
   Grad. Scal. Fac. for Micro threshold ....   0.100
   Minimum threshold for Micro iter.    ....   1.000e-02
   NR start threshold (gradient norm)   ....   1.000e-04
   Initial trust radius                 ....   0.400
   Minimum AH scaling param. (alpha)    ....   1.000
   Maximum AH scaling param. (alpha)    .... 1000.000
   Quad. conv. algorithm                .... NR
   White noise on init. David. guess    .... on
   Maximum white noise                  ....   0.010
   Pseudo random numbers                .... off
   Inactive MOs                         .... canonical
   Orbital update algorithm             .... Taylor
   Preconditioner                       .... Diag
   Full preconditioner red. dimension   ....   250
 SOSCF                  CNVSOSCF        .... on
   Start iteration      SOSCFMaxIt      ....   150
   Startup grad/error   SOSCFStart      ....  0.003300
   Hessian update       SOSCFHessUp     .... L-BFGS
 Level Shifting         CNVShift        .... on
   Level shift para.    LevelShift      ....    0.2500
   Turn off err/grad.   ShiftErr        ....    0.0010
 Zerner damping         CNVZerner       .... off
 Static damping         CNVDamp         .... on
   Fraction old density DampFac         ....    0.7000
   Max. Damping (<1)    DampMax         ....    0.9800
   Min. Damping (>=0)   DampMin         ....    0.0000
   Turn off err/grad.   DampErr         ....    0.1000

SCF Procedure:
 Maximum # iterations   MaxIter         ....   125
 SCF integral mode      SCFMode         .... Direct
   Integral package                     .... SHARK and LIBINT hybrid scheme
 Reset frequency        DirectResetFreq ....    20
 Integral Threshold     Thresh          ....  2.500e-11 Eh
 Primitive CutOff       TCut            ....  2.500e-12 Eh

Convergence Tolerance:
 Convergence Check Mode ConvCheckMode   .... Total+1el-Energy
 Convergence forced     ConvForced      .... 0
 Energy Change          TolE            ....  1.000e-08 Eh
 1-El. energy change                    ....  1.000e-05 Eh
 Orbital Gradient       TolG            ....  1.000e-05
 Orbital Rotation angle TolX            ....  1.000e-05
 DIIS Error             TolErr          ....  5.000e-07

------------------------------
INITIAL GUESS: MODEL POTENTIAL
------------------------------
Loading Hartree-Fock densities                     ... done
Calculating cut-offs                               ... done
Initializing the effective Hamiltonian             ... done
Setting up the integral package (SHARK)            ... done
Starting the Coulomb interaction                   ... done (   0.0 sec)
Making the grid                                    ... done (   0.1 sec)
Mapping shells                                     ... done
Starting the XC term evaluation                    ... done (   0.0 sec)
  promolecular density results
     # of electrons  =     73.994481182
     EX              =    -73.594811934
     EC              =     -2.843201743
     EX+EC           =    -76.438013678
Transforming the Hamiltonian                       ... done (   0.0 sec)
Diagonalizing the Hamiltonian                      ... done (   0.0 sec)
Back transforming the eigenvectors                 ... done (   0.0 sec)
Now organizing SCF variables                       ... done
                      ------------------
                      INITIAL GUESS DONE (   0.2 sec)
                      ------------------
             **** ENERGY FILE WAS UPDATED (data/geom_opt_PO_BP86/76001/76001.en.tmp) ****
Finished Guess after   0.2 sec
Maximum memory used throughout the entire GUESS-calculation: 11.6 MB


           ************************************************************
           *        Program running with 6 parallel MPI-processes     *
           *              working on a common directory               *
           ************************************************************

-------------------------------------------------------------------------------------------
                                      ORCA LEAN-SCF
                              memory conserving SCF solver
-------------------------------------------------------------------------------------------

----------------------------------------D-I-I-S--------------------------------------------
Iteration    Energy (Eh)           Delta-E    RMSDP     MaxDP     DIISErr   Damp  Time(sec)
-------------------------------------------------------------------------------------------
               ***  Starting incremental Fock matrix formation  ***
    1    -761.2645748110552404     0.00e+00  6.24e-03  1.48e-01  3.31e-01  0.700   0.2
    2    -761.4287139794358836    -1.64e-01  3.50e-03  6.50e-02  8.33e-02  0.700   0.3
                               ***Turning on AO-DIIS***
    3    -761.4705487057582332    -4.18e-02  1.07e-03  1.79e-02  2.55e-02  0.700   0.2
    4    -761.5036287653819045    -3.31e-02  1.57e-03  4.91e-02  2.07e-02  0.000   0.2
    5    -761.5817860963330759    -7.82e-02  5.24e-04  9.95e-03  7.38e-03  0.000   0.2
                              *** Initializing SOSCF ***
---------------------------------------S-O-S-C-F--------------------------------------
Iteration    Energy (Eh)           Delta-E    RMSDP     MaxDP     MaxGrad    Time(sec)
--------------------------------------------------------------------------------------
    6    -761.5823405350257644    -5.54e-04  1.84e-04  2.83e-03  2.87e-03     0.2
               *** Restarting incremental Fock matrix formation ***
    7    -761.5823937561270895    -5.32e-05  1.48e-04  2.78e-03  4.72e-04     0.2
    8    -761.5823738878606264     1.99e-05  9.50e-05  2.09e-03  1.06e-03     0.2
    9    -761.5824039536724968    -3.01e-05  4.49e-05  8.22e-04  1.32e-04     0.2
   10    -761.5824011333660337     2.82e-06  3.08e-05  6.19e-04  2.38e-04     0.2
   11    -761.5824048174455356    -3.68e-06  9.72e-06  1.40e-04  2.44e-05     0.2
   12    -761.5824047772451877     4.02e-08  5.23e-06  8.57e-05  3.55e-05     0.3
   13    -761.5824048637281294    -8.65e-08  6.48e-07  2.48e-05  2.96e-06     0.3
   14    -761.5824048622804412     1.45e-09  2.70e-07  1.25e-05  1.81e-06     0.3
                 **** Energy Check signals convergence ****

               *****************************************************
               *                     SUCCESS                       *
               *           SCF CONVERGED AFTER  14 CYCLES          *
               *****************************************************

             **** ENERGY FILE WAS UPDATED (data/geom_opt_PO_BP86/76001/76001.en.tmp) ****

----------------
TOTAL SCF ENERGY
----------------

Total Energy       :       -761.58240486228044 Eh          -20723.71081 eV

Components:
Nuclear Repulsion  :        525.55876225671170 Eh           14301.18098 eV
Electronic Energy  :      -1287.14116711899214 Eh          -35024.89179 eV
One Electron Energy:      -2091.61121434367669 Eh          -56915.63468 eV
Two Electron Energy:        804.47004722468444 Eh           21890.74289 eV

Virial components:
Potential Energy   :      -1518.73248188771572 Eh          -41326.81185 eV
Kinetic Energy     :        757.15007702543528 Eh           20603.10104 eV
Virial Ratio       :          2.00585396207613

DFT components:
N(Alpha)           :       37.000008149330 electrons
N(Beta)            :       37.000008149330 electrons
N(Total)           :       74.000016298660 electrons
E(X)               :      -74.575242117962 Eh       
E(C)               :       -2.852297967430 Eh       
E(XC)              :      -77.427540085392 Eh       

---------------
SCF CONVERGENCE
---------------

  Last Energy change         ...   -1.4477e-09  Tolerance :   1.0000e-08
  Last MAX-Density change    ...    1.2541e-05  Tolerance :   1.0000e-07
  Last RMS-Density change    ...    2.7020e-07  Tolerance :   5.0000e-09
  Last DIIS Error            ...    2.8685e-03  Tolerance :   5.0000e-07
  Last Orbital Gradient      ...    1.8125e-06  Tolerance :   1.0000e-05
  Last Orbital Rotation      ...    1.3515e-06  Tolerance :   1.0000e-05


----------------
ORBITAL ENERGIES
----------------

  NO   OCC          E(Eh)            E(eV) 
   0   2.0000     -76.408713     -2079.1868 
   1   2.0000     -18.791556      -511.3442 
   2   2.0000     -18.791549      -511.3440 
   3   2.0000     -18.791539      -511.3438 
   4   2.0000     -18.738473      -509.8998 
   5   2.0000      -9.970268      -271.3048 
   6   2.0000      -9.970257      -271.3045 
   7   2.0000      -9.970194      -271.3028 
   8   2.0000      -6.375401      -173.4835 
   9   2.0000      -4.596110      -125.0665 
  10   2.0000      -4.596108      -125.0664 
  11   2.0000      -4.595751      -125.0567 
  12   2.0000      -0.943734       -25.6803 
  13   2.0000      -0.935986       -25.4695 
  14   2.0000      -0.935982       -25.4694 
  15   2.0000      -0.869535       -23.6613 
  16   2.0000      -0.692247       -18.8370 
  17   2.0000      -0.627727       -17.0813 
  18   2.0000      -0.627724       -17.0812 
  19   2.0000      -0.523833       -14.2542 
  20   2.0000      -0.479892       -13.0585 
  21   2.0000      -0.479888       -13.0584 
  22   2.0000      -0.442729       -12.0473 
  23   2.0000      -0.429735       -11.6937 
  24   2.0000      -0.417204       -11.3527 
  25   2.0000      -0.417201       -11.3526 
  26   2.0000      -0.403706       -10.9854 
  27   2.0000      -0.403703       -10.9853 
  28   2.0000      -0.336837        -9.1658 
  29   2.0000      -0.306250        -8.3335 
  30   2.0000      -0.302304        -8.2261 
  31   2.0000      -0.302302        -8.2260 
  32   2.0000      -0.258947        -7.0463 
  33   2.0000      -0.254757        -6.9323 
  34   2.0000      -0.254755        -6.9322 
  35   2.0000      -0.221209        -6.0194 
  36   2.0000      -0.221206        -6.0193 
  37   0.0000      -0.001276        -0.0347 
  38   0.0000       0.017448         0.4748 
  39   0.0000       0.017474         0.4755 
  40   0.0000       0.034498         0.9387 
  41   0.0000       0.057009         1.5513 
  42   0.0000       0.078104         2.1253 
  43   0.0000       0.078113         2.1256 
  44   0.0000       0.088093         2.3971 
  45   0.0000       0.088102         2.3974 
  46   0.0000       0.110309         3.0017 
  47   0.0000       0.110315         3.0018 
*Only the first 10 virtual orbitals were printed.

                    ********************************
                    * MULLIKEN POPULATION ANALYSIS *
                    ********************************

-----------------------
MULLIKEN ATOMIC CHARGES
-----------------------
   0 C :    0.099361
   1 O :   -0.303689
   2 P :    0.267077
   3 O :   -0.479954
   4 C :    0.099375
   5 O :   -0.303723
   6 C :    0.099248
   7 O :   -0.303685
   8 H :    0.045149
   9 H :    0.050853
  10 H :    0.179309
  11 H :    0.050860
  12 H :    0.045180
  13 H :    0.179305
  14 H :    0.050864
  15 H :    0.045165
  16 H :    0.179306
Sum of atomic charges:   -0.0000000

--------------------------------
MULLIKEN REDUCED ORBITAL CHARGES
--------------------------------
  0 C s       :     3.011674  s :     3.011674
      pz      :     1.003646  p :     2.835816
      px      :     0.891973
      py      :     0.940197
      dz2     :     0.009118  d :     0.053149
      dxz     :     0.008926
      dyz     :     0.009564
      dx2y2   :     0.011440
      dxy     :     0.014102

  1 O s       :     3.751233  s :     3.751233
      pz      :     1.304385  p :     4.539727
      px      :     1.557248
      py      :     1.678094
      dz2     :     0.003244  d :     0.012729
      dxz     :     0.003139
      dyz     :     0.000949
      dx2y2   :     0.002209
      dxy     :     0.003188

  2 P s       :     5.319043  s :     5.319043
      pz      :     2.910879  p :     8.917866
      px      :     3.007086
      py      :     2.999901
      dz2     :     0.108441  d :     0.496015
      dxz     :     0.112747
      dyz     :     0.141183
      dx2y2   :     0.043303
      dxy     :     0.090340

  3 O s       :     3.827543  s :     3.827543
      pz      :     1.373496  p :     4.640397
      px      :     1.643515
      py      :     1.623387
      dz2     :     0.004583  d :     0.012014
      dxz     :     0.003161
      dyz     :     0.003458
      dx2y2   :     0.000411
      dxy     :     0.000401

  4 C s       :     3.011740  s :     3.011740
      pz      :     0.922381  p :     2.835736
      px      :     1.034490
      py      :     0.878865
      dz2     :     0.013059  d :     0.053149
      dxz     :     0.005664
      dyz     :     0.013797
      dx2y2   :     0.006702
      dxy     :     0.013926

  5 O s       :     3.751242  s :     3.751242
      pz      :     1.181826  p :     4.539751
      px      :     1.865340
      py      :     1.492586
      dz2     :     0.001791  d :     0.012729
      dxz     :     0.000683
      dyz     :     0.005559
      dx2y2   :     0.002644
      dxy     :     0.002053

  6 C s       :     3.011698  s :     3.011698
      pz      :     1.041146  p :     2.835905
      px      :     0.836004
      py      :     0.958755
      dz2     :     0.009613  d :     0.053149
      dxz     :     0.007711
      dyz     :     0.006608
      dx2y2   :     0.015690
      dxy     :     0.013527

  7 O s       :     3.751238  s :     3.751238
      pz      :     1.342710  p :     4.539718
      px      :     1.513845
      py      :     1.683163
      dz2     :     0.004966  d :     0.012729
      dxz     :     0.001482
      dyz     :     0.000950
      dx2y2   :     0.002277
      dxy     :     0.003054

  8 H s       :     0.933009  s :     0.933009
      pz      :     0.011972  p :     0.021842
      px      :     0.004430
      py      :     0.005440

  9 H s       :     0.927240  s :     0.927240
      pz      :     0.004722  p :     0.021908
      px      :     0.010048
      py      :     0.007137

 10 H s       :     0.753922  s :     0.753922
      pz      :     0.032547  p :     0.066769
      px      :     0.016483
      py      :     0.017739

 11 H s       :     0.927230  s :     0.927230
      pz      :     0.004055  p :     0.021910
      px      :     0.011552
      py      :     0.006303

 12 H s       :     0.932979  s :     0.932979
      pz      :     0.011066  p :     0.021842
      px      :     0.005558
      py      :     0.005218

 13 H s       :     0.753925  s :     0.753925
      pz      :     0.029218  p :     0.066770
      px      :     0.019402
      py      :     0.018150

 14 H s       :     0.927227  s :     0.927227
      pz      :     0.006771  p :     0.021909
      px      :     0.003859
      py      :     0.011279

 15 H s       :     0.932994  s :     0.932994
      pz      :     0.013484  p :     0.021840
      px      :     0.003661
      py      :     0.004696

 16 H s       :     0.753926  s :     0.753926
      pz      :     0.033029  p :     0.066769
      px      :     0.015243
      py      :     0.018497



                     *******************************
                     * LOEWDIN POPULATION ANALYSIS *
                     *******************************

----------------------
LOEWDIN ATOMIC CHARGES
----------------------
   0 C :   -0.076183
   1 O :   -0.141487
   2 P :    0.772226
   3 O :   -0.503602
   4 C :   -0.076164
   5 O :   -0.141489
   6 C :   -0.076196
   7 O :   -0.141479
   8 H :    0.028284
   9 H :    0.021685
  10 H :    0.078156
  11 H :    0.021679
  12 H :    0.028289
  13 H :    0.078153
  14 H :    0.021683
  15 H :    0.028288
  16 H :    0.078157

-------------------------------
LOEWDIN REDUCED ORBITAL CHARGES
-------------------------------
  0 C s       :     2.894723  s :     2.894723
      pz      :     1.058739  p :     3.059987
      px      :     0.969666
      py      :     1.031582
      dz2     :     0.021055  d :     0.121474
      dxz     :     0.018931
      dyz     :     0.023007
      dx2y2   :     0.025089
      dxy     :     0.033392

  1 O s       :     3.468763  s :     3.468763
      pz      :     1.376694  p :     4.649051
      px      :     1.599246
      py      :     1.673111
      dz2     :     0.007512  d :     0.023672
      dxz     :     0.005813
      dyz     :     0.001954
      dx2y2   :     0.002915
      dxy     :     0.005477

  2 P s       :     4.944618  s :     4.944618
      pz      :     2.812952  p :     8.585931
      px      :     2.889340
      py      :     2.883639
      dz2     :     0.157335  d :     0.697224
      dxz     :     0.151477
      dyz     :     0.200210
      dx2y2   :     0.054736
      dxy     :     0.133466

  3 O s       :     3.659374  s :     3.659374
      pz      :     1.502513  p :     4.825590
      px      :     1.667696
      py      :     1.655381
      dz2     :     0.008592  d :     0.018637
      dxz     :     0.003937
      dyz     :     0.005104
      dx2y2   :     0.000514
      dxy     :     0.000490

  4 C s       :     2.894729  s :     2.894729
      pz      :     0.980237  p :     3.059959
      px      :     1.106257
      py      :     0.973466
      dz2     :     0.029293  d :     0.121475
      dxz     :     0.010340
      dyz     :     0.031391
      dx2y2   :     0.014503
      dxy     :     0.035947

  5 O s       :     3.468763  s :     3.468763
      pz      :     1.258823  p :     4.649055
      px      :     1.842313
      py      :     1.547919
      dz2     :     0.004515  d :     0.023672
      dxz     :     0.001397
      dyz     :     0.011837
      dx2y2   :     0.003531
      dxy     :     0.002393

  6 C s       :     2.894721  s :     2.894721
      pz      :     1.092783  p :     3.060002
      px      :     0.943983
      py      :     1.023235
      dz2     :     0.025108  d :     0.121474
      dxz     :     0.014629
      dyz     :     0.014613
      dx2y2   :     0.035517
      dxy     :     0.031606

  7 O s       :     3.468765  s :     3.468765
      pz      :     1.422155  p :     4.649042
      px      :     1.537546
      py      :     1.689341
      dz2     :     0.010914  d :     0.023672
      dxz     :     0.001926
      dyz     :     0.001580
      dx2y2   :     0.003686
      dxy     :     0.005566

  8 H s       :     0.902317  s :     0.902317
      pz      :     0.039541  p :     0.069399
      px      :     0.013748
      py      :     0.016110

  9 H s       :     0.906399  s :     0.906399
      pz      :     0.014131  p :     0.071916
      px      :     0.033668
      py      :     0.024117

 10 H s       :     0.744619  s :     0.744619
      pz      :     0.086345  p :     0.177225
      px      :     0.044282
      py      :     0.046598

 11 H s       :     0.906405  s :     0.906405
      pz      :     0.012618  p :     0.071916
      px      :     0.039375
      py      :     0.019922

 12 H s       :     0.902311  s :     0.902311
      pz      :     0.036328  p :     0.069400
      px      :     0.015495
      py      :     0.017577

 13 H s       :     0.744621  s :     0.744621
      pz      :     0.075547  p :     0.177226
      px      :     0.051793
      py      :     0.049886

 14 H s       :     0.906399  s :     0.906399
      pz      :     0.019135  p :     0.071918
      px      :     0.013402
      py      :     0.039380

 15 H s       :     0.902312  s :     0.902312
      pz      :     0.043454  p :     0.069400
      px      :     0.012293
      py      :     0.013654

 16 H s       :     0.744620  s :     0.744620
      pz      :     0.092708  p :     0.177223
      px      :     0.037965
      py      :     0.046551



                      *****************************
                      * MAYER POPULATION ANALYSIS *
                      *****************************

  NA   - Mulliken gross atomic population
  ZA   - Total nuclear charge
  QA   - Mulliken gross atomic charge
  VA   - Mayer's total valence
  BVA  - Mayer's bonded valence
  FA   - Mayer's free valence

  ATOM       NA         ZA         QA         VA         BVA        FA
  0 C      5.9006     6.0000     0.0994     3.8360     3.8360    -0.0000
  1 O      8.3037     8.0000    -0.3037     2.1198     2.1198    -0.0000
  2 P     14.7329    15.0000     0.2671     5.0325     5.0325    -0.0000
  3 O      8.4800     8.0000    -0.4800     2.0960     2.0960    -0.0000
  4 C      5.9006     6.0000     0.0994     3.8358     3.8358    -0.0000
  5 O      8.3037     8.0000    -0.3037     2.1198     2.1198    -0.0000
  6 C      5.9008     6.0000     0.0992     3.8361     3.8361    -0.0000
  7 O      8.3037     8.0000    -0.3037     2.1198     2.1198    -0.0000
  8 H      0.9549     1.0000     0.0451     0.9849     0.9849    -0.0000
  9 H      0.9491     1.0000     0.0509     1.0017     1.0017    -0.0000
 10 H      0.8207     1.0000     0.1793     1.0315     1.0315    -0.0000
 11 H      0.9491     1.0000     0.0509     1.0017     1.0017    -0.0000
 12 H      0.9548     1.0000     0.0452     0.9849     0.9849    -0.0000
 13 H      0.8207     1.0000     0.1793     1.0315     1.0315    -0.0000
 14 H      0.9491     1.0000     0.0509     1.0017     1.0017    -0.0000
 15 H      0.9548     1.0000     0.0452     0.9849     0.9849    -0.0000
 16 H      0.8207     1.0000     0.1793     1.0315     1.0315     0.0000

  Mayer bond orders larger than 0.100000
B(  0-C ,  1-O ) :   1.0232 B(  0-C ,  2-P ) :   0.9240 B(  0-C ,  8-H ) :   0.9176 
B(  0-C ,  9-H ) :   0.9247 B(  1-O , 10-H ) :   0.9540 B(  2-P ,  3-O ) :   1.8374 
B(  2-P ,  4-C ) :   0.9239 B(  2-P ,  6-C ) :   0.9241 B(  4-C ,  5-O ) :   1.0232 
B(  4-C , 11-H ) :   0.9247 B(  4-C , 12-H ) :   0.9176 B(  5-O , 13-H ) :   0.9540 
B(  6-C ,  7-O ) :   1.0232 B(  6-C , 14-H ) :   0.9247 B(  6-C , 15-H ) :   0.9176 
B(  7-O , 16-H ) :   0.9540 

-------
TIMINGS
-------

Total SCF time: 0 days 0 hours 0 min 3 sec 

Total time                  ....       3.317 sec
Sum of individual times     ....       3.266 sec  ( 98.5%)

SCF preparation             ....       0.064 sec  (  1.9%)
Fock matrix formation       ....       2.878 sec  ( 86.8%)
  Startup                   ....       0.031 sec  (  1.1% of F)
  Split-RI-J                ....       0.712 sec  ( 24.7% of F)
  XC integration            ....       2.015 sec  ( 70.0% of F)
    Basis function eval.    ....       0.567 sec  ( 28.1% of XC)
    Density eval.           ....       0.423 sec  ( 21.0% of XC)
    XC-Functional eval.     ....       0.082 sec  (  4.1% of XC)
    XC-Potential eval.      ....       0.418 sec  ( 20.7% of XC)
Diagonalization             ....       0.000 sec  (  0.0%)
Density matrix formation    ....       0.059 sec  (  1.8%)
Total Energy calculation    ....       0.030 sec  (  0.9%)
Population analysis         ....       0.034 sec  (  1.0%)
Orbital Transformation      ....       0.021 sec  (  0.6%)
Orbital Orthonormalization  ....       0.000 sec  (  0.0%)
DIIS solution               ....       0.094 sec  (  2.8%)
SOSCF solution              ....       0.086 sec  (  2.6%)
Finished LeanSCF after   3.3 sec

Maximum memory used throughout the entire LEANSCF-calculation: 15.2 MB


-------------------------------------------------------------------------------
                          DFT DISPERSION CORRECTION                            
                                                                               
                              DFTD3 V3.1  Rev 1                                
                          USING Becke-Johnson damping                          
-------------------------------------------------------------------------------
The BP86 functional is recognized
Active option DFTDOPT                   ...         4   

molecular C6(AA) [au] = 2877.927396 


            DFT-D V3
 parameters
 s6 scaling factor         :     1.0000 
 a1 scaling factor         :     0.3946 
 s8 scaling factor         :     3.2822 
 a2 scaling factor         :     4.8516 
 ad hoc parameters k1-k3   :    16.0000     1.3333    -4.0000 

 Edisp/kcal,au: -16.606265958260  -0.026463766482 
 E6   /kcal   :  -6.145443489 
 E8   /kcal   : -10.460822469 
 % E8         :  62.993224938 

-------------------------   ----------------
Dispersion correction           -0.026463766
-------------------------   ----------------


-------------------------   --------------------
FINAL SINGLE POINT ENERGY      -761.608868628762
-------------------------   --------------------



           ************************************************************
           *        Program running with 6 parallel MPI-processes     *
           *              working on a common directory               *
           ************************************************************
------------------------------------------------------------------------------
                         ORCA SCF GRADIENT CALCULATION
------------------------------------------------------------------------------

Nuc. rep. gradient        (SHARK) ... done (  0.0 sec)
HCore & Overlap gradient  (SHARK) ... done (  0.2 sec)
Split-RIJ-J gradient      (SHARK) ... done (  0.3 sec)
XC gradient                       ... done (  1.0 sec)
Dispersion correction             ... done (  0.1 sec)

-------------------
DISPERSION GRADIENT
-------------------

   1   C   :   -0.000131218    0.000472176    0.000228628
   2   O   :   -0.000166878    0.000422307    0.000076853
   3   P   :    0.000006026    0.000011830   -0.000037751
   4   O   :    0.000079402    0.000155983   -0.000497870
   5   C   :   -0.000400321   -0.000356010   -0.000073757
   6   O   :   -0.000275123   -0.000325417   -0.000174671
   7   C   :    0.000488267   -0.000201174    0.000116463
   8   O   :    0.000454280   -0.000072765    0.000020802
   9   H   :   -0.000074865    0.000182360    0.000233528
  10   H   :   -0.000005970    0.000260037    0.000132242
  11   H   :   -0.000082108    0.000261808   -0.000043303
  12   H   :   -0.000254331   -0.000139299   -0.000032472
  13   H   :   -0.000211428   -0.000200693    0.000091741
  14   H   :   -0.000137868   -0.000156689   -0.000183311
  15   H   :    0.000238272   -0.000164010    0.000038346
  16   H   :    0.000206101   -0.000139208    0.000177588
  17   H   :    0.000267763   -0.000011237   -0.000073055

Difference to translation invariance:
           :    0.0000000000   -0.0000000000   -0.0000000000

Difference to rotation invariance:
           :    0.0000000000    0.0000000000   -0.0000000000

Norm of the Dispersion gradient    ...    0.0016002566
RMS gradient                       ...    0.0002240807
MAX gradient                       ...    0.0004978696

------------------
CARTESIAN GRADIENT
------------------

   1   C   :    0.012508515   -0.028134586    0.004561624
   2   O   :    0.008372868    0.000533219   -0.001760200
   3   P   :    0.000475233    0.000964754   -0.002850920
   4   O   :   -0.002719715   -0.005403279    0.017229444
   5   C   :    0.013088795    0.020061846    0.019716397
   6   O   :   -0.003483604    0.007721638   -0.001389462
   7   C   :   -0.030374004   -0.001549624    0.006085208
   8   O   :   -0.003503248   -0.005508757   -0.005563890
   9   H   :    0.003599071    0.003099596   -0.010013162
  10   H   :   -0.016853528    0.000247336   -0.004957572
  11   H   :   -0.001390792    0.001811794    0.000784273
  12   H   :    0.010033815   -0.013525316   -0.005017903
  13   H   :    0.000643989    0.004909562   -0.009917777
  14   H   :   -0.001079674   -0.002103951   -0.000391562
  15   H   :    0.007776439    0.015320115    0.003663329
  16   H   :    0.000635656    0.001614615   -0.010949133
  17   H   :    0.002270183   -0.000058962    0.000771307

Difference to translation invariance:
           :    0.0000000000   -0.0000000000    0.0000000000

Difference to rotation invariance:
           :    0.0003246275   -0.0002906433    0.0001225704

Norm of the Cartesian gradient     ...    0.0690568685
RMS gradient                       ...    0.0096698958
MAX gradient                       ...    0.0303740040

-------
TIMINGS
-------

Total SCF gradient time     ....        1.620 sec

One electron gradient       ....       0.231 sec  ( 14.3%)
RI-J Coulomb gradient       ....       0.300 sec  ( 18.5%)
XC gradient                 ....       1.025 sec  ( 63.3%)

Maximum memory used throughout the entire SCFGRAD-calculation: 28.9 MB
------------------------------------------------------------------------------
                         ORCA GEOMETRY RELAXATION STEP
------------------------------------------------------------------------------

Reading the OPT-File                    .... done
Getting information on internals        .... done
Copying old internal coords+grads       .... done
Making the new internal coordinates     .... (2022 redundants) done
Validating the new internal coordinates .... (2022 redundants) done
Calculating the B-matrix                .... done
Calculating the G,G- and P matrices     .... done
Transforming gradient to internals      .... done
Projecting the internal gradient        .... done
Number of atoms                         ....  17
Number of internal coordinates          ....  70
Current Energy                          ....  -761.608868629 Eh
Current gradient norm                   ....     0.069056868 Eh/bohr
Maximum allowed component of the step   ....  0.300
Current trust radius                    ....  0.300
Evaluating the initial hessian          ....  (Almloef) done
Projecting the Hessian                  .... done
Forming the augmented Hessian           .... done
Diagonalizing the augmented Hessian     .... done
Last element of RFO vector              ....  0.974371441
Lowest eigenvalues of augmented Hessian:
 -0.010679032  0.005144329  0.005144337  0.005362180  0.018838202
Length of the computed step             ....  0.230861746
The final length of the internal step   ....  0.230861746
Converting the step to Cartesian space:
 Initial RMS(Int)=    0.0275932563
Transforming coordinates:
 Iter   0:  RMS(Cart)=    0.0428625683 RMS(Int)=    0.0273401505
 Iter   5:  RMS(Cart)=    0.0000000080 RMS(Int)=    0.0000000063
done
Storing new coordinates                 .... done

                                .--------------------.
          ----------------------|Geometry convergence|-------------------------
          Item                value                   Tolerance       Converged
          ---------------------------------------------------------------------
          RMS gradient        0.0075851380            0.0001000000      NO
          MAX gradient        0.0253004827            0.0003000000      NO
          RMS step            0.0275932563            0.0020000000      NO
          MAX step            0.0661936778            0.0040000000      NO
          ........................................................
          Max(Bonds)      0.0264      Max(Angles)    2.49
          Max(Dihed)        3.79      Max(Improp)    0.00
          ---------------------------------------------------------------------

The optimization has not yet converged - more geometry cycles are needed


    ---------------------------------------------------------------------------
                         Redundant Internal Coordinates
                            (Angstroem and degrees)

        Definition                    Value    dE/dq     Step     New-Value
    ----------------------------------------------------------------------------
     1. B(O   1,C   0)                1.4270 -0.003379  0.0036    1.4306   
     2. B(P   2,C   0)                1.7829 -0.025300  0.0264    1.8093   
     3. B(O   3,P   2)                1.5104 -0.018260  0.0079    1.5183   
     4. B(C   4,P   2)                1.7829 -0.025227  0.0264    1.8092   
     5. B(O   5,C   4)                1.4270 -0.003426  0.0036    1.4306   
     6. B(C   6,P   2)                1.7829 -0.025264  0.0264    1.8093   
     7. B(O   7,C   6)                1.4270 -0.003386  0.0036    1.4306   
     8. B(H   8,C   0)                1.0929 -0.011078  0.0160    1.1089   
     9. B(H   9,C   0)                1.0933 -0.014078  0.0203    1.1136   
    10. B(H  10,O   1)                0.9792 -0.000740  0.0008    0.9800   
    11. B(H  11,C   4)                1.0933 -0.014099  0.0204    1.1137   
    12. B(H  12,C   4)                1.0929 -0.011069  0.0160    1.1089   
    13. B(H  13,O   5)                0.9792 -0.000754  0.0008    0.9800   
    14. B(H  14,C   6)                1.0933 -0.014122  0.0204    1.1137   
    15. B(H  15,C   6)                1.0929 -0.011077  0.0160    1.1089   
    16. B(H  16,O   7)                0.9792 -0.000725  0.0008    0.9800   
    17. A(O   1,C   0,H   9)          108.41 -0.009418    2.49    110.90   
    18. A(H   8,C   0,H   9)          108.88  0.000978   -0.68    108.20   
    19. A(O   1,C   0,P   2)          107.32  0.000758    0.11    107.43   
    20. A(P   2,C   0,H   9)          111.60  0.006399   -1.08    110.52   
    21. A(P   2,C   0,H   8)          111.84 -0.001027   -0.27    111.58   
    22. A(O   1,C   0,H   8)          108.69  0.001880   -0.45    108.24   
    23. A(C   0,O   1,H  10)          106.39  0.003688   -0.58    105.80   
    24. A(O   3,P   2,C   6)          112.79  0.005041   -0.92    111.87   
    25. A(C   0,P   2,C   4)          105.96 -0.003181    0.99    106.95   
    26. A(C   0,P   2,C   6)          105.96 -0.002000    0.90    106.86   
    27. A(O   3,P   2,C   4)          112.79  0.002228   -0.82    111.97   
    28. A(C   0,P   2,O   3)          112.79  0.002578   -0.88    111.91   
    29. A(C   4,P   2,C   6)          105.96 -0.005792    1.03    106.99   
    30. A(P   2,C   4,O   5)          107.32  0.000788    0.06    107.38   
    31. A(H  11,C   4,H  12)          108.88  0.000993   -0.58    108.30   
    32. A(O   5,C   4,H  12)          108.69  0.000771   -0.51    108.18   
    33. A(P   2,C   4,H  12)          111.84 -0.001213   -0.25    111.59   
    34. A(O   5,C   4,H  11)          108.41 -0.008339    2.44    110.85   
    35. A(P   2,C   4,H  11)          111.60  0.006574   -1.04    110.56   
    36. A(C   4,O   5,H  13)          106.39  0.003652   -0.58    105.81   
    37. A(H  14,C   6,H  15)          108.88  0.001011   -0.59    108.29   
    38. A(O   7,C   6,H  15)          108.69  0.000809   -0.52    108.17   
    39. A(P   2,C   6,H  15)          111.84 -0.001206   -0.26    111.59   
    40. A(O   7,C   6,H  14)          108.41 -0.008310    2.44    110.85   
    41. A(P   2,C   6,H  14)          111.60  0.006545   -1.03    110.57   
    42. A(P   2,C   6,O   7)          107.32  0.000728    0.07    107.39   
    43. A(C   6,O   7,H  16)          106.39  0.003651   -0.58    105.81   
    44. D(H  10,O   1,C   0,H   8)   -174.40 -0.001793    1.59   -172.81   
    45. D(H  10,O   1,C   0,H   9)     67.39  0.001284    1.25     68.65   
    46. D(H  10,O   1,C   0,P   2)    -53.28 -0.001513    1.08    -52.20   
    47. D(O   3,P   2,C   0,H   9)    -67.34  0.005714   -3.54    -70.87   
    48. D(O   3,P   2,C   0,H   8)    170.41  0.000555   -1.68    168.72   
    49. D(C   4,P   2,C   0,H   8)     46.55 -0.001630   -0.79     45.75   
    50. D(O   3,P   2,C   0,O   1)     51.29 -0.001629   -1.05     50.25   
    51. D(C   4,P   2,C   0,H   9)    168.80  0.003528   -2.65    166.15   
    52. D(C   4,P   2,C   0,O   1)    -72.57 -0.003815   -0.16    -72.73   
    53. D(H  11,C   4,P   2,O   3)    -67.34  0.003832   -2.87    -70.21   
    54. D(H  11,C   4,P   2,C   0)     56.52  0.006236   -3.79     52.73   
    55. D(O   5,C   4,P   2,C   6)    -72.57 -0.005745    0.50    -72.07   
    56. D(O   5,C   4,P   2,O   3)     51.29 -0.002078   -0.45     50.84   
    57. D(H  11,C   4,P   2,C   6)    168.80  0.000165   -1.92    166.88   
    58. D(O   5,C   4,P   2,C   0)    175.15  0.000327   -1.38    173.78   
    59. D(H  13,O   5,C   4,H  12)   -174.40 -0.001517    1.64   -172.77   
    60. D(H  13,O   5,C   4,H  11)     67.39  0.001554    1.24     68.63   
    61. D(H  13,O   5,C   4,P   2)    -53.28 -0.002073    1.08    -52.20   
    62. D(H  14,C   6,P   2,C   4)     56.52  0.006331   -3.72     52.80   
    63. D(H  14,C   6,P   2,O   3)    -67.34  0.004425   -2.83    -70.18   
    64. D(H  14,C   6,P   2,C   0)    168.80 -0.000565   -1.79    167.01   
    65. D(O   7,C   6,P   2,C   4)    175.15  0.000403   -1.30    173.86   
    66. D(O   7,C   6,P   2,O   3)     51.29 -0.001503   -0.41     50.88   
    67. D(O   7,C   6,P   2,C   0)    -72.57 -0.006494    0.64    -71.93   
    68. D(H  16,O   7,C   6,H  15)   -174.40 -0.001494    1.63   -172.77   
    69. D(H  16,O   7,C   6,H  14)     67.40  0.001518    1.25     68.64   
    70. D(H  16,O   7,C   6,P   2)    -53.28 -0.002056    1.07    -52.21   
    ----------------------------------------------------------------------------

Geometry step timings:
Preparation and reading OPT file:      0.001 s (20.000 %)
Internal coordinates            :      0.000 s ( 0.000 %)
B/P matrices and projection     :      0.001 s (20.000 %)
Hessian update/contruction      :      0.001 s (20.000 %)
Making the step                 :      0.000 s ( 0.000 %)
Converting the step to Cartesian:      0.001 s (20.000 %)
Storing new data                :      0.000 s ( 0.000 %)
Checking convergence            :      0.000 s ( 0.000 %)
Final printing                  :      0.001 s (20.000 %)
Total time                      :      0.005 s

Time for energy+gradient        :      6.166 s
Time for complete geometry iter :      6.287 s

         *************************************************************
         *                GEOMETRY OPTIMIZATION CYCLE   2            *
         *************************************************************
---------------------------------
CARTESIAN COORDINATES (ANGSTROEM)
---------------------------------
  C     -0.275872    1.477009    0.959976
  O     -1.299013    2.276207    0.359113
  P      0.038332    0.078795   -0.144501
  O      0.265959    0.527961   -1.576841
  C     -1.380456   -1.034703   -0.001410
  O     -1.212919   -2.067741   -0.976848
  C      1.471075   -0.803089    0.521067
  O      2.623198    0.010165    0.280595
  H     -0.637276    1.139344    1.952468
  H      0.653986    2.070625    1.112136
  H     -0.994603    2.456524   -0.554812
  H     -2.331278   -0.480137   -0.170617
  H     -1.427482   -1.508873    0.999880
  H     -1.057939   -1.608216   -1.828488
  H      1.579308   -1.798148    0.032759
  H      1.381156   -0.960286    1.615081
  H      2.603821    0.224564   -0.675478

----------------------------
CARTESIAN COORDINATES (A.U.)
----------------------------
  NO LB      ZA    FRAG     MASS         X           Y           Z
   0 C     6.0000    0    12.011   -0.521322    2.791142    1.814091
   1 O     8.0000    0    15.999   -2.454778    4.301408    0.678625
   2 P    15.0000    0    30.974    0.072437    0.148902   -0.273067
   3 O     8.0000    0    15.999    0.502590    0.997701   -2.979798
   4 C     6.0000    0    12.011   -2.608683   -1.955306   -0.002664
   5 O     8.0000    0    15.999   -2.292084   -3.907464   -1.845976
   6 C     6.0000    0    12.011    2.779929   -1.517619    0.984674
   7 O     8.0000    0    15.999    4.957126    0.019208    0.530247
   8 H     1.0000    0     1.008   -1.204278    2.153048    3.689630
   9 H     1.0000    0     1.008    1.235855    3.912913    2.101632
  10 H     1.0000    0     1.008   -1.879528    4.642158   -1.048443
  11 H     1.0000    0     1.008   -4.405477   -0.907327   -0.322419
  12 H     1.0000    0     1.008   -2.697551   -2.851357    1.889500
  13 H     1.0000    0     1.008   -1.999216   -3.039087   -3.455341
  14 H     1.0000    0     1.008    2.984459   -3.398006    0.061906
  15 H     1.0000    0     1.008    2.610006   -1.814677    3.052061
  16 H     1.0000    0     1.008    4.920509    0.424364   -1.276468

--------------------------------
INTERNAL COORDINATES (ANGSTROEM)
--------------------------------
 C      0   0   0     0.000000000000     0.00000000     0.00000000
 O      1   0   0     1.430584444173     0.00000000     0.00000000
 P      1   2   0     1.809307281584   107.42918034     0.00000000
 O      3   1   2     1.518276084116   111.91957615    50.23967617
 C      3   1   2     1.809229659663   106.92706961   287.27263674
 O      5   3   1     1.430634932619   107.37653305   173.76452313
 C      3   1   2     1.809269204003   106.83618425   173.01171611
 O      7   3   1     1.430592696976   107.38686785   288.07491093
 H      1   2   3     1.108905708031   108.23658394   239.39290562
 H      1   2   3     1.113628402054   110.90203349   120.86107744
 H      2   1   3     0.980019117317   105.80263281   307.79429796
 H      5   3   1     1.113659909549   110.55080995    52.72355416
 H      5   3   1     1.108886943204   111.58286135   292.13709028
 H      6   5   3     0.980036096634   105.80947594   307.78974062
 H      7   3   1     1.113687424013   110.55891799   167.02353941
 H      7   3   1     1.108901915596   111.58064538    46.44274043
 H      8   7   3     0.980008596920   105.80892754   307.78440912

---------------------------
INTERNAL COORDINATES (A.U.)
---------------------------
 C      0   0   0     0.000000000000     0.00000000     0.00000000
 O      1   0   0     2.703412810935     0.00000000     0.00000000
 P      1   2   0     3.419095254303   107.42918034     0.00000000
 O      3   1   2     2.869125994662   111.91957615    50.23967617
 C      3   1   2     3.418948570132   106.92706961   287.27263674
 O      5   3   1     2.703508220270   107.37653305   173.76452313
 C      3   1   2     3.419023298104   106.83618425   173.01171611
 O      7   3   1     2.703428406473   107.38686785   288.07491093
 H      1   2   3     2.095528096521   108.23658394   239.39290562
 H      1   2   3     2.104452694838   110.90203349   120.86107744
 H      2   1   3     1.851967737737   105.80263281   307.79429796
 H      5   3   1     2.104512235375   110.55080995    52.72355416
 H      5   3   1     2.095492636136   111.58286135   292.13709028
 H      6   5   3     1.851999823996   105.80947594   307.78974062
 H      7   3   1     2.104564230176   110.55891799   167.02353941
 H      7   3   1     2.095520929857   111.58064538    46.44274043
 H      8   7   3     1.851947857068   105.80892754   307.78440912



           ************************************************************
           *        Program running with 6 parallel MPI-processes     *
           *              working on a common directory               *
           ************************************************************
------------------------------------------------------------------------------
                   ___                                                        
                  /   \      - P O W E R E D   B Y -                         
                 /     \                                                     
                 |  |  |   _    _      __       _____    __    __             
                 |  |  |  | |  | |    /  \     |  _  \  |  |  /  |          
                  \  \/   | |  | |   /    \    | | | |  |  | /  /          
                 / \  \   | |__| |  /  /\  \   | |_| |  |  |/  /          
                |  |  |   |  __  | /  /__\  \  |    /   |      \           
                |  |  |   | |  | | |   __   |  |    \   |  |\   \          
                \     /   | |  | | |  |  |  |  | |\  \  |  | \   \       
                 \___/    |_|  |_| |__|  |__|  |_| \__\ |__|  \__/        
                                                                              
                      - O R C A' S   B I G   F R I E N D -                    
                                      &                                       
                       - I N T E G R A L  F E E D E R -                       
                                                                              
 v1 FN, 2020, v2 2021, v3 2022-2024                                           
------------------------------------------------------------------------------


----------------------
SHARK INTEGRAL PACKAGE
----------------------

Number of atoms                             ...     17
Number of basis functions                   ...    161
Number of shells                            ...     77
Maximum angular momentum                    ...      2
Integral batch strategy                     ... SHARK/LIBINT Hybrid
RI-J (if used) integral strategy            ... SPLIT-RIJ (Revised 2003 algorithm where possible)
Printlevel                                  ...      1
Contraction scheme used                     ... SEGMENTED contraction
Prescreening option                         ... SCHWARTZ
[...]
      dyz     :     0.005965
      dx2y2   :     0.002205
      dxy     :     0.002233

  6 C s       :     3.056128  s :     3.056128
      pz      :     1.010324  p :     2.823964
      px      :     0.845036
      py      :     0.968604
      dz2     :     0.012052  d :     0.055208
      dxz     :     0.008490
      dyz     :     0.006384
      dx2y2   :     0.015837
      dxy     :     0.012445

  7 O s       :     3.744993  s :     3.744993
      pz      :     1.340605  p :     4.526810
      px      :     1.520799
      py      :     1.665407
      dz2     :     0.003119  d :     0.013067
      dxz     :     0.003253
      dyz     :     0.000831
      dx2y2   :     0.002512
      dxy     :     0.003351

  8 H s       :     0.923369  s :     0.923369
      pz      :     0.010240  p :     0.020778
      px      :     0.005939
      py      :     0.004599

  9 H s       :     0.924617  s :     0.924617
      pz      :     0.004558  p :     0.021058
      px      :     0.011074
      py      :     0.005425

 10 H s       :     0.754596  s :     0.754596
      pz      :     0.032977  p :     0.068324
      px      :     0.018450
      py      :     0.016897

 11 H s       :     0.924549  s :     0.924549
      pz      :     0.002983  p :     0.021052
      px      :     0.010883
      py      :     0.007186

 12 H s       :     0.923390  s :     0.923390
      pz      :     0.008664  p :     0.020777
      px      :     0.005068
      py      :     0.007044

 13 H s       :     0.754591  s :     0.754591
      pz      :     0.023851  p :     0.068323
      px      :     0.020809
      py      :     0.023663

 14 H s       :     0.924517  s :     0.924517
      pz      :     0.005298  p :     0.021056
      px      :     0.003696
      py      :     0.012063

 15 H s       :     0.923376  s :     0.923376
      pz      :     0.012963  p :     0.020776
      px      :     0.003577
      py      :     0.004236

 16 H s       :     0.754562  s :     0.754562
      pz      :     0.032144  p :     0.068307
      px      :     0.017506
      py      :     0.018657



                     *******************************
                     * LOEWDIN POPULATION ANALYSIS *
                     *******************************

----------------------
LOEWDIN ATOMIC CHARGES
----------------------
   0 C :   -0.081841
   1 O :   -0.132199
   2 P :    0.798355
   3 O :   -0.515582
   4 C :   -0.081881
   5 O :   -0.132164
   6 C :   -0.081924
   7 O :   -0.132059
   8 H :    0.027702
   9 H :    0.020764
  10 H :    0.071247
  11 H :    0.020768
  12 H :    0.027693
  13 H :    0.071252
  14 H :    0.020788
  15 H :    0.027716
  16 H :    0.071366

-------------------------------
LOEWDIN REDUCED ORBITAL CHARGES
-------------------------------
  0 C s       :     2.910208  s :     2.910208
      pz      :     1.014467  p :     3.046955
      px      :     1.020597
      py      :     1.011891
      dz2     :     0.019768  d :     0.124678
      dxz     :     0.028486
      dyz     :     0.024735
      dx2y2   :     0.028705
      dxy     :     0.022984

  1 O s       :     3.467277  s :     3.467277
      pz      :     1.290556  p :     4.640485
      px      :     1.662486
      py      :     1.687442
      dz2     :     0.005959  d :     0.024437
      dxz     :     0.007449
      dyz     :     0.003781
      dx2y2   :     0.002619
      dxy     :     0.004629

  2 P s       :     5.014589  s :     5.014589
      pz      :     2.811517  p :     8.590696
      px      :     2.892640
      py      :     2.886540
      dz2     :     0.138795  d :     0.596360
      dxz     :     0.125447
      dyz     :     0.161590
      dx2y2   :     0.051916
      dxy     :     0.118612

  3 O s       :     3.674679  s :     3.674679
      pz      :     1.491313  p :     4.823583
      px      :     1.673008
      py      :     1.659262
      dz2     :     0.008075  d :     0.017320
      dxz     :     0.003528
      dyz     :     0.004693
      dx2y2   :     0.000527
      dxy     :     0.000497

  4 C s       :     2.910223  s :     2.910223
      pz      :     0.932238  p :     3.046981
      px      :     1.092957
      py      :     1.021787
      dz2     :     0.032239  d :     0.124676
      dxz     :     0.016116
      dyz     :     0.036280
      dx2y2   :     0.007894
      dxy     :     0.032146

  5 O s       :     3.467262  s :     3.467262
      pz      :     1.276978  p :     4.640463
      px      :     1.788947
      py      :     1.574537
      dz2     :     0.003164  d :     0.024439
      dxz     :     0.002890
      dyz     :     0.012866
      dx2y2   :     0.002614
      dxy     :     0.002904

  6 C s       :     2.910188  s :     2.910188
      pz      :     1.058508  p :     3.047048
      px      :     0.956736
      py      :     1.031805
      dz2     :     0.030820  d :     0.124688
      dxz     :     0.016779
      dyz     :     0.012027
      dx2y2   :     0.036602
      dxy     :     0.028459

  7 O s       :     3.467206  s :     3.467206
      pz      :     1.403739  p :     4.640410
      px      :     1.562915
      py      :     1.673756
      dz2     :     0.006900  d :     0.024443
      dxz     :     0.006073
      dyz     :     0.002040
      dx2y2   :     0.003653
      dxy     :     0.005777

  8 H s       :     0.905913  s :     0.905913
      pz      :     0.034506  p :     0.066385
      px      :     0.018044
      py      :     0.013835

  9 H s       :     0.911050  s :     0.911050
      pz      :     0.013980  p :     0.068185
      px      :     0.036537
      py      :     0.017669

 10 H s       :     0.748746  s :     0.748746
      pz      :     0.084713  p :     0.180007
      px      :     0.050499
      py      :     0.044795

 11 H s       :     0.911056  s :     0.911056
      pz      :     0.009741  p :     0.068175
      px      :     0.036814
      py      :     0.021621

 12 H s       :     0.905923  s :     0.905923
      pz      :     0.029384  p :     0.066384
      px      :     0.013938
      py      :     0.023061

 13 H s       :     0.748744  s :     0.748744
      pz      :     0.057898  p :     0.180004
      px      :     0.055720
      py      :     0.066386

 14 H s       :     0.911025  s :     0.911025
      pz      :     0.014688  p :     0.068187
      px      :     0.011500
      py      :     0.041999

 15 H s       :     0.905900  s :     0.905900
      pz      :     0.042835  p :     0.066385
      px      :     0.011867
      py      :     0.011683

 16 H s       :     0.748694  s :     0.748694
      pz      :     0.087261  p :     0.179940
      px      :     0.045844
      py      :     0.046835



                      *****************************
                      * MAYER POPULATION ANALYSIS *
                      *****************************

  NA   - Mulliken gross atomic population
  ZA   - Total nuclear charge
  QA   - Mulliken gross atomic charge
  VA   - Mayer's total valence
  BVA  - Mayer's bonded valence
  FA   - Mayer's free valence

  ATOM       NA         ZA         QA         VA         BVA        FA
  0 C      5.9350     6.0000     0.0650     3.8681     3.8681    -0.0000
  1 O      8.2850     8.0000    -0.2850     2.1479     2.1479    -0.0000
  2 P     14.6789    15.0000     0.3211     4.7791     4.7791    -0.0000
  3 O      8.5226     8.0000    -0.5226     2.0634     2.0634    -0.0000
  4 C      5.9352     6.0000     0.0648     3.8681     3.8681    -0.0000
  5 O      8.2850     8.0000    -0.2850     2.1479     2.1479    -0.0000
  6 C      5.9353     6.0000     0.0647     3.8680     3.8680    -0.0000
  7 O      8.2849     8.0000    -0.2849     2.1480     2.1480    -0.0000
  8 H      0.9441     1.0000     0.0559     0.9764     0.9764    -0.0000
  9 H      0.9457     1.0000     0.0543     0.9858     0.9858    -0.0000
 10 H      0.8229     1.0000     0.1771     1.0538     1.0538    -0.0000
 11 H      0.9456     1.0000     0.0544     0.9857     0.9857    -0.0000
 12 H      0.9442     1.0000     0.0558     0.9764     0.9764     0.0000
 13 H      0.8229     1.0000     0.1771     1.0537     1.0537    -0.0000
 14 H      0.9456     1.0000     0.0544     0.9858     0.9858    -0.0000
 15 H      0.9442     1.0000     0.0558     0.9764     0.9764     0.0000
 16 H      0.8229     1.0000     0.1771     1.0535     1.0535    -0.0000

  Mayer bond orders larger than 0.100000
B(  0-C ,  1-O ) :   1.0552 B(  0-C ,  2-P ) :   0.9026 B(  0-C ,  8-H ) :   0.9286 
B(  0-C ,  9-H ) :   0.9093 B(  1-O , 10-H ) :   0.9344 B(  2-P ,  3-O ) :   1.6721 
B(  2-P ,  4-C ) :   0.9026 B(  2-P ,  6-C ) :   0.9026 B(  4-C ,  5-O ) :   1.0551 
B(  4-C , 11-H ) :   0.9094 B(  4-C , 12-H ) :   0.9285 B(  5-O , 13-H ) :   0.9344 
B(  6-C ,  7-O ) :   1.0550 B(  6-C , 14-H ) :   0.9093 B(  6-C , 15-H ) :   0.9285 
B(  7-O , 16-H ) :   0.9346 

-------
TIMINGS
-------

Total SCF time: 0 days 0 hours 0 min 1 sec 

Total time                  ....       1.900 sec
Sum of individual times     ....       1.858 sec  ( 97.8%)

SCF preparation             ....       0.083 sec  (  4.4%)
Fock matrix formation       ....       1.491 sec  ( 78.5%)
  Startup                   ....       0.022 sec  (  1.5% of F)
  Split-RI-J                ....       0.375 sec  ( 25.2% of F)
  XC integration            ....       0.988 sec  ( 66.3% of F)
    Basis function eval.    ....       0.258 sec  ( 26.1% of XC)
    Density eval.           ....       0.191 sec  ( 19.3% of XC)
    XC-Functional eval.     ....       0.045 sec  (  4.6% of XC)
    XC-Potential eval.      ....       0.196 sec  ( 19.8% of XC)
Diagonalization             ....       0.000 sec  (  0.0%)
Density matrix formation    ....       0.031 sec  (  1.6%)
Total Energy calculation    ....       0.053 sec  (  2.8%)
Population analysis         ....       0.042 sec  (  2.2%)
Orbital Transformation      ....       0.009 sec  (  0.5%)
Orbital Orthonormalization  ....       0.000 sec  (  0.0%)
DIIS solution               ....       0.066 sec  (  3.5%)
SOSCF solution              ....       0.083 sec  (  4.4%)
Finished LeanSCF after   1.9 sec

Maximum memory used throughout the entire LEANSCF-calculation: 16.1 MB


-------------------------------------------------------------------------------
                          DFT DISPERSION CORRECTION                            
                                                                               
                              DFTD3 V3.1  Rev 1                                
                          USING Becke-Johnson damping                          
-------------------------------------------------------------------------------
The BP86 functional is recognized
Active option DFTDOPT                   ...         4   

molecular C6(AA) [au] = 2878.775391 


            DFT-D V3
 parameters
 s6 scaling factor         :     1.0000 
 a1 scaling factor         :     0.3946 
 s8 scaling factor         :     3.2822 
 a2 scaling factor         :     4.8516 
 ad hoc parameters k1-k3   :    16.0000     1.3333    -4.0000 

 Edisp/kcal,au: -16.277342386659  -0.025939593461 
 E6   /kcal   :  -6.034274668 
 E8   /kcal   : -10.243067718 
 % E8         :  62.928379062 

-------------------------   ----------------
Dispersion correction           -0.025939593
-------------------------   ----------------


-------------------------   --------------------
FINAL SINGLE POINT ENERGY      -761.622520348722
-------------------------   --------------------

                                *** OPTIMIZATION RUN DONE ***



           ************************************************************
           *        Program running with 6 parallel MPI-processes     *
           *              working on a common directory               *
           ************************************************************

------------------------------------------------------------------------------
                              ORCA PROPERTY CALCULATIONS
------------------------------------------------------------------------------

GBWName                                 ... data/geom_opt_PO_BP86/76001/76001.gbw
Number of atoms                         ...     17
Number of basis functions               ...    161
Max core memory                         ...   1024 MB

Electric properties:
Dipole moment                           ... YES
Quadrupole moment                       ...  NO
Static polarizability (Dipole/Dipole)   ...  NO
Static polarizability (Dipole/Quad.)    ...  NO
Static polarizability (Quad./Quad.)     ...  NO
Static polarizability (Velocity)        ...  NO

Atomic electric properties:
Dipole moment                           ...  NO
Quadrupole moment                       ...  NO
Static polarizability                   ...  NO

Choice of electric origin               ... Center of mass
Position of electric origin             ...     0.065896     0.130573    -0.203713

General magnetic properties:
Magnetizability                         ...  NO

EPR properties:
g-Tensor (aka g-matrix)                 ...  NO
Zero-Field splitting spin-orbit         ...  NO
Zero-field splitting spin-spin          ...  NO
Hyperfine couplings                     ...  NO (   0 nuclei)
Quadrupole couplings                    ...  NO (   0 nuclei)
Contact density                         ...  NO (   0 nuclei)

NMR properties:
Chemical shifts                         ...  NO (   0 nuclei)
Spin-rotation constants                 ...  NO (   0 nuclei)
Spin-spin couplings                     ...  NO (   0 nuclei,    0 pairs)

Choice of magnetic origin               ... GIAO
Position of magnetic origin             ...     0.000000     0.000000     0.000000

Properties with geometric perturbations:
SCF Hessian                             ...  NO
IR spectrum                             ...  NO
VCD spectrum                            ...  NO
X-ray spectroscopy properties:
SCF XES/XAS/RIXS spectra                ...  NO


-------------
DIPOLE MOMENT
-------------

Method             : SCF
Type of density    : Electron Density
Multiplicity       :   1
Irrep              :   0
Energy             :  -761.5965807552602200 Eh
Relativity type    : 
Basis              : AO
                                X                 Y                 Z
Electronic contribution:      0.369395091       0.730920151      -2.326015281
Nuclear contribution   :     -0.513647708      -1.018621212       3.239730402
                        -----------------------------------------
Total Dipole Moment    :     -0.144252617      -0.287701061       0.913715121
                        -----------------------------------------
Magnitude (a.u.)       :      0.968739408
Magnitude (Debye)      :      2.462339889



--------------------
Rotational spectrum 
--------------------
 
Rotational constants in cm-1:             0.055511             0.055481             0.035269 
Rotational constants in MHz :          1664.191533          1663.266681          1057.337666 

Dipole components along the rotational axes: 
x,y,z [a.u.] :    -0.000663     0.002216     0.968737 
x,y,z [Debye]:    -0.001685     0.005632     2.462333 

 

Dipole moment calculation done in   0.0 sec 

Maximum memory used throughout the entire PROP-calculation: 8.1 MB

--------------------------------
SUGGESTED CITATIONS FOR THIS RUN
--------------------------------

Below you find a list of papers that are relevant to this ORCA run
We neither can nor want to force you to cite these papers, but we appreciate if you do
You receive ORCA, which is the product of decades of hard work by many enthusiastic individuals, for free
The only thing we kindly ask in return is that you cite our papers,
We deeply appreciate it, if you show your appreciation for ORCA by not just citing the generic ORCA reference.

Please note that relegating all ORCA citations to the supporting information does *not* help us.
SI sections are not indexed - citations you put there will not count into any citation statistics
But we need these citations in order to attract the funding resources that allow us to do what we are doing

Therefore, if you are a happy ORCA user, please consider citing a few of the papers listed below in the main body of your paper

In addition to the list printed below, the program has created the file data/geom_opt_PO_BP86/76001/76001.bibtex that contains the list in bibtex format
You can import this file easily into all common literature databanks and citation aid programs


List of essential papers. We consider these as the minimum necessary citations

  1. Neese,F.
     Software update: the ORCA program system, version 5.0
     WIRES Comput. Molec. Sci., 2022 12(1)e1606
     doi.org/10.1002/wcms.1606

List of papers to cite with high priority. The work reported in these papers was absolutely
necessary for this run to complete.
Our perspective: the developers of density functionals and basis sets usually get cited in chemistry papers
Good! But without the algorithms to do something with them, the functionals or basis sets would not do anything.
Hence, in our opinion, the algorithm design and method developments papers are equally worthy of getting cited

  1. Neese,F.
     An improvement of the resolution of the identity approximation for the formation of the Coulomb matrix
     J. Comp. Chem., 2003 24(14)1740-1747
     doi.org/10.1002/jcc.10318
  2. Neese,F.
     The SHARK Integral Generation and Digestion System
     J. Comp. Chem., 2022  1-16
     doi.org/10.1002/jcc.26942
  3. Grimme,S.; Antony,J.; Ehrlich,S.; Krieg,H.
     A consistent and accurate ab initio parametrization of density functional dispersion correction (DFT-D) for the 94 elements H-Pu
     J. Chem. Phys., 2010 132 154104-XXXX
     doi.org/10.1063/1.3382344
  4. Grimme,S.; Ehrlich,S.; Goerigk,L.
     Effect of the damping function in dispersion corrected density functional theory
     J. Comput. Chem., 2011 32(7)1456-1465
     doi.org/10.1002/jcc.21759

List of suggested additional citations. These are papers that are important in the 'surrounding' of 
of this run, or papers that preceded the highly important papers. If you like your results we are grateful for a citation.

  1. Neese,F.
     The ORCA program system
     WIRES Comput. Molec. Sci., 2012 2(1)73-78
     doi.org/10.1002/wcms.81
  2. Neese,F.
     Software update: the ORCA program system, version 4.0
     WIRES Comput. Molec. Sci., 2018 8(1)1-6
     doi.org/10.1002/wcms.1327
  3. Neese,F.; Wennmohs,F.; Becker,U.; Riplinger,C.
     The ORCA quantum chemistry program package
     J. Chem. Phys., 2020 152 Art. No. L224108
     doi.org/10.1063/5.0004608

List of optional additional citations

  1. Neese,F.
     Approximate second-order SCF convergence for spin unrestricted wavefunctions
     Chem. Phys. Lett., 2000 325(1-3)93-98
     doi.org/10.1016/s0009-2614(00)00662-x

Timings for individual modules:

Sum of individual times          ...       49.067 sec (=   0.818 min)
Startup calculation              ...        6.127 sec (=   0.102 min)  12.5 %
SCF iterations                   ...       27.153 sec (=   0.453 min)  55.3 %
Property calculations            ...        0.131 sec (=   0.002 min)   0.3 %
SCF Gradient evaluation          ...       15.592 sec (=   0.260 min)  31.8 %
Geometry relaxation              ...        0.064 sec (=   0.001 min)   0.1 %
                             ****ORCA TERMINATED NORMALLY****
TOTAL RUN TIME: 0 days 0 hours 0 minutes 51 seconds 59 msec
