
                                 *****************
                                 * O   R   C   A *
                                 *****************

                                            #,                                       
                                            ###                                      
                                            ####                                     
                                            #####                                    
                                            ######                                   
                                           ########,                                 
                                     ,,################,,,,,                         
                               ,,#################################,,                 
                          ,,##########################################,,             
                       ,#########################################, ''#####,          
                    ,#############################################,,   '####,        
                  ,##################################################,,,,####,       
                ,###########''''           ''''###############################       
              ,#####''   ,,,,##########,,,,          '''####'''          '####       
            ,##' ,,,,###########################,,,                        '##       
           ' ,,###''''                  '''############,,,                           
         ,,##''                                '''############,,,,        ,,,,,,###''
      ,#''                                            '''#######################'''  
     '                                                          ''''####''''         
             ,#######,   #######,   ,#######,      ##                                
            ,#'     '#,  ##    ##  ,#'     '#,    #''#        ,####,   ,####,        
            ##       ##  ##   ,#'  ##            #'  '#       #'       #'  '#        
            ##       ##  #######   ##           ,######,      #####,   #    #        
            '#,     ,#'  ##    ##  '#,     ,#' ,#      #,     #,   #   #,  ,#        
             '#######'   ##     ##  '#######'  #'      '#     '####' # '####'        



                #########################################################
                #                        -***-                          #
                #          Department of theory and spectroscopy        #
                #                                                       #
                #                      Frank Neese                      #
                #                                                       #
                #     Directorship, Architecture, Infrastructure        #
                #                    SHARK, DRIVERS                     #
                #        Core code/Algorithms in most modules           #
                #                                                       #
                #        Max Planck Institute fuer Kohlenforschung      #
                #                Kaiser Wilhelm Platz 1                 #
                #                 D-45470 Muelheim/Ruhr                 #
                #                      Germany                          #
                #                                                       #
                #                  All rights reserved                  #
                #                        -***-                          #
                #########################################################


                         Program Version 6.0.0  -   RELEASE   -


 With contributions from (in alphabetic order):
   Daniel Aravena         : Magnetic Suceptibility
   Michael Atanasov       : Ab Initio Ligand Field Theory (pilot matlab implementation)
   Alexander A. Auer      : GIAO ZORA, VPT2 properties, NMR spectrum
   Ute Becker             : All parallelization in ORCA, NUMFREQ, NUMCALC
   Giovanni Bistoni       : ED, misc. LED, open-shell LED, HFLD
   Martin Brehm           : Molecular dynamics
   Dmytro Bykov           : pre 5.0 version of the SCF Hessian
   Marcos Casanova-Páez   : Triplet and SCS-CIS(D). UHF-(DLPNO)-IP/EA/STEOM-CCSD. UHF-CVS-IP/STEOM-CCSD
   Vijay G. Chilkuri      : MRCI spin determinant printing, contributions to CSF-ICE
   Pauline Colinet        : FMM embedding
   Dipayan Datta          : RHF DLPNO-CCSD density
   Achintya Kumar Dutta   : EOM-CC, STEOM-CC
   Nicolas Foglia         : Exact transition moments, OPA infrastructure, MCD improvements
   Dmitry Ganyushin       : Spin-Orbit,Spin-Spin,Magnetic field MRCI
   Miquel Garcia          : C-PCM and meta-GGA Hessian, CCSD/C-PCM, Gaussian charge scheme
   Tiago L. C. Gouveia    : GS-ROHF, GS-ROCIS
   Yang Guo               : DLPNO-NEVPT2, F12-NEVPT2, CIM, IAO-localization
   Andreas Hansen         : Spin unrestricted coupled pair/coupled cluster methods
   Ingolf Harden          : AUTO-CI MPn and infrastructure 
   Benjamin Helmich-Paris : MC-RPA, TRAH-(SCF,CASSCF), AVAS, COSX integrals, SCF dyn. polar.
   Lee Huntington         : MR-EOM, pCC
   Robert Izsak           : Overlap fitted RIJCOSX, COSX-SCS-MP3, EOM
   Riya Kayal             : Wick's Theorem for AUTO-CI, AUTO-CI UHF-CCSDT
   Emily Kempfer          : AUTO-CI, RHF CISDT and CCSDT
   Christian Kollmar      : KDIIS, OOCD, Brueckner-CCSD(T), CCSD density, CASPT2, CASPT2-K, improved NEVPT2
   Axel Koslowski         : Symmetry handling
   Simone Kossmann        : Meta GGA functionals, TD-DFT gradient, OOMP2, (MP2 Hessian; deprecated post 5.0)
   Lucas Lang             : DCDCAS
   Marvin Lechner         : AUTO-CI (C++ implementation), FIC-MRCC
   Spencer Leger          : CASSCF response
   Dagmar Lenk            : GEPOL surface, SMD, ORCA-2-JSON
   Dimitrios Liakos       : Extrapolation schemes; Compound Job, initial MDCI parallelization
   Dimitrios Manganas     : Further ROCIS development; embedding schemes. LFT, Crystal Embedding
   Dimitrios Pantazis     : SARC Basis sets
   Anastasios Papadopoulos: AUTO-CI, single reference methods and gradients
   Taras Petrenko         : pre 6.0 DFT Hessian and TD-DFT gradient, (ASA, deprecated), ECA, 1-Electron XAS/XES, NRVS
   Peter Pinski           : DLPNO-MP2, DLPNO-MP2 Gradient
   Christoph Reimann      : Effective Core Potentials
   Marius Retegan         : Local ZFS, SOC
   Christoph Riplinger    : Optimizer, TS searches, QM/MM, DLPNO-CCSD(T), (RO)-DLPNO pert. Triples
   Michael Roemelt        : Original ROCIS implementation
   Masaaki Saitow         : Open-shell DLPNO-CCSD energy and density
   Barbara Sandhoefer     : DKH picture change effects
   Kantharuban Sivalingam : CASSCF convergence/infrastructure, NEVPT2 and variants, FIC-MRCI
   Bernardo de Souza      : ESD, SOC TD-DFT
   Georgi Stoychev        : AutoAux, RI-MP2 NMR, DLPNO-MP2 response, X2C
   Van Anh Tran           : RI-MP2 g-tensors
   Willem Van den Heuvel  : Paramagnetic NMR
   Zikuan Wang            : NOTCH, Electric field optimization 
   Frank Wennmohs         : Technical directorship and infrastructure
   Hang Xu                : AUTO-CI-Response properties 


 We gratefully acknowledge several colleagues who have allowed us to
 interface, adapt or use parts of their codes:
   Stefan Grimme, W. Hujo, H. Kruse, P. Pracht,  : VdW corrections, initial TS optimization,
                  C. Bannwarth, S. Ehlert,         DFT functionals, gCP, sTDA/sTD-DF
                  L. Wittmann, M. Mueller
   Ed Valeev, F. Pavosevic, A. Kumar             : LibInt (2-el integral package), F12 methods
   Garnet Chan, S. Sharma, J. Yang, R. Olivares  : DMRG
   Ulf Ekstrom                                   : XCFun DFT Library
   Mihaly Kallay                                 : mrcc  (arbitrary order and MRCC methods)
   Frank Weinhold                                : gennbo (NPA and NBO analysis)
   Simon Mueller                                 : openCOSMO-RS
   Christopher J. Cramer and Donald G. Truhlar   : smd solvation model
   Lars Goerigk                                  : TD-DFT with DH, B97 family of functionals
   V. Asgeirsson, H. Jonsson                     : NEB implementation
   FAccTs GmbH                                   : IRC, NEB, NEB-TS, DLPNO-Multilevel, CI-OPT
                                                   MM, QMMM, 2- and 3-layer-ONIOM, Crystal-QMMM,
                                                   LR-CPCM, SF, NACMEs, symmetry and pop. for TD-DFT,
                                                   nearIR, NL-DFT gradient (VV10), updates on ESD,
                                                   ML-optimized integration grids, MBIS, APM,
                                                   GOAT, DOCKER, SOLVATOR, interface openCOSMO-RS
   S Lehtola, MJT Oliveira, MAL Marques          : LibXC Library
   Liviu Ungur et al                             : ANISO software


 Your calculation uses the libint2 library for the computation of 2-el integrals
 For citations please refer to: http://libint.valeyev.net

 Your ORCA version has been built with support for libXC version: 6.2.2
 For citations please refer to: https://libxc.gitlab.io

 This ORCA versions uses:
   CBLAS   interface :  Fast vector & matrix operations
   LAPACKE interface :  Fast linear algebra routines
   Shared memory     :  Shared parallel matrices


Your calculation utilizes the atom-pairwise dispersion correction
with the Becke-Johnson damping scheme (D3BJ)


Warning: RI is on but no J-basis has been assigned. Assigning Def2/J (nothing to worry about!)
================================================================================

----- Orbital basis set information -----
Your calculation utilizes the basis: def2-SVP
   F. Weigend and R. Ahlrichs, Phys. Chem. Chem. Phys. 7, 3297 (2005).

----- AuxJ basis set information -----
Your calculation utilizes the auxiliary basis: def2/J
   F. Weigend, Phys. Chem. Chem. Phys. 8, 1057 (2006).

================================================================================
                                        WARNINGS
                       Please study these warnings very carefully!
================================================================================


WARNING: Geometry Optimization
  ===> : Switching off AutoStart
         For restart on a previous wavefunction, please use MOREAD

================================================================================
                                       INPUT FILE
================================================================================
NAME = data/geom_opt/80970/80970.inp
|  1> ! RIJONX B3LYP def2-SVP D3BJ TIGHTSCF Opt
|  2> %pal
|  3> nprocs 6
|  4> end
|  5> 
|  6> * xyz 0 1
|  7> C      4.347487   -1.500709    0.366468
|  8> C      3.110497   -2.381526    0.490950
|  9> C      1.950506   -1.851809   -0.351575
| 10> C      1.610596   -0.389510   -0.005306
| 11> C      2.874450    0.482624   -0.148946
| 12> C      4.029911   -0.047849    0.698162
| 13> P      0.253404    0.256272   -1.097790
| 14> C     -1.208829   -0.817736   -0.695416
| 15> C     -1.589000   -0.902979    0.787786
| 16> C     -2.767229   -1.852885    1.009128
| 17> C     -3.973497   -1.459863    0.163114
| 18> C     -3.610642   -1.357249   -1.314205
| 19> C     -2.431140   -0.412050   -1.541034
| 20> C     -0.195720    1.879957   -0.420147
| 21> C     -0.666112    2.854679   -1.315217
| 22> C     -1.028082    4.129635   -0.871618
| 23> C     -0.922907    4.452726    0.477399
| 24> C     -0.455708    3.501442    1.379542
| 25> C     -0.093985    2.226204    0.933054
| 26> H      5.133202   -1.869655    1.035203
| 27> H      4.740764   -1.565038   -0.655530
| 28> H      3.353979   -3.403685    0.179633
| 29> H      2.802282   -2.433340    1.542522
| 30> H      1.084436   -2.502180   -0.184136
| 31> H      2.210573   -1.942994   -1.414767
| 32> H      1.290255   -0.359384    1.041202
| 33> H      2.672889    1.517376    0.151826
| 34> H      3.193261    0.521397   -1.199559
| 35> H      3.772759    0.038629    1.761045
| 36> H      4.920142    0.569767    0.533837
| 37> H     -0.923486   -1.825930   -1.022691
| 38> H     -1.868140    0.083212    1.175197
| 39> H     -0.745803   -1.255375    1.391093
| 40> H     -2.462450   -2.876871    0.760225
| 41> H     -3.045774   -1.851744    2.069061
| 42> H     -4.773961   -2.196163    0.296576
| 43> H     -4.364467   -0.495664    0.510713
| 44> H     -4.478697   -1.005487   -1.883128
| 45> H     -3.358986   -2.353152   -1.699166
| 46> H     -2.748378    0.609165   -1.294084
| 47> H     -2.178887   -0.413422   -2.609084
| 48> H     -0.755431    2.629425   -2.376523
| 49> H     -1.389816    4.867450   -1.582684
| 50> H     -1.203117    5.443416    0.824632
| 51> H     -0.371544    3.749125    2.434457
| 52> H      0.260395    1.511748    1.669778
| 53> **                         ****END OF INPUT****
================================================================================

                       *****************************
                       * Geometry Optimization Run *
                       *****************************

Geometry optimization settings:
Update method            Update   .... BFGS
Choice of coordinates    CoordSys .... (2022) Redundant Internals
Initial Hessian          InHess   .... Almloef's Model
Max. no of cycles        MaxIter  .... 138

Convergence Tolerances:
Energy Change            TolE     ....  5.0000e-06 Eh
Max. Gradient            TolMAXG  ....  3.0000e-04 Eh/bohr
RMS Gradient             TolRMSG  ....  1.0000e-04 Eh/bohr
Max. Displacement        TolMAXD  ....  4.0000e-03 bohr
RMS Displacement         TolRMSD  ....  2.0000e-03 bohr
Strict Convergence                .... False

------------------------------------------------------------------------------
                        ORCA OPTIMIZATION COORDINATE SETUP
------------------------------------------------------------------------------

The optimization will be done in redundant internal coordinates (2022)
Making redundant internal coordinates   ...  (2022 redundants) done
Evaluating the initial hessian          ...  (Almloef) done
Evaluating the coordinates              ...  done
Calculating the B-matrix                .... done
Calculating the G-matrix                .... done
Diagonalizing the G-matrix              .... done
Small eigenvalue found = 4.442e-03
Small eigenvalue found = 5.684e-03
Small eigenvalue found = 9.105e-03
Small eigenvalue found = 2.056e-02
Small eigenvalue found = 2.302e-02
The first mode is                       ....  119
The number of degrees of freedom        ....  132

    -----------------------------------------------------------------
                    Redundant Internal Coordinates


    -----------------------------------------------------------------
         Definition                    Initial Value    Approx d2E/dq
    -----------------------------------------------------------------
      1. B(C   1,C   0)                  1.5236         0.382406   
      2. B(C   2,C   1)                  1.5284         0.375767   
      3. B(C   3,C   2)                  1.5407         0.359174   
      4. B(C   4,C   3)                  1.5423         0.357118   
      5. B(C   5,C   0)                  1.5237         0.382314   
      6. B(C   5,C   4)                  1.5278         0.376647   
      7. B(P   6,C   3)                  1.8581         0.376195   
      8. B(C   7,P   6)                  1.8584         0.375824   
      9. B(C   8,C   7)                  1.5335         0.368775   
     10. B(C   9,C   8)                  1.5296         0.374186   
     11. B(C  10,C   9)                  1.5249         0.380654   
     12. B(C  11,C  10)                  1.5247         0.380940   
     13. B(C  12,C  11)                  1.5284         0.375745   
     14. B(C  12,C   7)                  1.5407         0.359201   
     15. B(C  13,P   6)                  1.8158         0.439376   
     16. B(C  14,C  13)                  1.4045         0.592478   
     17. B(C  15,C  14)                  1.3976         0.607570   
     18. B(C  16,C  15)                  1.3911         0.622164   
     19. B(C  17,C  16)                  1.3918         0.620702   
     20. B(C  18,C  17)                  1.3987         0.605091   
     21. B(C  18,C  13)                  1.4005         0.601163   
     22. B(H  19,C   0)                  1.0958         0.352569   
     23. B(H  20,C   0)                  1.0969         0.351031   
     24. B(H  21,C   1)                  1.0959         0.352371   
     25. B(H  22,C   1)                  1.0970         0.350913   
     26. B(H  23,C   2)                  1.0959         0.352321   
     27. B(H  24,C   2)                  1.0983         0.349249   
     28. B(H  25,C   3)                  1.0949         0.353736   
     29. B(H  26,C   4)                  1.0963         0.351904   
     30. B(H  27,C   4)                  1.0986         0.348896   
     31. B(H  28,C   5)                  1.0970         0.351007   
     32. B(H  29,C   5)                  1.0959         0.352399   
     33. B(H  30,C   7)                  1.0977         0.350034   
     34. B(H  31,C   8)                  1.0957         0.352626   
     35. B(H  32,C   8)                  1.0951         0.353476   
     36. B(H  33,C   9)                  1.0970         0.350969   
     37. B(H  34,C   9)                  1.0959         0.352350   
     38. B(H  35,C  10)                  1.0958         0.352559   
     39. B(H  36,C  10)                  1.0970         0.350985   
     40. B(H  37,C  11)                  1.0959         0.352419   
     41. B(H  38,C  11)                  1.0970         0.350993   
     42. B(H  39,C  12)                  1.0975         0.350315   
     43. B(H  40,C  12)                  1.0974         0.350397   
     44. B(H  41,C  14)                  1.0886         0.361934   
     45. B(H  42,C  15)                  1.0867         0.364541   
     46. B(H  43,C  16)                  1.0865         0.364715   
     47. B(H  44,C  17)                  1.0869         0.364271   
     48. B(H  45,C  18)                  1.0857         0.365802   
     49. A(C   1,C   0,H  19)          109.7332         0.324438   
     50. A(C   1,C   0,C   5)          111.3599         0.366253   
     51. A(C   5,C   0,H  20)          109.4788         0.324192   
     52. A(C   1,C   0,H  20)          109.4684         0.324205   
     53. A(H  19,C   0,H  20)          106.9643         0.288720   
     54. A(C   5,C   0,H  19)          109.7335         0.324425   
     55. A(C   0,C   1,H  21)          109.6099         0.324408   
     56. A(C   2,C   1,H  21)          109.5899         0.323476   
     57. A(C   0,C   1,H  22)          109.4944         0.324187   
     58. A(C   2,C   1,H  22)          109.3622         0.323257   
     59. A(H  21,C   1,H  22)          106.8980         0.288679   
     60. A(C   0,C   1,C   2)          111.7633         0.365172   
     61. A(C   1,C   2,H  24)          108.9733         0.323005   
     62. A(H  23,C   2,H  24)          106.6033         0.288458   
     63. A(C   3,C   2,H  23)          110.7661         0.321084   
     64. A(C   3,C   2,H  24)          110.4013         0.320625   
     65. A(C   1,C   2,C   3)          111.8695         0.361282   
     66. A(C   1,C   2,H  23)          108.0515         0.323469   
     67. A(C   2,C   3,H  25)          107.7877         0.321295   
     68. A(C   4,C   3,H  25)          108.2542         0.320993   
     69. A(P   6,C   3,H  25)          109.7989         0.343686   
     70. A(C   4,C   3,P   6)          110.3204         0.384108   
     71. A(C   2,C   3,P   6)          111.0307         0.384491   
     72. A(C   2,C   3,C   4)          109.5718         0.358163   
     73. A(C   5,C   4,H  27)          108.8462         0.323075   
     74. A(H  26,C   4,H  27)          106.4046         0.288359   
     75. A(C   3,C   4,H  27)          110.2939         0.320271   
     76. A(C   5,C   4,H  26)          108.3407         0.323530   
     77. A(C   3,C   4,C   5)          111.8258         0.361072   
     78. A(C   3,C   4,H  26)          110.9489         0.320721   
     79. A(C   0,C   5,H  29)          109.5981         0.324399   
     80. A(C   4,C   5,H  29)          109.6060         0.323605   
     81. A(C   0,C   5,C   4)          111.5926         0.365303   
     82. A(C   0,C   5,H  28)          109.5697         0.324188   
     83. A(C   4,C   5,H  28)          109.4255         0.323395   
     84. A(H  28,C   5,H  29)          106.9352         0.288695   
     85. A(C   7,P   6,C  13)          103.9667         0.424486   
     86. A(C   3,P   6,C   7)          104.2739         0.412902   
     87. A(C   3,P   6,C  13)          105.7842         0.424561   
     88. A(P   6,C   7,C  12)          110.6848         0.384431   
     89. A(C   8,C   7,H  30)          107.5626         0.322130   
     90. A(P   6,C   7,H  30)          105.1717         0.343024   
     91. A(C   8,C   7,C  12)          110.4144         0.360131   
     92. A(P   6,C   7,C   8)          115.8874         0.386195   
     93. A(C  12,C   7,H  30)          106.5248         0.320746   
     94. A(C   9,C   8,H  32)          108.2740         0.323419   
     95. A(C   7,C   8,H  32)          111.0915         0.322647   
     96. A(C   9,C   8,H  31)          108.1529         0.323291   
     97. A(C   7,C   8,H  31)          110.7993         0.322520   
     98. A(C   7,C   8,C   9)          111.4352         0.362651   
     99. A(H  31,C   8,H  32)          106.9185         0.289041   
    100. A(C   8,C   9,C  10)          111.6543         0.364622   
    101. A(C  10,C   9,H  34)          109.5882         0.324160   
    102. A(H  33,C   9,H  34)          106.9197         0.288684   
    103. A(C   8,C   9,H  34)          109.5784         0.323250   
    104. A(C  10,C   9,H  33)          109.5411         0.323951   
    105. A(C   8,C   9,H  33)          109.4421         0.323041   
    106. A(C   9,C  10,C  11)          111.5094         0.365740   
    107. A(H  35,C  10,H  36)          106.9578         0.288713   
    108. A(C  11,C  10,H  36)          109.4321         0.323993   
    109. A(C   9,C  10,H  36)          109.4313         0.323954   
    110. A(C  11,C  10,H  35)          109.6997         0.324232   
    111. A(C   9,C  10,H  35)          109.7009         0.324192   
    112. A(H  37,C  11,H  38)          106.9147         0.288696   
    113. A(C  12,C  11,H  38)          109.4095         0.323265   
    114. A(C  10,C  11,H  38)          109.4828         0.323995   
    115. A(C  12,C  11,H  37)          109.6172         0.323480   
    116. A(C  10,C  11,H  37)          109.6403         0.324210   
    117. A(C  10,C  11,C  12)          111.6585         0.364928   
    118. A(H  39,C  12,H  40)          106.6540         0.288349   
    119. A(C  11,C  12,H  40)          108.7260         0.323175   
    120. A(C   7,C  12,H  40)          110.5776         0.320801   
    121. A(C  11,C  12,H  39)          108.6006         0.323163   
    122. A(C   7,C  12,H  39)          110.5386         0.320789   
    123. A(C   7,C  12,C  11)          111.5893         0.361283   
    124. A(C  14,C  13,C  18)          117.9389         0.428161   
    125. A(P   6,C  13,C  18)          124.3110         0.432902   
    126. A(P   6,C  13,C  14)          117.7481         0.431771   
    127. A(C  13,C  14,C  15)          121.1698         0.428976   
    128. A(C  15,C  14,H  41)          118.4860         0.352004   
    129. A(C  13,C  14,H  41)          120.3442         0.350511   
    130. A(C  14,C  15,C  16)          120.0047         0.432759   
    131. A(C  16,C  15,H  42)          120.1335         0.353851   
    132. A(C  14,C  15,H  42)          119.8618         0.352432   
    133. A(C  15,C  16,C  17)          119.6827         0.434427   
    134. A(C  17,C  16,H  43)          120.1740         0.353739   
    135. A(C  15,C  16,H  43)          120.1432         0.353880   
    136. A(C  16,C  17,C  18)          120.2024         0.432258   
    137. A(C  18,C  17,H  44)          119.8394         0.352144   
    138. A(C  16,C  17,H  44)          119.9582         0.353666   
    139. A(C  13,C  18,C  17)          121.0008         0.429782   
    140. A(C  17,C  18,H  45)          117.8889         0.352394   
    141. A(C  13,C  18,H  45)          121.1086         0.352006   
    142. D(C   2,C   1,C   0,H  20)    -66.8153         0.011647   
    143. D(H  21,C   1,C   0,H  20)     54.8854         0.011647   
    144. D(C   2,C   1,C   0,H  19)    176.0825         0.011647   
    145. D(H  21,C   1,C   0,C   5)    176.0844         0.011647   
    146. D(C   2,C   1,C   0,C   5)     54.3838         0.011647   
    147. D(H  21,C   1,C   0,H  19)    -62.2168         0.011647   
    148. D(C   3,C   2,C   1,H  21)   -177.1203         0.011267   
    149. D(C   3,C   2,C   1,C   0)    -55.4081         0.011267   
    150. D(H  23,C   2,C   1,H  22)    -56.1819         0.011267   
    151. D(H  23,C   2,C   1,C   0)   -177.5922         0.011267   
    152. D(H  23,C   2,C   1,H  21)     60.6956         0.011267   
    153. D(C   3,C   2,C   1,H  22)     66.0022         0.011267   
    154. D(C   4,C   3,C   2,H  24)    -66.3670         0.010353   
    155. D(C   4,C   3,C   2,C   1)     55.1713         0.010353   
    156. D(C   4,C   3,C   2,H  23)    175.7883         0.010353   
    157. D(P   6,C   3,C   2,H  24)     55.7439         0.010353   
    158. D(P   6,C   3,C   2,H  23)    -62.1008         0.010353   
    159. D(P   6,C   3,C   2,C   1)    177.2822         0.010353   
    160. D(H  26,C   4,C   3,H  25)    -59.2096         0.010244   
    161. D(H  26,C   4,C   3,C   2)   -176.5108         0.010244   
    162. D(H  26,C   4,C   3,P   6)     60.9547         0.010244   
    163. D(C   5,C   4,C   3,H  25)     61.8735         0.010244   
    164. D(C   5,C   4,C   3,C   2)    -55.4277         0.010244   
    165. D(C   5,C   4,C   3,P   6)   -177.9622         0.010244   
    166. D(H  28,C   5,C   0,H  20)   -172.0223         0.011642   
    167. D(H  28,C   5,C   0,C   1)     66.7846         0.011642   
    168. D(C   4,C   5,C   0,H  20)     66.6250         0.011642   
    169. D(H  28,C   5,C   0,H  19)    -54.9139         0.011642   
    170. D(C   4,C   5,C   0,H  19)   -176.2666         0.011642   
    171. D(C   0,C   5,C   4,C   3)     55.8186         0.011317   
    172. D(C   4,C   5,C   0,C   1)    -54.5680         0.011642   
    173. D(H  28,C   5,C   4,H  27)    172.2767         0.011317   
    174. D(H  28,C   5,C   4,C   3)    -65.6177         0.011317   
    175. D(H  28,C   5,C   4,H  26)     56.9652         0.011317   
    176. D(C   0,C   5,C   4,H  27)    -66.2869         0.011317   
    177. D(C   0,C   5,C   4,H  26)    178.4016         0.011317   
    178. D(C  13,P   6,C   3,C   4)    -66.3037         0.003409   
    179. D(C  13,P   6,C   3,C   2)    172.0221         0.003409   
    180. D(C   7,P   6,C   3,H  25)    -56.3860         0.003409   
    181. D(C   7,P   6,C   3,C   4)   -175.6162         0.003409   
    182. D(C   7,P   6,C   3,C   2)     62.7095         0.003409   
    183. D(H  30,C   7,P   6,C   3)    -64.7964         0.003405   
    184. D(C  12,C   7,P   6,C  13)     69.8929         0.003405   
    185. D(C  12,C   7,P   6,C   3)   -179.4664         0.003405   
    186. D(C   8,C   7,P   6,C  13)    -56.8097         0.003405   
    187. D(C   8,C   7,P   6,C   3)     53.8310         0.003405   
    188. D(H  31,C   8,C   7,H  30)    179.0455         0.010876   
    189. D(H  31,C   8,C   7,C  12)    -65.0976         0.010876   
    190. D(H  31,C   8,C   7,P   6)     61.7406         0.010876   
    191. D(C   9,C   8,C   7,H  30)    -60.4791         0.010876   
    192. D(C   9,C   8,C   7,C  12)     55.3778         0.010876   
    193. D(C   9,C   8,C   7,P   6)   -177.7839         0.010876   
    194. D(H  33,C   9,C   8,H  32)    -56.5406         0.011178   
    195. D(H  33,C   9,C   8,H  31)   -172.0581         0.011178   
    196. D(H  33,C   9,C   8,C   7)     65.9238         0.011178   
    197. D(C  10,C   9,C   8,H  31)     66.4899         0.011178   
    198. D(C  10,C   9,C   8,C   7)    -55.5282         0.011178   
    199. D(C  10,C   9,C   8,H  32)   -177.9926         0.011178   
    200. D(H  35,C  10,C   9,H  33)     54.9608         0.011546   
    201. D(H  35,C  10,C   9,C   8)    176.3554         0.011546   
    202. D(C  11,C  10,C   9,H  34)    176.2211         0.011546   
    203. D(C  11,C  10,C   9,H  33)    -66.7725         0.011546   
    204. D(C  11,C  10,C   9,C   8)     54.6222         0.011546   
    205. D(H  35,C  10,C   9,H  34)    -62.0457         0.011546   
    206. D(H  37,C  11,C  10,H  36)    -54.8159         0.011563   
    207. D(H  37,C  11,C  10,H  35)     62.2378         0.011563   
    208. D(H  37,C  11,C  10,C   9)   -176.0283         0.011563   
    209. D(C  12,C  11,C  10,H  36)     66.8707         0.011563   
    210. D(C  12,C  11,C  10,H  35)   -176.0757         0.011563   
    211. D(C  12,C  11,C  10,C   9)    -54.3417         0.011563   
    212. D(H  39,C  12,C  11,H  38)    171.4809         0.011266   
    213. D(H  39,C  12,C  11,H  37)     54.5400         0.011266   
    214. D(H  39,C  12,C  11,C  10)    -67.1599         0.011266   
    215. D(C   7,C  12,C  11,H  38)    -66.4272         0.011266   
    216. D(C   7,C  12,C  11,H  37)    176.6319         0.011266   
    217. D(C   7,C  12,C  11,C  10)     54.9320         0.011266   
    218. D(H  39,C  12,C   7,H  30)   -177.7090         0.010355   
    219. D(H  39,C  12,C   7,C   8)     65.7870         0.010355   
    220. D(H  39,C  12,C   7,P   6)    -63.8921         0.010355   
    221. D(C  11,C  12,C   7,H  30)     61.3220         0.010355   
    222. D(C  11,C  12,C   7,C   8)    -55.1820         0.010355   
    223. D(C  11,C  12,C   7,P   6)    175.1389         0.010355   
    224. D(C  18,C  13,P   6,C   7)     79.5623         0.003907   
    225. D(C  18,C  13,P   6,C   3)    -29.9694         0.003907   
    226. D(C  14,C  13,P   6,C   7)   -100.9528         0.003907   
    227. D(C  14,C  13,P   6,C   3)    149.5155         0.003907   
    228. D(H  41,C  14,C  13,C  18)    179.6583         0.024167   
    229. D(H  41,C  14,C  13,P   6)      0.1398         0.024167   
    230. D(C  15,C  14,C  13,C  18)     -0.2867         0.024167   
    231. D(C  15,C  14,C  13,P   6)   -179.8052         0.024167   
    232. D(H  42,C  15,C  14,H  41)      0.0772         0.025483   
    233. D(H  42,C  15,C  14,C  13)   -179.9768         0.025483   
    234. D(C  16,C  15,C  14,H  41)   -179.8183         0.025483   
    235. D(C  16,C  15,C  14,C  13)      0.1277         0.025483   
    236. D(H  43,C  16,C  15,H  42)      0.0677         0.026797   
    237. D(H  43,C  16,C  15,C  14)    179.9629         0.026797   
    238. D(C  17,C  16,C  15,H  42)   -179.8609         0.026797   
    239. D(C  17,C  16,C  15,C  14)      0.0343         0.026797   
    240. D(H  44,C  17,C  16,H  43)      0.0584         0.026663   
    241. D(H  44,C  17,C  16,C  15)    179.9870         0.026663   
    242. D(C  18,C  17,C  16,H  43)   -179.9577         0.026663   
    243. D(C  18,C  17,C  16,C  15)     -0.0291         0.026663   
    244. D(H  45,C  18,C  17,H  44)      0.3172         0.025264   
    245. D(H  45,C  18,C  17,C  16)   -179.6667         0.025264   
    246. D(C  13,C  18,C  17,H  44)    179.8454         0.025264   
    247. D(C  13,C  18,C  17,C  16)     -0.1385         0.025264   
    248. D(H  45,C  18,C  13,C  14)    179.8045         0.024919   
    249. D(H  45,C  18,C  13,P   6)     -0.7115         0.024919   
    250. D(C  17,C  18,C  13,C  14)      0.2915         0.024919   
    251. D(C  17,C  18,C  13,P   6)    179.7756         0.024919   
    -----------------------------------------------------------------

Number of atoms                         .... 46
Number of degrees of freedom            .... 251


         *************************************************************
         *                GEOMETRY OPTIMIZATION CYCLE   1            *
         *************************************************************
---------------------------------
CARTESIAN COORDINATES (ANGSTROEM)
---------------------------------
  C      4.347487   -1.500709    0.366468
  C      3.110497   -2.381526    0.490950
  C      1.950506   -1.851809   -0.351575
  C      1.610596   -0.389510   -0.005306
  C      2.874450    0.482624   -0.148946
  C      4.029911   -0.047849    0.698162
  P      0.253404    0.256272   -1.097790
  C     -1.208829   -0.817736   -0.695416
  C     -1.589000   -0.902979    0.787786
  C     -2.767229   -1.852885    1.009128
  C     -3.973497   -1.459863    0.163114
  C     -3.610642   -1.357249   -1.314205
  C     -2.431140   -0.412050   -1.541034
  C     -0.195720    1.879957   -0.420147
  C     -0.666112    2.854679   -1.315217
  C     -1.028082    4.129635   -0.871618
  C     -0.922907    4.452726    0.477399
  C     -0.455708    3.501442    1.379542
  C     -0.093985    2.226204    0.933054
  H      5.133202   -1.869655    1.035203
  H      4.740764   -1.565038   -0.655530
  H      3.353979   -3.403685    0.179633
  H      2.802282   -2.433340    1.542522
  H      1.084436   -2.502180   -0.184136
  H      2.210573   -1.942994   -1.414767
  H      1.290255   -0.359384    1.041202
  H      2.672889    1.517376    0.151826
  H      3.193261    0.521397   -1.199559
  H      3.772759    0.038629    1.761045
  H      4.920142    0.569767    0.533837
  H     -0.923486   -1.825930   -1.022691
  H     -1.868140    0.083212    1.175197
  H     -0.745803   -1.255375    1.391093
  H     -2.462450   -2.876871    0.760225
  H     -3.045774   -1.851744    2.069061
  H     -4.773961   -2.196163    0.296576
  H     -4.364467   -0.495664    0.510713
  H     -4.478697   -1.005487   -1.883128
  H     -3.358986   -2.353152   -1.699166
  H     -2.748378    0.609165   -1.294084
  H     -2.178887   -0.413422   -2.609084
  H     -0.755431    2.629425   -2.376523
  H     -1.389816    4.867450   -1.582684
  H     -1.203117    5.443416    0.824632
  H     -0.371544    3.749125    2.434457
  H      0.260395    1.511748    1.669778

----------------------------
CARTESIAN COORDINATES (A.U.)
----------------------------
  NO LB      ZA    FRAG     MASS         X           Y           Z
   0 C     6.0000    0    12.011    8.215560   -2.835929    0.692524
   1 C     6.0000    0    12.011    5.877987   -4.500432    0.927761
   2 C     6.0000    0    12.011    3.685922   -3.499412   -0.664380
   3 C     6.0000    0    12.011    3.043585   -0.736067   -0.010027
   4 C     6.0000    0    12.011    5.431923    0.912027   -0.281467
   5 C     6.0000    0    12.011    7.615428   -0.090422    1.319335
   6 P    15.0000    0    30.974    0.478864    0.484284   -2.074522
   7 C     6.0000    0    12.011   -2.284356   -1.545297   -1.314146
   8 C     6.0000    0    12.011   -3.002775   -1.706383    1.488700
   9 C     6.0000    0    12.011   -5.229305   -3.501445    1.906976
  10 C     6.0000    0    12.011   -7.508821   -2.758741    0.308241
  11 C     6.0000    0    12.011   -6.823125   -2.564829   -2.483488
  12 C     6.0000    0    12.011   -4.594189   -0.778662   -2.912132
  13 C     6.0000    0    12.011   -0.369857    3.552604   -0.793963
  14 C     6.0000    0    12.011   -1.258769    5.394562   -2.485400
  15 C     6.0000    0    12.011   -1.942793    7.803879   -1.647119
  16 C     6.0000    0    12.011   -1.744041    8.414433    0.902153
  17 C     6.0000    0    12.011   -0.861163    6.616766    2.606957
  18 C     6.0000    0    12.011   -0.177606    4.206916    1.763217
  19 H     1.0000    0     1.008    9.700346   -3.533136    1.956250
  20 H     1.0000    0     1.008    8.958746   -2.957493   -1.238772
  21 H     1.0000    0     1.008    6.338102   -6.432032    0.339457
  22 H     1.0000    0     1.008    5.295546   -4.598346    2.914944
  23 H     1.0000    0     1.008    2.049287   -4.728435   -0.347967
  24 H     1.0000    0     1.008    4.177378   -3.671727   -2.673522
  25 H     1.0000    0     1.008    2.438229   -0.679137    1.967587
  26 H     1.0000    0     1.008    5.051028    2.867425    0.286910
  27 H     1.0000    0     1.008    6.034389    0.985298   -2.266838
  28 H     1.0000    0     1.008    7.129481    0.072998    3.327893
  29 H     1.0000    0     1.008    9.297721    1.076704    1.008806
  30 H     1.0000    0     1.008   -1.745136   -3.450508   -1.932606
  31 H     1.0000    0     1.008   -3.530273    0.157248    2.220800
  32 H     1.0000    0     1.008   -1.409363   -2.372315    2.628785
  33 H     1.0000    0     1.008   -4.653356   -5.436498    1.436617
  34 H     1.0000    0     1.008   -5.755679   -3.499289    3.909959
  35 H     1.0000    0     1.008   -9.021479   -4.150147    0.560447
  36 H     1.0000    0     1.008   -8.247647   -0.936669    0.965108
  37 H     1.0000    0     1.008   -8.463511   -1.900095   -3.558596
  38 H     1.0000    0     1.008   -6.347564   -4.446813   -3.210958
  39 H     1.0000    0     1.008   -5.193682    1.151155   -2.445464
  40 H     1.0000    0     1.008   -4.117500   -0.781254   -4.930454
  41 H     1.0000    0     1.008   -1.427558    4.968893   -4.490978
  42 H     1.0000    0     1.008   -2.626372    9.198147   -2.990839
  43 H     1.0000    0     1.008   -2.273562   10.286565    1.558329
  44 H     1.0000    0     1.008   -0.702116    7.084819    4.600457
  45 H     1.0000    0     1.008    0.492075    2.856790    3.155423

--------------------------------
INTERNAL COORDINATES (ANGSTROEM)
--------------------------------
 C      0   0   0     0.000000000000     0.00000000     0.00000000
 C      1   0   0     1.523639923313     0.00000000     0.00000000
 C      2   1   0     1.528406881624   111.76329196     0.00000000
 C      3   2   1     1.540700942384   111.86954641   304.59193879
 C      4   3   2     1.542263627553   109.57177099    55.17129208
 C      1   2   3     1.523705222480   111.35986205    54.38375141
 P      4   3   2     1.858097361993   111.03066599   177.28215179
 C      7   4   3     1.858365778373   104.27388963    62.70950995
 C      8   7   4     1.533520306711   115.88740065    53.83098645
 C      9   8   7     1.529554597339   111.43516368   182.21605365
 C     10   9   8     1.524889657813   111.65425445   304.47180735
 C     11  10   9     1.524685151689   111.50940193    54.62216566
 C     12  11  10     1.528423211302   111.65854128   305.65826830
 C      7   4   3     1.815837377644   105.78421663   172.02205457
 C     14   7   4     1.404457872579   117.74813449   149.51554094
 C     15  14   7     1.397610516430   121.16983132   180.19483008
 C     16  15  14     1.391149323831   120.00465319     0.12772613
 C     17  16  15     1.391789548282   119.68269258     0.03428122
 C     18  17  16     1.398723353461   120.20241162   359.97089554
 H      1   2   3     1.095753490693   109.73318575   176.08252444
 H      1   2   3     1.096943449305   109.46839847   293.18467548
 H      2   1   3     1.095906373781   109.60987125   121.70069236
 H      2   1   3     1.097034570105   109.49439745   238.66625710
 H      3   2   1     1.095945026569   108.05145268   182.40784914
 H      3   2   1     1.098329084372   108.97325351    66.94961018
 H      4   3   2     1.094853837835   107.78765094   297.57788384
 H      5   4   3     1.096267455601   110.94886931   183.48918640
 H      5   4   3     1.098604330512   110.29386261    65.84419817
 H      6   1   2     1.096962108405   109.56973425    66.78463823
 H      6   1   2     1.095884785204   109.59814725   183.83220194
 H      8   7   4     1.097717948705   105.17170314   295.20355795
 H      9   8   7     1.095709409927   110.79927820    61.74064738
 H      9   8   7     1.095054089018   111.09152267   303.04497877
 H     10   9   8     1.096991463251   109.44208627    65.92377783
 H     10   9   8     1.095922708677   109.57841422   182.86719390
 H     11  10   9     1.095761110252   109.70086823   176.35539847
 H     11  10   9     1.096978722356   109.43133171   293.40930308
 H     12  11  10     1.095869229241   109.64030948   183.97170008
 H     12  11  10     1.096972424114   109.48280185    66.97503384
 H     13  12  11     1.097499124086   108.60061323   292.84009678
 H     13  12  11     1.097435310573   108.72604004   177.15821342
 H     15  14   7     1.088617322071   120.34415733     0.13982836
 H     16  15  14     1.086663387318   119.86175369   180.02323085
 H     17  16  15     1.086533513744   120.14322983   179.96286822
 H     18  17  16     1.086865265159   119.95823121   179.98697380
 H     19  18  17     1.085723174899   117.88889503   180.33328149

---------------------------
INTERNAL COORDINATES (A.U.)
---------------------------
 C      0   0   0     0.000000000000     0.00000000     0.00000000
 C      1   0   0     2.879262181770     0.00000000     0.00000000
 C      2   1   0     2.888270427470   111.76329196     0.00000000
 C      3   2   1     2.911502835380   111.86954641   304.59193879
 C      4   3   2     2.914455882383   109.57177099    55.17129208
 C      1   2   3     2.879385579312   111.35986205    54.38375141
 P      4   3   2     3.511295144328   111.03066599   177.28215179
 C      7   4   3     3.511802377777   104.27388963    62.70950995
 C      8   7   4     2.897933400490   115.88740065    53.83098645
 C      9   8   7     2.890439295851   111.43516368   182.21605365
 C     10   9   8     2.881623837715   111.65425445   304.47180735
 C     11  10   9     2.881237377149   111.50940193    54.62216566
 C     12  11  10     2.888301286089   111.65854128   305.65826830
 C      7   4   3     3.431435347485   105.78421663   172.02205457
 C     14   7   4     2.654040745803   117.74813449   149.51554094
 C     15  14   7     2.641101117942   121.16983132   180.19483008
 C     16  15  14     2.628891233430   120.00465319     0.12772613
 C     17  16  15     2.630101082306   119.68269258     0.03428122
 C     18  17  16     2.643204075161   120.20241162   359.97089554
 H      1   2   3     2.070674007698   109.73318575   176.08252444
 H      1   2   3     2.072922703586   109.46839847   293.18467548
 H      2   1   3     2.070962914865   109.60987125   121.70069236
 H      2   1   3     2.073094896942   109.49439745   238.66625710
 H      3   2   1     2.071035958049   108.05145268   182.40784914
 H      3   2   1     2.075541174384   108.97325351    66.94961018
 H      4   3   2     2.068973910180   107.78765094   297.57788384
 H      5   4   3     2.071645260616   110.94886931   183.48918640
 H      5   4   3     2.076061314207   110.29386261    65.84419817
 H      6   1   2     2.072957964175   109.56973425    66.78463823
 H      6   1   2     2.070922118367   109.59814725   183.83220194
 H      8   7   4     2.074386295343   105.17170314   295.20355795
 H      9   8   7     2.070590707122   110.79927820    61.74064738
 H      9   8   7     2.069352330074   111.09152267   303.04497877
 H     10   9   8     2.073013436794   109.44208627    65.92377783
 H     10   9   8     2.070993783346   109.57841422   182.86719390
 H     11  10   9     2.070688406577   109.70086823   176.35539847
 H     11  10   9     2.072989359992   109.43133171   293.40930308
 H     12  11  10     2.070892721857   109.64030948   183.97170008
 H     12  11  10     2.072977458039   109.48280185    66.97503384
 H     13  12  11     2.073972776741   108.60061323   292.84009678
 H     13  12  11     2.073852186678   108.72604004   177.15821342
 H     15  14   7     2.057188603357   120.34415733     0.13982836
 H     16  15  14     2.053496201790   119.86175369   180.02323085
 H     17  16  15     2.053250776303   120.14322983   179.96286822
 H     18  17  16     2.053877695623   119.95823121   179.98697380
 H     19  18  17     2.051719457810   117.88889503   180.33328149

---------------------
BASIS SET INFORMATION
---------------------
There are 3 groups of distinct atoms

 Group   1 Type C   : 7s4p1d contracted to 3s2p1d pattern {511/31/1}
 Group   2 Type P   : 10s7p1d contracted to 4s3p1d pattern {5311/511/1}
 Group   3 Type H   : 4s1p contracted to 2s1p pattern {31/1}

Atom   0C    basis set group =>   1
Atom   1C    basis set group =>   1
Atom   2C    basis set group =>   1
Atom   3C    basis set group =>   1
Atom   4C    basis set group =>   1
Atom   5C    basis set group =>   1
Atom   6P    basis set group =>   2
Atom   7C    basis set group =>   1
Atom   8C    basis set group =>   1
Atom   9C    basis set group =>   1
Atom  10C    basis set group =>   1
Atom  11C    basis set group =>   1
Atom  12C    basis set group =>   1
Atom  13C    basis set group =>   1
Atom  14C    basis set group =>   1
Atom  15C    basis set group =>   1
Atom  16C    basis set group =>   1
Atom  17C    basis set group =>   1
Atom  18C    basis set group =>   1
Atom  19H    basis set group =>   3
Atom  20H    basis set group =>   3
Atom  21H    basis set group =>   3
Atom  22H    basis set group =>   3
Atom  23H    basis set group =>   3
Atom  24H    basis set group =>   3
Atom  25H    basis set group =>   3
Atom  26H    basis set group =>   3
Atom  27H    basis set group =>   3
Atom  28H    basis set group =>   3
Atom  29H    basis set group =>   3
Atom  30H    basis set group =>   3
Atom  31H    basis set group =>   3
Atom  32H    basis set group =>   3
Atom  33H    basis set group =>   3
Atom  34H    basis set group =>   3
Atom  35H    basis set group =>   3
Atom  36H    basis set group =>   3
Atom  37H    basis set group =>   3
Atom  38H    basis set group =>   3
Atom  39H    basis set group =>   3
Atom  40H    basis set group =>   3
Atom  41H    basis set group =>   3
Atom  42H    basis set group =>   3
Atom  43H    basis set group =>   3
Atom  44H    basis set group =>   3
Atom  45H    basis set group =>   3
---------------------------------
AUXILIARY/J BASIS SET INFORMATION
---------------------------------
There are 3 groups of distinct atoms

 Group   1 Type C   : 12s5p4d2f1g contracted to 6s4p3d1f1g pattern {711111/2111/211/2/1}
 Group   2 Type P   : 14s5p5d2f1g contracted to 8s4p3d1f1g pattern {71111111/2111/311/2/1}
 Group   3 Type H   : 5s2p1d contracted to 3s1p1d pattern {311/2/1}

Atom   0C    basis set group =>   1
Atom   1C    basis set group =>   1
Atom   2C    basis set group =>   1
Atom   3C    basis set group =>   1
Atom   4C    basis set group =>   1
Atom   5C    basis set group =>   1
Atom   6P    basis set group =>   2
Atom   7C    basis set group =>   1
Atom   8C    basis set group =>   1
Atom   9C    basis set group =>   1
Atom  10C    basis set group =>   1
Atom  11C    basis set group =>   1
Atom  12C    basis set group =>   1
Atom  13C    basis set group =>   1
Atom  14C    basis set group =>   1
Atom  15C    basis set group =>   1
Atom  16C    basis set group =>   1
Atom  17C    basis set group =>   1
Atom  18C    basis set group =>   1
Atom  19H    basis set group =>   3
Atom  20H    basis set group =>   3
Atom  21H    basis set group =>   3
Atom  22H    basis set group =>   3
Atom  23H    basis set group =>   3
Atom  24H    basis set group =>   3
Atom  25H    basis set group =>   3
Atom  26H    basis set group =>   3
Atom  27H    basis set group =>   3
Atom  28H    basis set group =>   3
Atom  29H    basis set group =>   3
Atom  30H    basis set group =>   3
Atom  31H    basis set group =>   3
Atom  32H    basis set group =>   3
Atom  33H    basis set group =>   3
Atom  34H    basis set group =>   3
Atom  35H    basis set group =>   3
Atom  36H    basis set group =>   3
Atom  37H    basis set group =>   3
Atom  38H    basis set group =>   3
Atom  39H    basis set group =>   3
Atom  40H    basis set group =>   3
Atom  41H    basis set group =>   3
Atom  42H    basis set group =>   3
Atom  43H    basis set group =>   3
Atom  44H    basis set group =>   3
Atom  45H    basis set group =>   3


           ************************************************************
           *        Program running with 6 parallel MPI-processes     *
           *              working on a common directory               *
           ************************************************************
------------------------------------------------------------------------------
                             ORCA STARTUP CALCULATIONS
                           -- RI-GTO INTEGRALS CHOSEN --
------------------------------------------------------------------------------
------------------------------------------------------------------------------
                   ___                                                        
                  /   \      - P O W E R E D   B Y -                         
                 /     \                                                     
                 |  |  |   _    _      __       _____    __    __             
                 |  |  |  | |  | |    /  \     |  _  \  |  |  /  |          
                  \  \/   | |  | |   /    \    | | | |  |  | /  /          
                 / \  \   | |__| |  /  /\  \   | |_| |  |  |/  /          
                |  |  |   |  __  | /  /__\  \  |    /   |      \           
                |  |  |   | |  | | |   __   |  |    \   |  |\   \          
                \     /   | |  | | |  |  |  |  | |\  \  |  | \   \       
                 \___/    |_|  |_| |__|  |__|  |_| \__\ |__|  \__/        
                                                                              
                      - O R C A' S   B I G   F R I E N D -                    
                                      &                                       
                       - I N T E G R A L  F E E D E R -                       
                                                                              
 v1 FN, 2020, v2 2021, v3 2022-2024                                           
------------------------------------------------------------------------------


----------------------
SHARK INTEGRAL PACKAGE
----------------------

Number of atoms                             ...     46
Number of basis functions                   ...    405
Number of shells                            ...    197
Maximum angular momentum                    ...      2
Integral batch strategy                     ... SHARK/LIBINT Hybrid
RI-J (if used) integral strategy            ... SPLIT-RIJ (Revised 2003 algorithm where possible)
Printlevel                                  ...      1
Contraction scheme used                     ... SEGMENTED contraction
Prescreening option                         ... SCHWARTZ
   Thresh                                   ... 2.500e-11
   Tcut                                     ... 2.500e-12
   Tpresel                                  ... 2.500e-12 
Coulomb Range Separation                    ... NOT USED
Exchange Range Separation                   ... NOT USED
Multipole approximations                    ... NOT USED
Finite Nucleus Model                        ... NOT USED
CABS basis                                  ... NOT available
Auxiliary Coulomb fitting basis             ... AVAILABLE
   # of basis functions in Aux-J            ...   1230
   # of shells in Aux-J                     ...    422
   Maximum angular momentum in Aux-J        ...      4
Auxiliary J/K fitting basis                 ... NOT available
Auxiliary Correlation fitting basis         ... NOT available
Auxiliary 'external' fitting basis          ... NOT available

Checking pre-screening integrals            ... done (  0.0 sec) Dimension = 197
Check shell pair data                       ... done (  0.0 sec)
Shell pair information
Shell pair cut-off parameter TPreSel        ...   2.5e-12
Total number of shell pairs                 ...     19503
Shell pairs after pre-screening             ...     15250
Total number of primitive shell pairs       ...     68603
Primitive shell pairs kept                  ...     35010
          la=0 lb=0:   5185 shell pairs
          la=1 lb=0:   5848 shell pairs
          la=1 lb=1:   1671 shell pairs
          la=2 lb=0:   1573 shell pairs
          la=2 lb=1:    856 shell pairs
          la=2 lb=2:    117 shell pairs

Calculating one electron integrals          ... done (  0.0 sec)
Calculating RI/J V-Matrix + Cholesky decomp.... done (  0.1 sec)
Calculating Nuclear repulsion               ... done (  0.0 sec) ENN=   1622.143884862607 Eh

Diagonalization of the overlap matrix:
Smallest eigenvalue                        ... 2.803e-04
Time for diagonalization                   ...    0.023 sec
Threshold for overlap eigenvalues          ... 1.000e-07
Number of eigenvalues below threshold      ... 0
Time for construction of square roots      ...    0.012 sec
Total time needed                          ...    0.036 sec

-------------------
DFT GRID GENERATION
-------------------

General Integration Accuracy     IntAcc      ... 4.388
Radial Grid Type                 RadialGrid  ... OptM3 with GC (2021)
Angular Grid (max. ang.)         AngularGrid ... 4 (Lebedev-302)
Angular grid pruning method      GridPruning ... 4 (adaptive)
Weight generation scheme         WeightScheme... mBecke (2022)
Basis function cutoff            BFCut       ... 1.0000e-11
Integration weight cutoff        WCut        ... 1.0000e-14
Partially contracted basis set               ... off
Rotationally invariant grid construction     ... off
Angular grids for H and He will be reduced by one unit

Total number of grid points                  ...   199086
Total number of batches                      ...     3135
Average number of points per batch           ...       63
Average number of grid points per atom       ...     4328
Initializing property integral containers    ... done (  0.0 sec)

SHARK setup successfully completed in   1.5 seconds

Maximum memory used throughout the entire STARTUP-calculation: 56.0 MB


           ************************************************************
           *        Program running with 6 parallel MPI-processes     *
           *              working on a common directory               *
           ************************************************************
-------------------------------------------------------------------------------
                                 ORCA GUESS
                   Start orbitals & Density for SCF / CASSCF
-------------------------------------------------------------------------------

------------
SCF SETTINGS
------------
Hamiltonian:
 Density Functional     Method          .... DFT(GTOs)
 Exchange Functional    Exchange        .... B88
   X-Alpha parameter    XAlpha          ....  0.666667
   Becke's b parameter  XBeta           ....  0.004200
 Correlation Functional Correlation     .... LYP
 LDA part of GGA corr.  LDAOpt          .... VWN-5
 Gradients option       PostSCFGGA      .... off
 Hybrid DFT is turned on
   Fraction HF Exchange ScalHFX         ....  0.200000
   Scaling of DF-GGA-X  ScalDFX         ....  0.720000
   Scaling of DF-GGA-C  ScalDFC         ....  0.810000
   Scaling of DF-LDA-C  ScalLDAC        ....  1.000000
   Perturbative correction              ....  0.000000
   NL short-range parameter             ....  4.800000
 RI-approximation to the Coulomb term is turned on
   Number of AuxJ basis functions       .... 1230
   RIJ-ON(X) (HFX calculated with O(N)) .... on


General Settings:
 Integral files         IntName         .... data/geom_opt/80970/80970
 Hartree-Fock type      HFTyp           .... RHF
 Total Charge           Charge          ....    0
 Multiplicity           Mult            ....    1
 Number of Electrons    NEL             ....  150
 Basis Dimension        Dim             ....  405
 Nuclear Repulsion      ENuc            ....   1622.1438848626 Eh

Convergence Acceleration:
 AO-DIIS                CNVDIIS         .... on
   Start iteration      DIISMaxIt       ....    12
   Startup error        DIISStart       ....  0.200000
   # of expansion vecs  DIISMaxEq       ....     5
   Bias factor          DIISBfac        ....   1.050
   Max. coefficient     DIISMaxC        ....  10.000
 MO-DIIS                CNVKDIIS        .... off
 Trust-Rad. Augm. Hess. CNVTRAH         .... auto
   Auto Start mean grad. ratio tolernc. ....  1.125000
   Auto Start start iteration           ....    50
   Auto Start num. interpolation iter.  ....    10
   Max. Number of Micro iterations      ....    24
   Max. Number of Macro iterations      .... Maxiter - #DIIS iter
   Number of Davidson start vectors     ....     2
   Converg. threshold    (grad. norm)   ....   1.000e-05
   Grad. Scal. Fac. for Micro threshold ....   0.100
   Minimum threshold for Micro iter.    ....   1.000e-02
   NR start threshold (gradient norm)   ....   1.000e-04
   Initial trust radius                 ....   0.400
   Minimum AH scaling param. (alpha)    ....   1.000
   Maximum AH scaling param. (alpha)    .... 1000.000
   Quad. conv. algorithm                .... NR
   White noise on init. David. guess    .... on
   Maximum white noise                  ....   0.010
   Pseudo random numbers                .... off
   Inactive MOs                         .... canonical
   Orbital update algorithm             .... Taylor
   Preconditioner                       .... Diag
   Full preconditioner red. dimension   ....   250
   COSX micro iterations for RIJONX calc.... off
 SOSCF                  CNVSOSCF        .... on
   Start iteration      SOSCFMaxIt      ....   150
   Startup grad/error   SOSCFStart      ....  0.003300
   Hessian update       SOSCFHessUp     .... L-BFGS
 Level Shifting         CNVShift        .... on
   Level shift para.    LevelShift      ....    0.2500
   Turn off err/grad.   ShiftErr        ....    0.0010
 Zerner damping         CNVZerner       .... off
 Static damping         CNVDamp         .... on
   Fraction old density DampFac         ....    0.7000
   Max. Damping (<1)    DampMax         ....    0.9800
   Min. Damping (>=0)   DampMin         ....    0.0000
   Turn off err/grad.   DampErr         ....    0.1000

SCF Procedure:
 Maximum # iterations   MaxIter         ....   125
 SCF integral mode      SCFMode         .... Direct
   Integral package                     .... SHARK and LIBINT hybrid scheme
 Reset frequency        DirectResetFreq ....    20
 Integral Threshold     Thresh          ....  2.500e-11 Eh
 Primitive CutOff       TCut            ....  2.500e-12 Eh

Convergence Tolerance:
 Convergence Check Mode ConvCheckMode   .... Total+1el-Energy
 Convergence forced     ConvForced      .... 0
 Energy Change          TolE            ....  1.000e-08 Eh
 1-El. energy change                    ....  1.000e-05 Eh
 Orbital Gradient       TolG            ....  1.000e-05
 Orbital Rotation angle TolX            ....  1.000e-05
 DIIS Error             TolErr          ....  5.000e-07

------------------------------
INITIAL GUESS: MODEL POTENTIAL
------------------------------
Loading Hartree-Fock densities                     ... done
Calculating cut-offs                               ... done
Initializing the effective Hamiltonian             ... done
Setting up the integral package (SHARK)            ... done
Starting the Coulomb interaction                   ... done (   0.2 sec)
Making the grid                                    ... done (   0.3 sec)
Mapping shells                                     ... done
Starting the XC term evaluation                    ... done (   0.2 sec)
  promolecular density results
     # of electrons  =    149.986381063
     EX              =   -123.302686317
     EC              =     -5.041749419
     EX+EC           =   -128.344435736
Transforming the Hamiltonian                       ... done (   0.0 sec)
Diagonalizing the Hamiltonian                      ... done (   0.0 sec)
Back transforming the eigenvectors                 ... done (   0.0 sec)
Now organizing SCF variables                       ... done
                      ------------------
                      INITIAL GUESS DONE (   0.7 sec)
                      ------------------
             **** ENERGY FILE WAS UPDATED (data/geom_opt/80970/80970.en.tmp) ****
Finished Guess after   0.8 sec
Maximum memory used throughout the entire GUESS-calculation: 31.4 MB


           ************************************************************
           *        Program running with 6 parallel MPI-processes     *
           *              working on a common directory               *
           ************************************************************

-------------------------------------------------------------------------------------------
                                      ORCA LEAN-SCF
                              memory conserving SCF solver
-------------------------------------------------------------------------------------------

----------------------------------------D-I-I-S--------------------------------------------
Iteration    Energy (Eh)           Delta-E    RMSDP     MaxDP     DIISErr   Damp  Time(sec)
-------------------------------------------------------------------------------------------
               ***  Starting incremental Fock matrix formation  ***
    1    -1041.8817756784064841     0.00e+00  2.28e-03  7.09e-02  1.52e-01  0.700   7.0
    2    -1042.1228336235144525    -2.41e-01  1.63e-03  4.37e-02  7.94e-02  0.700   6.3
                               ***Turning on AO-DIIS***
    3    -1042.2211805225269927    -9.83e-02  7.65e-04  3.58e-02  3.01e-02  0.700   6.1
    4    -1042.2787426930158290    -5.76e-02  1.47e-03  7.87e-02  1.50e-02  0.000   6.1
    5    -1042.4040645806007888    -1.25e-01  2.07e-04  1.15e-02  5.62e-03  0.000   6.2
                              *** Initializing SOSCF ***
---------------------------------------S-O-S-C-F--------------------------------------
Iteration    Energy (Eh)           Delta-E    RMSDP     MaxDP     MaxGrad    Time(sec)
--------------------------------------------------------------------------------------
    6    -1042.4048344027337407    -7.70e-04  7.37e-05  2.83e-03  1.32e-03     5.4
               *** Restarting incremental Fock matrix formation ***
    7    -1042.4048930188091617    -5.86e-05  4.77e-05  1.59e-03  2.36e-04     7.2
    8    -1042.4048951722170386    -2.15e-06  1.23e-05  4.38e-04  1.84e-04     4.7
    9    -1042.4048981708215251    -3.00e-06  9.20e-06  6.65e-04  8.25e-05     4.1
   10    -1042.4048981080400154     6.28e-08  4.43e-06  2.43e-04  1.09e-04     4.0
   11    -1042.4048983767529535    -2.69e-07  2.53e-06  1.63e-04  1.85e-05     3.7
   12    -1042.4048983528591634     2.39e-08  1.37e-06  1.05e-04  9.73e-06     3.5
   13    -1042.4048983772477186    -2.44e-08  3.56e-07  1.16e-05  3.81e-06     3.2
   14    -1042.4048983964657964    -1.92e-08  2.18e-07  7.77e-06  6.33e-06     2.7
   15    -1042.4048983973902978    -9.25e-10  1.20e-07  5.30e-06  9.89e-07     2.5
                 **** Energy Check signals convergence ****

               *****************************************************
               *                     SUCCESS                       *
               *           SCF CONVERGED AFTER  15 CYCLES          *
               *****************************************************

             **** ENERGY FILE WAS UPDATED (data/geom_opt/80970/80970.en.tmp) ****

----------------
TOTAL SCF ENERGY
----------------

Total Energy       :      -1042.40489839739030 Eh          -28365.27935 eV

Components:
Nuclear Repulsion  :       1622.14388486260668 Eh           44140.77918 eV
Electronic Energy  :      -2664.54878325999698 Eh          -72506.05853 eV
One Electron Energy:      -4642.55692812941561 Eh         -126330.39653 eV
Two Electron Energy:       1978.00814486941863 Eh           53824.33800 eV

Virial components:
Potential Energy   :      -2076.11404539547129 Eh          -56493.93527 eV
Kinetic Energy     :       1033.70914699808077 Eh           28128.65592 eV
Virial Ratio       :          2.00841218385710

DFT components:
N(Alpha)           :       75.000193123836 electrons
N(Beta)            :       75.000193123836 electrons
N(Total)           :      150.000386247673 electrons
E(X)               :      -99.535082282643 Eh       
E(C)               :       -5.937506348902 Eh       
E(XC)              :     -105.472588631545 Eh       

---------------
SCF CONVERGENCE
---------------

  Last Energy change         ...    9.2450e-10  Tolerance :   1.0000e-08
  Last MAX-Density change    ...    5.3016e-06  Tolerance :   1.0000e-07
  Last RMS-Density change    ...    1.2028e-07  Tolerance :   5.0000e-09
  Last DIIS Error            ...    1.3170e-03  Tolerance :   5.0000e-07
  Last Orbital Gradient      ...    9.8916e-07  Tolerance :   1.0000e-05
  Last Orbital Rotation      ...    2.0049e-06  Tolerance :   1.0000e-05


----------------
ORBITAL ENERGIES
----------------

  NO   OCC          E(Eh)            E(eV) 
   0   2.0000     -77.026408     -2095.9951 
   1   2.0000     -10.189262      -277.2639 
   2   2.0000     -10.188378      -277.2399 
   3   2.0000     -10.187927      -277.2276 
   4   2.0000     -10.187845      -277.2254 
   5   2.0000     -10.187048      -277.2037 
   6   2.0000     -10.185366      -277.1579 
   7   2.0000     -10.181032      -277.0400 
   8   2.0000     -10.180280      -277.0195 
   9   2.0000     -10.177781      -276.9515 
  10   2.0000     -10.173948      -276.8472 
  11   2.0000     -10.173656      -276.8393 
  12   2.0000     -10.173402      -276.8324 
  13   2.0000     -10.173203      -276.8269 
  14   2.0000     -10.172024      -276.7948 
  15   2.0000     -10.171953      -276.7929 
  16   2.0000     -10.171472      -276.7798 
  17   2.0000     -10.171342      -276.7763 
  18   2.0000     -10.170626      -276.7568 
  19   2.0000      -6.523785      -177.5212 
  20   2.0000      -4.689378      -127.6045 
  21   2.0000      -4.688910      -127.5917 
  22   2.0000      -4.686096      -127.5152 
  23   2.0000      -0.847230       -23.0543 
  24   2.0000      -0.826225       -22.4827 
  25   2.0000      -0.820252       -22.3202 
  26   2.0000      -0.758133       -20.6298 
  27   2.0000      -0.736650       -20.0453 
  28   2.0000      -0.733826       -19.9684 
  29   2.0000      -0.730377       -19.8746 
  30   2.0000      -0.729352       -19.8467 
  31   2.0000      -0.726005       -19.7556 
  32   2.0000      -0.635935       -17.3047 
  33   2.0000      -0.603863       -16.4320 
  34   2.0000      -0.601079       -16.3562 
  35   2.0000      -0.594130       -16.1671 
  36   2.0000      -0.590597       -16.0710 
  37   2.0000      -0.589467       -16.0402 
  38   2.0000      -0.548242       -14.9184 
  39   2.0000      -0.545323       -14.8390 
  40   2.0000      -0.535657       -14.5760 
  41   2.0000      -0.501213       -13.6387 
  42   2.0000      -0.471569       -12.8320 
  43   2.0000      -0.469445       -12.7742 
  44   2.0000      -0.451404       -12.2833 
  45   2.0000      -0.444399       -12.0927 
  46   2.0000      -0.441660       -12.0182 
  47   2.0000      -0.436596       -11.8804 
  48   2.0000      -0.434273       -11.8172 
  49   2.0000      -0.433437       -11.7944 
  50   2.0000      -0.428638       -11.6638 
  51   2.0000      -0.418292       -11.3823 
  52   2.0000      -0.416347       -11.3294 
  53   2.0000      -0.391212       -10.6454 
  54   2.0000      -0.380172       -10.3450 
  55   2.0000      -0.377956       -10.2847 
  56   2.0000      -0.375513       -10.2182 
  57   2.0000      -0.373657       -10.1677 
  58   2.0000      -0.366541        -9.9741 
  59   2.0000      -0.351618        -9.5680 
  60   2.0000      -0.349033        -9.4977 
  61   2.0000      -0.346822        -9.4375 
  62   2.0000      -0.344716        -9.3802 
  63   2.0000      -0.339712        -9.2440 
  64   2.0000      -0.338233        -9.2038 
  65   2.0000      -0.328151        -8.9295 
  66   2.0000      -0.315700        -8.5906 
  67   2.0000      -0.309989        -8.4352 
  68   2.0000      -0.302717        -8.2373 
  69   2.0000      -0.298521        -8.1232 
  70   2.0000      -0.291646        -7.9361 
  71   2.0000      -0.279188        -7.5971 
  72   2.0000      -0.253902        -6.9090 
  73   2.0000      -0.253576        -6.9001 
  74   2.0000      -0.203012        -5.5242 
  75   0.0000      -0.018573        -0.5054 
  76   0.0000      -0.008715        -0.2372 
  77   0.0000       0.046529         1.2661 
  78   0.0000       0.057821         1.5734 
  79   0.0000       0.061684         1.6785 
  80   0.0000       0.072436         1.9711 
  81   0.0000       0.074211         2.0194 
  82   0.0000       0.084510         2.2996 
  83   0.0000       0.088523         2.4088 
  84   0.0000       0.096742         2.6325 
  85   0.0000       0.097518         2.6536 
*Only the first 10 virtual orbitals were printed.

                    ********************************
                    * MULLIKEN POPULATION ANALYSIS *
                    ********************************

-----------------------
MULLIKEN ATOMIC CHARGES
-----------------------
   0 C :    0.025736
   1 C :    0.044815
   2 C :    0.060200
   3 C :   -0.237902
   4 C :    0.076052
   5 C :    0.045713
   6 P :    0.246119
   7 C :   -0.228183
   8 C :    0.064382
   9 C :    0.044929
  10 C :    0.025462
  11 C :    0.039780
  12 C :    0.074971
  13 C :   -0.117259
  14 C :    0.023895
  15 C :    0.022612
  16 C :    0.027415
  17 C :    0.022137
  18 C :    0.023003
  19 H :   -0.009377
  20 H :   -0.014746
  21 H :   -0.008379
  22 H :   -0.018540
  23 H :   -0.002121
  24 H :   -0.003376
  25 H :    0.005369
  26 H :   -0.000649
  27 H :   -0.005786
  28 H :   -0.019715
  29 H :   -0.007865
  30 H :    0.013470
  31 H :   -0.001724
  32 H :   -0.008768
  33 H :   -0.019669
  34 H :   -0.011560
  35 H :   -0.009708
  36 H :   -0.014697
  37 H :   -0.009096
  38 H :   -0.017082
  39 H :   -0.003558
  40 H :   -0.003869
  41 H :   -0.021440
  42 H :   -0.020752
  43 H :   -0.020510
  44 H :   -0.024532
  45 H :   -0.025195
Sum of atomic charges:   -0.0000000

--------------------------------
MULLIKEN REDUCED ORBITAL CHARGES
--------------------------------
  0 C s       :     2.983475  s :     2.983475
      pz      :     0.971181  p :     2.953313
      px      :     0.999557
      py      :     0.982575
      dz2     :     0.007723  d :     0.037476
      dxz     :     0.007971
      dyz     :     0.004819
      dx2y2   :     0.008061
      dxy     :     0.008902

  1 C s       :     2.968611  s :     2.968611
      pz      :     0.985935  p :     2.949059
      px      :     0.977963
      py      :     0.985161
      dz2     :     0.009898  d :     0.037515
      dxz     :     0.007682
      dyz     :     0.003296
      dx2y2   :     0.008877
      dxy     :     0.007762

  2 C s       :     2.978078  s :     2.978078
      pz      :     1.002487  p :     2.924812
      px      :     0.977596
      py      :     0.944728
      dz2     :     0.010608  d :     0.036910
      dxz     :     0.005295
      dyz     :     0.004482
      dx2y2   :     0.006464
      dxy     :     0.010061

  3 C s       :     3.117901  s :     3.117901
      pz      :     1.013456  p :     3.081935
      px      :     1.034790
      py      :     1.033689
      dz2     :     0.009684  d :     0.038066
      dxz     :     0.006791
      dyz     :     0.004934
      dx2y2   :     0.008074
      dxy     :     0.008582

  4 C s       :     2.970447  s :     2.970447
      pz      :     0.991520  p :     2.916787
      px      :     0.941104
      py      :     0.984163
      dz2     :     0.009777  d :     0.036714
      dxz     :     0.007459
      dyz     :     0.003195
      dx2y2   :     0.008937
      dxy     :     0.007346

  5 C s       :     2.969522  s :     2.969522
      pz      :     0.992445  p :     2.947234
      px      :     0.970347
      py      :     0.984442
      dz2     :     0.010775  d :     0.037531
      dxz     :     0.005412
      dyz     :     0.004605
      dx2y2   :     0.006905
      dxy     :     0.009835

  6 P s       :     5.717072  s :     5.717072
      pz      :     3.319960  p :     8.866846
      px      :     2.799262
      py      :     2.747624
      dz2     :     0.017842  d :     0.169963
      dxz     :     0.033617
      dyz     :     0.030481
      dx2y2   :     0.039748
      dxy     :     0.048274

  7 C s       :     3.132671  s :     3.132671
      pz      :     1.017816  p :     3.056986
      px      :     1.026778
      py      :     1.012392
      dz2     :     0.010184  d :     0.038526
      dxz     :     0.009267
      dyz     :     0.006155
      dx2y2   :     0.005933
      dxy     :     0.006986

  8 C s       :     2.975127  s :     2.975127
      pz      :     0.964654  p :     2.923375
      px      :     0.969419
      py      :     0.989302
      dz2     :     0.007956  d :     0.037117
      dxz     :     0.008872
      dyz     :     0.006253
      dx2y2   :     0.006995
      dxy     :     0.007040

  9 C s       :     2.967789  s :     2.967789
      pz      :     0.971025  p :     2.949780
      px      :     0.978552
      py      :     1.000202
      dz2     :     0.009994  d :     0.037503
      dxz     :     0.007087
      dyz     :     0.002865
      dx2y2   :     0.008942
      dxy     :     0.008614

 10 C s       :     2.982734  s :     2.982734
      pz      :     0.985238  p :     2.954384
      px      :     1.001183
      py      :     0.967963
      dz2     :     0.010365  d :     0.037419
      dxz     :     0.007792
      dyz     :     0.005528
      dx2y2   :     0.004637
      dxy     :     0.009098

 11 C s       :     2.974537  s :     2.974537
      pz      :     0.994566  p :     2.948222
      px      :     0.971281
      py      :     0.982374
      dz2     :     0.008235  d :     0.037462
      dxz     :     0.008632
      dyz     :     0.006314
      dx2y2   :     0.007340
      dxy     :     0.006940

 12 C s       :     2.969019  s :     2.969019
      pz      :     0.966071  p :     2.919151
      px      :     0.943382
      py      :     1.009698
      dz2     :     0.009894  d :     0.036859
      dxz     :     0.006766
      dyz     :     0.002835
      dx2y2   :     0.008710
      dxy     :     0.008654

 13 C s       :     3.076597  s :     3.076597
      pz      :     0.988716  p :     3.003608
      px      :     1.006703
      py      :     1.008189
      dz2     :     0.009989  d :     0.037054
      dxz     :     0.006735
      dyz     :     0.011946
      dx2y2   :     0.004530
      dxy     :     0.003854

 14 C s       :     3.216911  s :     3.216911
      pz      :     0.850225  p :     2.724114
      px      :     0.962364
      py      :     0.911525
      dz2     :     0.009656  d :     0.035081
      dxz     :     0.003322
      dyz     :     0.009950
      dx2y2   :     0.006047
      dxy     :     0.006105

 15 C s       :     3.159400  s :     3.159400
      pz      :     0.905837  p :     2.782846
      px      :     0.969503
      py      :     0.907506
      dz2     :     0.008698  d :     0.035143
      dxz     :     0.005537
      dyz     :     0.012128
      dx2y2   :     0.004222
      dxy     :     0.004558

 16 C s       :     3.158559  s :     3.158559
      pz      :     0.950787  p :     2.778520
      px      :     0.969021
      py      :     0.858713
      dz2     :     0.010184  d :     0.035505
      dxz     :     0.006605
      dyz     :     0.010947
      dx2y2   :     0.004343
      dxy     :     0.003427

 17 C s       :     3.159365  s :     3.159365
      pz      :     0.833370  p :     2.783292
      px      :     0.985570
      py      :     0.964353
      dz2     :     0.009558  d :     0.035205
      dxz     :     0.003399
      dyz     :     0.010245
      dx2y2   :     0.005914
      dxy     :     0.006091

 18 C s       :     3.202303  s :     3.202303
      pz      :     0.916856  p :     2.739347
      px      :     0.950902
      py      :     0.871589
      dz2     :     0.008478  d :     0.035346
      dxz     :     0.005535
      dyz     :     0.012509
      dx2y2   :     0.004246
      dxy     :     0.004578

 19 H s       :     0.987233  s :     0.987233
      pz      :     0.008040  p :     0.022144
      px      :     0.009043
      py      :     0.005061

 20 H s       :     0.992282  s :     0.992282
      pz      :     0.012549  p :     0.022463
      px      :     0.005823
      py      :     0.004092

 21 H s       :     0.986226  s :     0.986226
      pz      :     0.005263  p :     0.022153
      px      :     0.004480
      py      :     0.012410

 22 H s       :     0.996091  s :     0.996091
      pz      :     0.012974  p :     0.022448
      px      :     0.004720
      py      :     0.004754

 23 H s       :     0.979795  s :     0.979795
      pz      :     0.004985  p :     0.022326
      px      :     0.010099
      py      :     0.007242

 24 H s       :     0.981081  s :     0.981081
      pz      :     0.013399  p :     0.022295
      px      :     0.004876
      py      :     0.004020

 25 H s       :     0.972670  s :     0.972670
      pz      :     0.012643  p :     0.021961
      px      :     0.005293
      py      :     0.004026

 26 H s       :     0.978192  s :     0.978192
      pz      :     0.005387  p :     0.022457
      px      :     0.004285
      py      :     0.012785

 27 H s       :     0.983465  s :     0.983465
      pz      :     0.013188  p :     0.022322
      px      :     0.004503
      py      :     0.004631

 28 H s       :     0.997261  s :     0.997261
      pz      :     0.013183  p :     0.022454
      px      :     0.004941
      py      :     0.004330

 29 H s       :     0.985700  s :     0.985700
      pz      :     0.004732  p :     0.022165
      px      :     0.010396
      py      :     0.007037

 30 H s       :     0.964409  s :     0.964409
      pz      :     0.004944  p :     0.022121
      px      :     0.005034
      py      :     0.012143

 31 H s       :     0.979082  s :     0.979082
      pz      :     0.005263  p :     0.022642
      px      :     0.005060
      py      :     0.012318

[...]

 22 H s       :     0.920005  s :     0.920005
      pz      :     0.036874  p :     0.064008
      px      :     0.015055
      py      :     0.012078

 23 H s       :     0.916797  s :     0.916797
      pz      :     0.013213  p :     0.065800
      px      :     0.030818
      py      :     0.021769

 24 H s       :     0.917118  s :     0.917118
      pz      :     0.038501  p :     0.065119
      px      :     0.014076
      py      :     0.012543

 25 H s       :     0.921209  s :     0.921209
      pz      :     0.040437  p :     0.072411
      px      :     0.017785
      py      :     0.014189

 26 H s       :     0.913430  s :     0.913430
      pz      :     0.013817  p :     0.066320
      px      :     0.014316
      py      :     0.038187

 27 H s       :     0.917066  s :     0.917066
      pz      :     0.038155  p :     0.065154
      px      :     0.014728
      py      :     0.012271

 28 H s       :     0.920665  s :     0.920665
      pz      :     0.037123  p :     0.063943
      px      :     0.014086
      py      :     0.012734

 29 H s       :     0.915195  s :     0.915195
      pz      :     0.012641  p :     0.064373
      px      :     0.030414
      py      :     0.021318

 30 H s       :     0.914404  s :     0.914404
      pz      :     0.015903  p :     0.070098
      px      :     0.016427
      py      :     0.037768

 31 H s       :     0.912930  s :     0.912930
      pz      :     0.015647  p :     0.066275
      px      :     0.013632
      py      :     0.036996

 32 H s       :     0.918247  s :     0.918247
      pz      :     0.020056  p :     0.065602
      px      :     0.029883
      py      :     0.015662

 33 H s       :     0.920725  s :     0.920725
      pz      :     0.013779  p :     0.063968
      px      :     0.014249
      py      :     0.035940

 34 H s       :     0.916702  s :     0.916702
      pz      :     0.037847  p :     0.064395
      px      :     0.014277
      py      :     0.012271

 35 H s       :     0.916777  s :     0.916777
      pz      :     0.013438  p :     0.064240
      px      :     0.028228
      py      :     0.022574

 36 H s       :     0.918473  s :     0.918473
      pz      :     0.015490  p :     0.064049
      px      :     0.014625
      py      :     0.033934

 37 H s       :     0.915982  s :     0.915982
      pz      :     0.019864  p :     0.064311
      px      :     0.029389
      py      :     0.015058

 38 H s       :     0.920260  s :     0.920260
      pz      :     0.015728  p :     0.063955
      px      :     0.013365
      py      :     0.034863

 39 H s       :     0.915563  s :     0.915563
      pz      :     0.013986  p :     0.065931
      px      :     0.014371
      py      :     0.037574

 40 H s       :     0.916518  s :     0.916518
      pz      :     0.038747  p :     0.065456
      px      :     0.014166
      py      :     0.012542

 41 H s       :     0.909868  s :     0.909868
      pz      :     0.041166  p :     0.067694
      px      :     0.013510
      py      :     0.013018

 42 H s       :     0.906642  s :     0.906642
      pz      :     0.023012  p :     0.066506
      px      :     0.018579
      py      :     0.024915

 43 H s       :     0.907000  s :     0.907000
      pz      :     0.014724  p :     0.066525
      px      :     0.016016
      py      :     0.035785

 44 H s       :     0.907519  s :     0.907519
      pz      :     0.039660  p :     0.066530
      px      :     0.013990
      py      :     0.012881

 45 H s       :     0.910109  s :     0.910109
      pz      :     0.023475  p :     0.068603
      px      :     0.019027
      py      :     0.026101



                      *****************************
                      * MAYER POPULATION ANALYSIS *
                      *****************************

  NA   - Mulliken gross atomic population
  ZA   - Total nuclear charge
  QA   - Mulliken gross atomic charge
  VA   - Mayer's total valence
  BVA  - Mayer's bonded valence
  FA   - Mayer's free valence

  ATOM       NA         ZA         QA         VA         BVA        FA
  0 C      5.9819     6.0000     0.0181     4.1147     4.1147    -0.0000
  1 C      5.9598     6.0000     0.0402     4.1095     4.1095    -0.0000
  2 C      5.9425     6.0000     0.0575     4.0407     4.0407    -0.0000
  3 C      6.2646     6.0000    -0.2646     4.0257     4.0257    -0.0000
  4 C      5.9275     6.0000     0.0725     4.0237     4.0237    -0.0000
  5 C      5.9571     6.0000     0.0429     4.1045     4.1045    -0.0000
  6 P     14.7279    15.0000     0.2721     2.9780     2.9780    -0.0000
  7 C      6.2428     6.0000    -0.2428     4.0157     4.0157    -0.0000
  8 C      5.9403     6.0000     0.0597     4.0192     4.0192    -0.0000
  9 C      5.9600     6.0000     0.0400     4.1038     4.1038    -0.0000
 10 C      5.9819     6.0000     0.0181     4.1145     4.1145     0.0000
 11 C      5.9608     6.0000     0.0392     4.1103     4.1103    -0.0000
 12 C      5.9351     6.0000     0.0649     4.0347     4.0347    -0.0000
 13 C      6.1356     6.0000    -0.1356     3.7761     3.7761    -0.0000
 14 C      5.9765     6.0000     0.0235     3.8834     3.8834    -0.0000
 15 C      5.9796     6.0000     0.0204     3.8407     3.8407    -0.0000
 16 C      5.9777     6.0000     0.0223     3.8279     3.8279    -0.0000
 17 C      5.9806     6.0000     0.0194     3.8504     3.8504    -0.0000
 18 C      5.9801     6.0000     0.0199     3.8991     3.8991     0.0000
 19 H      1.0049     1.0000    -0.0049     0.9732     0.9732     0.0000
 20 H      1.0112     1.0000    -0.0112     0.9803     0.9803    -0.0000
 21 H      1.0047     1.0000    -0.0047     0.9739     0.9739    -0.0000
 22 H      1.0156     1.0000    -0.0156     0.9813     0.9813    -0.0000
 23 H      0.9978     1.0000     0.0022     0.9817     0.9817    -0.0000
 24 H      1.0027     1.0000    -0.0027     0.9888     0.9888     0.0000
 25 H      0.9862     1.0000     0.0138     0.9753     0.9753    -0.0000
 26 H      0.9968     1.0000     0.0032     0.9926     0.9926     0.0000
 27 H      1.0045     1.0000    -0.0045     0.9901     0.9901     0.0000
 28 H      1.0168     1.0000    -0.0168     0.9810     0.9810     0.0000
 29 H      1.0039     1.0000    -0.0039     0.9740     0.9740    -0.0000
 30 H      0.9840     1.0000     0.0160     0.9772     0.9772    -0.0000
 31 H      0.9973     1.0000     0.0027     1.0005     1.0005    -0.0000
 32 H      1.0038     1.0000    -0.0038     0.9820     0.9820    -0.0000
 33 H      1.0162     1.0000    -0.0162     0.9798     0.9798     0.0000
 34 H      1.0071     1.0000    -0.0071     0.9737     0.9737    -0.0000
 35 H      1.0057     1.0000    -0.0057     0.9731     0.9731     0.0000
 36 H      1.0107     1.0000    -0.0107     0.9810     0.9810     0.0000
 37 H      1.0058     1.0000    -0.0058     0.9740     0.9740    -0.0000
 38 H      1.0146     1.0000    -0.0146     0.9805     0.9805    -0.0000
 39 H      0.9986     1.0000     0.0014     0.9980     0.9980    -0.0000
 40 H      1.0015     1.0000    -0.0015     0.9838     0.9838    -0.0000
 41 H      1.0186     1.0000    -0.0186     0.9944     0.9944    -0.0000
 42 H      1.0174     1.0000    -0.0174     0.9774     0.9774     0.0000
 43 H      1.0167     1.0000    -0.0167     0.9773     0.9773    -0.0000
 44 H      1.0209     1.0000    -0.0209     0.9767     0.9767    -0.0000
 45 H      1.0236     1.0000    -0.0236     0.9875     0.9875     0.0000

  Mayer bond orders larger than 0.100000
B(  0-C ,  1-C ) :   1.0965 B(  0-C ,  5-C ) :   1.0944 B(  0-C , 19-H ) :   0.9365 
B(  0-C , 20-H ) :   0.9320 B(  1-C ,  2-C ) :   1.0994 B(  1-C , 21-H ) :   0.9346 
B(  1-C , 22-H ) :   0.9288 B(  2-C ,  3-C ) :   1.0432 B(  2-C , 23-H ) :   0.9283 
B(  2-C , 24-H ) :   0.9272 B(  3-C ,  4-C ) :   1.0415 B(  3-C ,  6-P ) :   0.9578 
B(  3-C , 25-H ) :   0.8864 B(  4-C ,  5-C ) :   1.0968 B(  4-C , 26-H ) :   0.9299 
B(  4-C , 27-H ) :   0.9254 B(  5-C , 28-H ) :   0.9294 B(  5-C , 29-H ) :   0.9348 
B(  6-P ,  7-C ) :   0.9527 B(  6-P , 13-C ) :   0.9194 B(  7-C ,  8-C ) :   1.0250 
B(  7-C , 12-C ) :   1.0459 B(  7-C , 30-H ) :   0.9048 B(  8-C ,  9-C ) :   1.0924 
B(  8-C , 31-H ) :   0.9254 B(  8-C , 32-H ) :   0.9285 B(  9-C , 10-C ) :   1.0966 
B(  9-C , 33-H ) :   0.9298 B(  9-C , 34-H ) :   0.9336 B( 10-C , 11-C ) :   1.0948 
B( 10-C , 35-H ) :   0.9358 B( 10-C , 36-H ) :   0.9324 B( 11-C , 12-C ) :   1.0970 
B( 11-C , 37-H ) :   0.9345 B( 11-C , 38-H ) :   0.9313 B( 12-C , 39-H ) :   0.9274 
B( 12-C , 40-H ) :   0.9272 B( 13-C , 14-C ) :   1.3897 B( 13-C , 18-C ) :   1.3645 
B( 14-C , 15-C ) :   1.3887 B( 14-C , 41-H ) :   0.9785 B( 15-C , 16-C ) :   1.3829 
B( 15-C , 42-H ) :   0.9849 B( 16-C , 17-C ) :   1.3762 B( 16-C , 43-H ) :   0.9847 
B( 17-C , 18-C ) :   1.4024 B( 17-C , 44-H ) :   0.9824 B( 18-C , 45-H ) :   0.9758 


-------
TIMINGS
-------

Total SCF time: 0 days 0 hours 0 min 22 sec 

Total time                  ....      22.040 sec
Sum of individual times     ....      21.945 sec  ( 99.6%)

SCF preparation             ....       0.143 sec  (  0.6%)
Fock matrix formation       ....      21.353 sec  ( 96.9%)
  Startup                   ....       0.019 sec  (  0.1% of F)
  Exchange formation        ....      17.579 sec  ( 82.3% of F)
  Split-RI-J                ....       1.330 sec  (  6.2% of F)
  XC integration            ....       2.363 sec  ( 11.1% of F)
    Basis function eval.    ....       0.634 sec  ( 26.8% of XC)
    Density eval.           ....       0.731 sec  ( 30.9% of XC)
    XC-Functional eval.     ....       0.053 sec  (  2.2% of XC)
    XC-Potential eval.      ....       0.614 sec  ( 26.0% of XC)
Diagonalization             ....       0.000 sec  (  0.0%)
Density matrix formation    ....       0.037 sec  (  0.2%)
Total Energy calculation    ....       0.015 sec  (  0.1%)
Population analysis         ....       0.117 sec  (  0.5%)
Orbital Transformation      ....       0.053 sec  (  0.2%)
Orbital Orthonormalization  ....       0.000 sec  (  0.0%)
DIIS solution               ....       0.059 sec  (  0.3%)
SOSCF solution              ....       0.168 sec  (  0.8%)
Finished LeanSCF after  22.1 sec

Maximum memory used throughout the entire LEANSCF-calculation: 47.0 MB


-------------------------------------------------------------------------------
                          DFT DISPERSION CORRECTION                            
                                                                               
                              DFTD3 V3.1  Rev 1                                
                          USING Becke-Johnson damping                          
-------------------------------------------------------------------------------
The B3LYP functional is recognized
Active option DFTDOPT                   ...         4   

molecular C6(AA) [au] = 19810.323647 


            DFT-D V3
 parameters
 s6 scaling factor         :     1.0000 
 a1 scaling factor         :     0.3981 
 s8 scaling factor         :     1.9889 
 a2 scaling factor         :     4.4211 
 ad hoc parameters k1-k3   :    16.0000     1.3333    -4.0000 

 Edisp/kcal,au: -64.539046415698  -0.102849506181 
 E6   /kcal   : -30.566260631 
 E8   /kcal   : -33.972785784 
 % E8         :  52.639119527 

-------------------------   ----------------
Dispersion correction           -0.102849506
-------------------------   ----------------


-------------------------   --------------------
FINAL SINGLE POINT ENERGY     -1042.511871987415
-------------------------   --------------------

                                *** OPTIMIZATION RUN DONE ***



           ************************************************************
           *        Program running with 6 parallel MPI-processes     *
           *              working on a common directory               *
           ************************************************************

------------------------------------------------------------------------------
                              ORCA PROPERTY CALCULATIONS
------------------------------------------------------------------------------

GBWName                                 ... data/geom_opt/80970/80970.gbw
Number of atoms                         ...     46
Number of basis functions               ...    405
Max core memory                         ...   1024 MB

Electric properties:
Dipole moment                           ... YES
Quadrupole moment                       ...  NO
Static polarizability (Dipole/Dipole)   ...  NO
Static polarizability (Dipole/Quad.)    ...  NO
Static polarizability (Quad./Quad.)     ...  NO
Static polarizability (Velocity)        ...  NO

Atomic electric properties:
Dipole moment                           ...  NO
Quadrupole moment                       ...  NO
Static polarizability                   ...  NO

Choice of electric origin               ... Center of mass
Position of electric origin             ...    -0.017952     0.535379    -0.277943

General magnetic properties:
Magnetizability                         ...  NO

EPR properties:
g-Tensor (aka g-matrix)                 ...  NO
Zero-Field splitting spin-orbit         ...  NO
Zero-field splitting spin-spin          ...  NO
Hyperfine couplings                     ...  NO (   0 nuclei)
Quadrupole couplings                    ...  NO (   0 nuclei)
Contact density                         ...  NO (   0 nuclei)

NMR properties:
Chemical shifts                         ...  NO (   0 nuclei)
Spin-rotation constants                 ...  NO (   0 nuclei)
Spin-spin couplings                     ...  NO (   0 nuclei,    0 pairs)

Choice of magnetic origin               ... GIAO
Position of magnetic origin             ...     0.000000     0.000000     0.000000

Properties with geometric perturbations:
SCF Hessian                             ...  NO
IR spectrum                             ...  NO
VCD spectrum                            ...  NO
X-ray spectroscopy properties:
SCF XES/XAS/RIXS spectra                ...  NO


-------------
DIPOLE MOMENT
-------------

Method             : SCF
Type of density    : Electron Density
Multiplicity       :   1
Irrep              :   0
Energy             : -1042.4090224812339329 Eh
Relativity type    : 
Basis              : AO
                                X                 Y                 Z
Electronic contribution:     -0.781891823      13.333759641      -5.708841947
Nuclear contribution   :      0.671943846     -13.381990136       6.156790656
                        -----------------------------------------
Total Dipole Moment    :     -0.109947977      -0.048230495       0.447948708
                        -----------------------------------------
Magnitude (a.u.)       :      0.463759403
Magnitude (Debye)      :      1.178782722



--------------------
Rotational spectrum 
--------------------
 
Rotational constants in cm-1:             0.012771             0.009148             0.006256 
Rotational constants in MHz :           382.852023           274.260300           187.551621 

Dipole components along the rotational axes: 
x,y,z [a.u.] :     0.044604    -0.055939     0.458207 
x,y,z [Debye]:     0.113375    -0.142187     1.164671 

 

Dipole moment calculation done in   0.0 sec 

Maximum memory used throughout the entire PROP-calculation: 24.0 MB

--------------------------------
SUGGESTED CITATIONS FOR THIS RUN
--------------------------------

Below you find a list of papers that are relevant to this ORCA run
We neither can nor want to force you to cite these papers, but we appreciate if you do
You receive ORCA, which is the product of decades of hard work by many enthusiastic individuals, for free
The only thing we kindly ask in return is that you cite our papers,
We deeply appreciate it, if you show your appreciation for ORCA by not just citing the generic ORCA reference.

Please note that relegating all ORCA citations to the supporting information does *not* help us.
SI sections are not indexed - citations you put there will not count into any citation statistics
But we need these citations in order to attract the funding resources that allow us to do what we are doing

Therefore, if you are a happy ORCA user, please consider citing a few of the papers listed below in the main body of your paper

In addition to the list printed below, the program has created the file data/geom_opt/80970/80970.bibtex that contains the list in bibtex format
You can import this file easily into all common literature databanks and citation aid programs


List of essential papers. We consider these as the minimum necessary citations

  1. Neese,F.
     Software update: the ORCA program system, version 5.0
     WIRES Comput. Molec. Sci., 2022 12(1)e1606
     doi.org/10.1002/wcms.1606

List of papers to cite with high priority. The work reported in these papers was absolutely
necessary for this run to complete.
Our perspective: the developers of density functionals and basis sets usually get cited in chemistry papers
Good! But without the algorithms to do something with them, the functionals or basis sets would not do anything.
Hence, in our opinion, the algorithm design and method developments papers are equally worthy of getting cited

  1. Neese,F.
     An improvement of the resolution of the identity approximation for the formation of the Coulomb matrix
     J. Comp. Chem., 2003 24(14)1740-1747
     doi.org/10.1002/jcc.10318
  2. Neese,F.
     The SHARK Integral Generation and Digestion System
     J. Comp. Chem., 2022  1-16
     doi.org/10.1002/jcc.26942
  3. Grimme,S.; Antony,J.; Ehrlich,S.; Krieg,H.
     A consistent and accurate ab initio parametrization of density functional dispersion correction (DFT-D) for the 94 elements H-Pu
     J. Chem. Phys., 2010 132 154104-XXXX
     doi.org/10.1063/1.3382344
  4. Grimme,S.; Ehrlich,S.; Goerigk,L.
     Effect of the damping function in dispersion corrected density functional theory
     J. Comput. Chem., 2011 32(7)1456-1465
     doi.org/10.1002/jcc.21759

List of suggested additional citations. These are papers that are important in the 'surrounding' of 
of this run, or papers that preceded the highly important papers. If you like your results we are grateful for a citation.

  1. Neese,F.
     The ORCA program system
     WIRES Comput. Molec. Sci., 2012 2(1)73-78
     doi.org/10.1002/wcms.81
  2. Neese,F.
     Software update: the ORCA program system, version 4.0
     WIRES Comput. Molec. Sci., 2018 8(1)1-6
     doi.org/10.1002/wcms.1327
  3. Neese,F.; Wennmohs,F.; Becker,U.; Riplinger,C.
     The ORCA quantum chemistry program package
     J. Chem. Phys., 2020 152 Art. No. L224108
     doi.org/10.1063/5.0004608

List of optional additional citations

  1. Neese,F.
     Approximate second-order SCF convergence for spin unrestricted wavefunctions
     Chem. Phys. Lett., 2000 325(1-3)93-98
     doi.org/10.1016/s0009-2614(00)00662-x

Timings for individual modules:

Sum of individual times          ...      676.887 sec (=  11.281 min)
Startup calculation              ...       15.095 sec (=   0.252 min)   2.2 %
SCF iterations                   ...      460.017 sec (=   7.667 min)  68.0 %
Property calculations            ...        0.186 sec (=   0.003 min)   0.0 %
SCF Gradient evaluation          ...      201.340 sec (=   3.356 min)  29.7 %
Geometry relaxation              ...        0.249 sec (=   0.004 min)   0.0 %
                             ****ORCA TERMINATED NORMALLY****
TOTAL RUN TIME: 0 days 0 hours 11 minutes 18 seconds 758 msec
