
                                 *****************
                                 * O   R   C   A *
                                 *****************

                                            #,                                       
                                            ###                                      
                                            ####                                     
                                            #####                                    
                                            ######                                   
                                           ########,                                 
                                     ,,################,,,,,                         
                               ,,#################################,,                 
                          ,,##########################################,,             
                       ,#########################################, ''#####,          
                    ,#############################################,,   '####,        
                  ,##################################################,,,,####,       
                ,###########''''           ''''###############################       
              ,#####''   ,,,,##########,,,,          '''####'''          '####       
            ,##' ,,,,###########################,,,                        '##       
           ' ,,###''''                  '''############,,,                           
         ,,##''                                '''############,,,,        ,,,,,,###''
      ,#''                                            '''#######################'''  
     '                                                          ''''####''''         
             ,#######,   #######,   ,#######,      ##                                
            ,#'     '#,  ##    ##  ,#'     '#,    #''#        ,####,   ,####,        
            ##       ##  ##   ,#'  ##            #'  '#       #'       #'  '#        
            ##       ##  #######   ##           ,######,      #####,   #    #        
            '#,     ,#'  ##    ##  '#,     ,#' ,#      #,     #,   #   #,  ,#        
             '#######'   ##     ##  '#######'  #'      '#     '####' # '####'        



                #########################################################
                #                        -***-                          #
                #          Department of theory and spectroscopy        #
                #                                                       #
                #                      Frank Neese                      #
                #                                                       #
                #     Directorship, Architecture, Infrastructure        #
                #                    SHARK, DRIVERS                     #
                #        Core code/Algorithms in most modules           #
                #                                                       #
                #        Max Planck Institute fuer Kohlenforschung      #
                #                Kaiser Wilhelm Platz 1                 #
                #                 D-45470 Muelheim/Ruhr                 #
                #                      Germany                          #
                #                                                       #
                #                  All rights reserved                  #
                #                        -***-                          #
                #########################################################


                         Program Version 6.0.0  -   RELEASE   -


 With contributions from (in alphabetic order):
   Daniel Aravena         : Magnetic Suceptibility
   Michael Atanasov       : Ab Initio Ligand Field Theory (pilot matlab implementation)
   Alexander A. Auer      : GIAO ZORA, VPT2 properties, NMR spectrum
   Ute Becker             : All parallelization in ORCA, NUMFREQ, NUMCALC
   Giovanni Bistoni       : ED, misc. LED, open-shell LED, HFLD
   Martin Brehm           : Molecular dynamics
   Dmytro Bykov           : pre 5.0 version of the SCF Hessian
   Marcos Casanova-Páez   : Triplet and SCS-CIS(D). UHF-(DLPNO)-IP/EA/STEOM-CCSD. UHF-CVS-IP/STEOM-CCSD
   Vijay G. Chilkuri      : MRCI spin determinant printing, contributions to CSF-ICE
   Pauline Colinet        : FMM embedding
   Dipayan Datta          : RHF DLPNO-CCSD density
   Achintya Kumar Dutta   : EOM-CC, STEOM-CC
   Nicolas Foglia         : Exact transition moments, OPA infrastructure, MCD improvements
   Dmitry Ganyushin       : Spin-Orbit,Spin-Spin,Magnetic field MRCI
   Miquel Garcia          : C-PCM and meta-GGA Hessian, CCSD/C-PCM, Gaussian charge scheme
   Tiago L. C. Gouveia    : GS-ROHF, GS-ROCIS
   Yang Guo               : DLPNO-NEVPT2, F12-NEVPT2, CIM, IAO-localization
   Andreas Hansen         : Spin unrestricted coupled pair/coupled cluster methods
   Ingolf Harden          : AUTO-CI MPn and infrastructure 
   Benjamin Helmich-Paris : MC-RPA, TRAH-(SCF,CASSCF), AVAS, COSX integrals, SCF dyn. polar.
   Lee Huntington         : MR-EOM, pCC
   Robert Izsak           : Overlap fitted RIJCOSX, COSX-SCS-MP3, EOM
   Riya Kayal             : Wick's Theorem for AUTO-CI, AUTO-CI UHF-CCSDT
   Emily Kempfer          : AUTO-CI, RHF CISDT and CCSDT
   Christian Kollmar      : KDIIS, OOCD, Brueckner-CCSD(T), CCSD density, CASPT2, CASPT2-K, improved NEVPT2
   Axel Koslowski         : Symmetry handling
   Simone Kossmann        : Meta GGA functionals, TD-DFT gradient, OOMP2, (MP2 Hessian; deprecated post 5.0)
   Lucas Lang             : DCDCAS
   Marvin Lechner         : AUTO-CI (C++ implementation), FIC-MRCC
   Spencer Leger          : CASSCF response
   Dagmar Lenk            : GEPOL surface, SMD, ORCA-2-JSON
   Dimitrios Liakos       : Extrapolation schemes; Compound Job, initial MDCI parallelization
   Dimitrios Manganas     : Further ROCIS development; embedding schemes. LFT, Crystal Embedding
   Dimitrios Pantazis     : SARC Basis sets
   Anastasios Papadopoulos: AUTO-CI, single reference methods and gradients
   Taras Petrenko         : pre 6.0 DFT Hessian and TD-DFT gradient, (ASA, deprecated), ECA, 1-Electron XAS/XES, NRVS
   Peter Pinski           : DLPNO-MP2, DLPNO-MP2 Gradient
   Christoph Reimann      : Effective Core Potentials
   Marius Retegan         : Local ZFS, SOC
   Christoph Riplinger    : Optimizer, TS searches, QM/MM, DLPNO-CCSD(T), (RO)-DLPNO pert. Triples
   Michael Roemelt        : Original ROCIS implementation
   Masaaki Saitow         : Open-shell DLPNO-CCSD energy and density
   Barbara Sandhoefer     : DKH picture change effects
   Kantharuban Sivalingam : CASSCF convergence/infrastructure, NEVPT2 and variants, FIC-MRCI
   Bernardo de Souza      : ESD, SOC TD-DFT
   Georgi Stoychev        : AutoAux, RI-MP2 NMR, DLPNO-MP2 response, X2C
   Van Anh Tran           : RI-MP2 g-tensors
   Willem Van den Heuvel  : Paramagnetic NMR
   Zikuan Wang            : NOTCH, Electric field optimization 
   Frank Wennmohs         : Technical directorship and infrastructure
   Hang Xu                : AUTO-CI-Response properties 


 We gratefully acknowledge several colleagues who have allowed us to
 interface, adapt or use parts of their codes:
   Stefan Grimme, W. Hujo, H. Kruse, P. Pracht,  : VdW corrections, initial TS optimization,
                  C. Bannwarth, S. Ehlert,         DFT functionals, gCP, sTDA/sTD-DF
                  L. Wittmann, M. Mueller
   Ed Valeev, F. Pavosevic, A. Kumar             : LibInt (2-el integral package), F12 methods
   Garnet Chan, S. Sharma, J. Yang, R. Olivares  : DMRG
   Ulf Ekstrom                                   : XCFun DFT Library
   Mihaly Kallay                                 : mrcc  (arbitrary order and MRCC methods)
   Frank Weinhold                                : gennbo (NPA and NBO analysis)
   Simon Mueller                                 : openCOSMO-RS
   Christopher J. Cramer and Donald G. Truhlar   : smd solvation model
   Lars Goerigk                                  : TD-DFT with DH, B97 family of functionals
   V. Asgeirsson, H. Jonsson                     : NEB implementation
   FAccTs GmbH                                   : IRC, NEB, NEB-TS, DLPNO-Multilevel, CI-OPT
                                                   MM, QMMM, 2- and 3-layer-ONIOM, Crystal-QMMM,
                                                   LR-CPCM, SF, NACMEs, symmetry and pop. for TD-DFT,
                                                   nearIR, NL-DFT gradient (VV10), updates on ESD,
                                                   ML-optimized integration grids, MBIS, APM,
                                                   GOAT, DOCKER, SOLVATOR, interface openCOSMO-RS
   S Lehtola, MJT Oliveira, MAL Marques          : LibXC Library
   Liviu Ungur et al                             : ANISO software


 Your calculation uses the libint2 library for the computation of 2-el integrals
 For citations please refer to: http://libint.valeyev.net

 Your ORCA version has been built with support for libXC version: 6.2.2
 For citations please refer to: https://libxc.gitlab.io

 This ORCA versions uses:
   CBLAS   interface :  Fast vector & matrix operations
   LAPACKE interface :  Fast linear algebra routines
   Shared memory     :  Shared parallel matrices


Your calculation utilizes the atom-pairwise dispersion correction
with the zero-damping scheme (D30)


XCFun DFT library Copyright 2009-2010 Ulf Ekstrom and contributors.
See http://admol.org/xcfun for more information.
This is free software; see the source code for copying conditions.
There is ABSOLUTELY NO WARRANTY; not even for MERCHANTABILITY or FITNESS FOR A PARTICULAR PURPOSE.
For details see the documentation.
Scientific users of this library should cite U. Ekstrom, L. Visscher, R. Bast, A. J. Thorvaldsen and K. Ruud;
J.Chem.Theor.Comp. 2010, DOI: 10.1021/ct100117s
XCFun Version 0.99 

Warning: RI is on but no J-basis has been assigned. Assigning Def2/J (nothing to worry about!)
================================================================================

----- Orbital basis set information -----
Your calculation utilizes the basis: def2-TZVP
   F. Weigend and R. Ahlrichs, Phys. Chem. Chem. Phys. 7, 3297 (2005).

----- AuxJ basis set information -----
Your calculation utilizes the auxiliary basis: def2/J
   F. Weigend, Phys. Chem. Chem. Phys. 8, 1057 (2006).

================================================================================
                                        WARNINGS
                       Please study these warnings very carefully!
================================================================================

WARNING: Functional chosen is sensitive to the integration grid.
         DEFGRID3 seems to be a minimum grid for robust results!

================================================================================
                                       INPUT FILE
================================================================================
NAME = data/single_point_P_M06-2x/342156/342156.inp
|  1> ! RIJCOSX M062X def2-TZVP D3ZERO NormalSCF
|  2> %pal
|  3> nprocs 6
|  4> end
|  5> 
|  6> * xyz 0 1
|  7>   C           3.17896851324540     -1.18395060802024     -0.69076934015513
|  8>   C           2.98886205907192     -1.06887254153711      0.69533783975342
|  9>   C           1.76175392958731     -0.60481949173433      1.19940281222683
| 10>   C           0.71233530917175     -0.25129874126695      0.32488128412032
| 11>   C           0.91580984724251     -0.37144438572477     -1.06796678558033
| 12>   C           2.14016351793157     -0.83439399379180     -1.57240462425017
| 13>   P          -0.87349597172309      0.35177095296410      1.07925231470252
| 14>   C          -2.10210431421787     -0.73790720978657      0.16528732949627
| 15>   C          -1.93938523116783     -2.21326310883763      0.58195530868174
| 16>   C          -2.90443357273403     -3.09383994141525     -0.07983001543068
| 17>   N          -3.68644722484317     -3.77649536221721     -0.62257640009253
| 18>   C          -1.12662411166922      1.92866664647777      0.08810017424161
| 19>   C          -0.02902955842993      2.96130866996669      0.41317672257777
| 20>   C          -0.21699982712409      4.22570918049619     -0.30139473075983
| 21>   N          -0.38928698678191      5.22674286969954     -0.88482896721566
| 22>   H           4.13896065479564     -1.54721617438534     -1.08813957058603
| 23>   H           3.79885088611671     -1.34148213431314      1.38904113345554
| 24>   H           1.60920972334346     -0.51331747011119      2.28678180167882
| 25>   H           0.11275689696656     -0.10222686799100     -1.77283342082954
| 26>   H           2.28601848412749     -0.92347640482848     -2.65985563122093
| 27>   H          -1.98896852576451     -0.63683088548845     -0.93485915107234
| 28>   H          -3.11972971024524     -0.37715722881686      0.42347327718643
| 29>   H          -0.91462862296479     -2.56848971180434      0.33729082098911
| 30>   H          -2.05321976970214     -2.32211196484385      1.68235568166983
| 31>   H          -1.14434336350964      1.72013806827748     -1.00252827265095
| 32>   H          -2.12442811967661      2.33221527145270      0.35981533119434
| 33>   H           0.97005523627406      2.55270413525643      0.14699618959443
| 34>   H          -0.00061814732030      3.16933743232364      1.50484088827514
| 35> **                         ****END OF INPUT****
================================================================================

                       ****************************
                       * Single Point Calculation *
                       ****************************

---------------------------------
CARTESIAN COORDINATES (ANGSTROEM)
---------------------------------
  C      3.178969   -1.183951   -0.690769
  C      2.988862   -1.068873    0.695338
  C      1.761754   -0.604819    1.199403
  C      0.712335   -0.251299    0.324881
  C      0.915810   -0.371444   -1.067967
  C      2.140164   -0.834394   -1.572405
  P     -0.873496    0.351771    1.079252
  C     -2.102104   -0.737907    0.165287
  C     -1.939385   -2.213263    0.581955
  C     -2.904434   -3.093840   -0.079830
  N     -3.686447   -3.776495   -0.622576
  C     -1.126624    1.928667    0.088100
  C     -0.029030    2.961309    0.413177
  C     -0.217000    4.225709   -0.301395
  N     -0.389287    5.226743   -0.884829
  H      4.138961   -1.547216   -1.088140
  H      3.798851   -1.341482    1.389041
  H      1.609210   -0.513317    2.286782
  H      0.112757   -0.102227   -1.772833
  H      2.286018   -0.923476   -2.659856
  H     -1.988969   -0.636831   -0.934859
  H     -3.119730   -0.377157    0.423473
  H     -0.914629   -2.568490    0.337291
  H     -2.053220   -2.322112    1.682356
  H     -1.144343    1.720138   -1.002528
  H     -2.124428    2.332215    0.359815
  H      0.970055    2.552704    0.146996
  H     -0.000618    3.169337    1.504841

----------------------------
CARTESIAN COORDINATES (A.U.)
----------------------------
  NO LB      ZA    FRAG     MASS         X           Y           Z
   0 C     6.0000    0    12.011    6.007380   -2.237342   -1.305365
   1 C     6.0000    0    12.011    5.648131   -2.019876    1.313998
   2 C     6.0000    0    12.011    3.329232   -1.142943    2.266543
   3 C     6.0000    0    12.011    1.346119   -0.474886    0.613937
   4 C     6.0000    0    12.011    1.730630   -0.701928   -2.018165
   5 C     6.0000    0    12.011    4.044323   -1.576776   -2.971414
   6 P    15.0000    0    30.974   -1.650668    0.664751    2.039491
   7 C     6.0000    0    12.011   -3.972401   -1.394443    0.312348
   8 C     6.0000    0    12.011   -3.664907   -4.182461    1.099736
   9 C     6.0000    0    12.011   -5.488584   -5.846510   -0.150857
  10 N     7.0000    0    14.007   -6.966376   -7.136542   -1.176499
  11 C     6.0000    0    12.011   -2.129011    3.644652    0.166485
  12 C     6.0000    0    12.011   -0.054858    5.596062    0.780791
  13 C     6.0000    0    12.011   -0.410070    7.985433   -0.569553
  14 N     7.0000    0    14.007   -0.735646    9.877113   -1.672084
  15 H     1.0000    0     1.008    7.821502   -2.923815   -2.056286
  16 H     1.0000    0     1.008    7.178788   -2.535034    2.624907
  17 H     1.0000    0     1.008    3.040966   -0.970029    4.321391
  18 H     1.0000    0     1.008    0.213080   -0.193181   -3.350170
  19 H     1.0000    0     1.008    4.319949   -1.745117   -5.026399
  20 H     1.0000    0     1.008   -3.758606   -1.203436   -1.766628
  21 H     1.0000    0     1.008   -5.895435   -0.712724    0.800249
  22 H     1.0000    0     1.008   -1.728398   -4.853742    0.637387
  23 H     1.0000    0     1.008   -3.880023   -4.388156    3.179191
  24 H     1.0000    0     1.008   -2.162496    3.250590   -1.894504
  25 H     1.0000    0     1.008   -4.014587    4.407248    0.679952
  26 H     1.0000    0     1.008    1.833139    4.823912    0.277783
  27 H     1.0000    0     1.008   -0.001168    5.989180    2.843737

--------------------------------
INTERNAL COORDINATES (ANGSTROEM)
--------------------------------
 C      0   0   0     0.000000000000     0.00000000     0.00000000
 C      1   0   0     1.403807871291     0.00000000     0.00000000
 C      2   1   0     1.405425590685   119.96304737     0.00000000
 C      3   2   1     1.411043679341   120.65030185     0.00000000
 C      4   3   2     1.412750016384   118.85639213     0.00000000
 C      5   4   3     1.402790712694   120.55087018     0.00000000
 P      4   3   2     1.856779351282   117.69506425   179.99809573
 C      7   4   3     1.879417184078    99.92950730   229.86670174
 C      8   7   4     1.541675949651   110.75811541    67.51374925
 C      9   8   7     1.464477270169   112.56551105   178.39361062
 N     10   9   8     1.171382693102   178.65846211     1.05346760
 C      7   4   3     1.879642638640    99.97755875   129.66510937
 C     12   7   4     1.541667316334   110.78547511   293.44352248
 C     13  12   7     1.464463667991   112.58455022   182.13803168
 N     14  13  12     1.171386708381   178.67967750   358.94061819
 H      1   2   3     1.100658840685   120.10905702   180.00718828
 H      2   1   3     1.100737093817   120.15339509   179.98945506
 H      3   2   1     1.101832755694   120.14912005   179.99899894
 H      5   4   3     1.101911560103   120.32621739   179.99253959
 H      6   5   4     1.100799273111   119.84051944   179.99882971
 H      8   7   4     1.110557701639   111.24628907   304.68221144
 H      8   7   4     1.110118002284   107.32166854   187.81562489
 H      9   8   7     1.111833061682   110.09383842   299.46993603
 H      9   8   7     1.111614751832   110.51433318    56.61719308
 H     12   7   4     1.110526248669   111.25252412    56.30939390
 H     12   7   4     1.110087139657   107.27476925   173.15873402
 H     13  12   7     1.111746449931   110.06816435    61.06418694
 H     13  12   7     1.111671635384   110.52436926   303.92711071

---------------------------
INTERNAL COORDINATES (A.U.)
---------------------------
 C      0   0   0     0.000000000000     0.00000000     0.00000000
 C      1   0   0     2.652812421383     0.00000000     0.00000000
 C      2   1   0     2.655869468000   119.96304737     0.00000000
 C      3   2   1     2.666486116955   120.65030185     0.00000000
 C      4   3   2     2.669710626659   118.85639213     0.00000000
 C      5   4   3     2.650890270200   120.55087018     0.00000000
 P      4   3   2     3.508804465042   117.69506425   179.99809573
 C      7   4   3     3.551583769292    99.92950730   229.86670174
 C      8   7   4     2.913345332093   110.75811541    67.51374925
 C      9   8   7     2.767460969973   112.56551105   178.39361062
 N     10   9   8     2.213592487978   178.65846211     1.05346760
 C      7   4   3     3.552009816671    99.97755875   129.66510937
 C     12   7   4     2.913329017490   110.78547511   293.44352248
 C     13  12   7     2.767435265580   112.58455022   182.13803168
 N     14  13  12     2.213600075756   178.67967750   358.94061819
 H      1   2   3     2.079943775773   120.10905702   180.00718828
 H      2   1   3     2.080091652762   120.15339509   179.98945506
 H      3   2   1     2.082162153646   120.14912005   179.99899894
 H      5   4   3     2.082311072397   120.32621739   179.99253959
 H      6   5   4     2.080209154599   119.84051944   179.99882971
 H      8   7   4     2.098649912015   111.24628907   304.68221144
 H      8   7   4     2.097819000652   107.32166854   187.81562489
 H      9   8   7     2.101059993218   110.09383842   299.46993603
 H      9   8   7     2.100647447388   110.51433318    56.61719308
 H     12   7   4     2.098590474516   111.25252412    56.30939390
 H     12   7   4     2.097760678740   107.27476925   173.15873402
 H     13  12   7     2.100896320728   110.06816435    61.06418694
 H     13  12   7     2.100754941724   110.52436926   303.92711071

---------------------
BASIS SET INFORMATION
---------------------
There are 4 groups of distinct atoms

 Group   1 Type C   : 11s6p2d1f contracted to 5s3p2d1f pattern {62111/411/11/1}
 Group   2 Type P   : 14s9p3d1f contracted to 5s5p2d1f pattern {73211/51111/21/1}
 Group   3 Type N   : 11s6p2d1f contracted to 5s3p2d1f pattern {62111/411/11/1}
 Group   4 Type H   : 5s1p contracted to 3s1p pattern {311/1}

Atom   0C    basis set group =>   1
Atom   1C    basis set group =>   1
Atom   2C    basis set group =>   1
Atom   3C    basis set group =>   1
Atom   4C    basis set group =>   1
Atom   5C    basis set group =>   1
Atom   6P    basis set group =>   2
Atom   7C    basis set group =>   1
Atom   8C    basis set group =>   1
Atom   9C    basis set group =>   1
Atom  10N    basis set group =>   3
Atom  11C    basis set group =>   1
Atom  12C    basis set group =>   1
Atom  13C    basis set group =>   1
Atom  14N    basis set group =>   3
Atom  15H    basis set group =>   4
Atom  16H    basis set group =>   4
Atom  17H    basis set group =>   4
Atom  18H    basis set group =>   4
Atom  19H    basis set group =>   4
Atom  20H    basis set group =>   4
Atom  21H    basis set group =>   4
Atom  22H    basis set group =>   4
Atom  23H    basis set group =>   4
Atom  24H    basis set group =>   4
Atom  25H    basis set group =>   4
Atom  26H    basis set group =>   4
Atom  27H    basis set group =>   4
---------------------------------
AUXILIARY/J BASIS SET INFORMATION
---------------------------------
There are 4 groups of distinct atoms

 Group   1 Type C   : 12s5p4d2f1g contracted to 6s4p3d1f1g pattern {711111/2111/211/2/1}
 Group   2 Type P   : 14s5p5d2f1g contracted to 8s4p3d1f1g pattern {71111111/2111/311/2/1}
 Group   3 Type N   : 12s5p4d2f1g contracted to 6s4p3d1f1g pattern {711111/2111/211/2/1}
 Group   4 Type H   : 5s2p1d contracted to 3s1p1d pattern {311/2/1}

Atom   0C    basis set group =>   1
Atom   1C    basis set group =>   1
Atom   2C    basis set group =>   1
Atom   3C    basis set group =>   1
Atom   4C    basis set group =>   1
Atom   5C    basis set group =>   1
Atom   6P    basis set group =>   2
Atom   7C    basis set group =>   1
Atom   8C    basis set group =>   1
Atom   9C    basis set group =>   1
Atom  10N    basis set group =>   3
Atom  11C    basis set group =>   1
Atom  12C    basis set group =>   1
Atom  13C    basis set group =>   1
Atom  14N    basis set group =>   3
Atom  15H    basis set group =>   4
Atom  16H    basis set group =>   4
Atom  17H    basis set group =>   4
Atom  18H    basis set group =>   4
Atom  19H    basis set group =>   4
Atom  20H    basis set group =>   4
Atom  21H    basis set group =>   4
Atom  22H    basis set group =>   4
Atom  23H    basis set group =>   4
Atom  24H    basis set group =>   4
Atom  25H    basis set group =>   4
Atom  26H    basis set group =>   4
Atom  27H    basis set group =>   4


           ************************************************************
           *        Program running with 6 parallel MPI-processes     *
           *              working on a common directory               *
           ************************************************************
------------------------------------------------------------------------------
                             ORCA STARTUP CALCULATIONS
                           -- RI-GTO INTEGRALS CHOSEN --
------------------------------------------------------------------------------
------------------------------------------------------------------------------
                   ___                                                        
                  /   \      - P O W E R E D   B Y -                         
                 /     \                                                     
                 |  |  |   _    _      __       _____    __    __             
                 |  |  |  | |  | |    /  \     |  _  \  |  |  /  |          
                  \  \/   | |  | |   /    \    | | | |  |  | /  /          
                 / \  \   | |__| |  /  /\  \   | |_| |  |  |/  /          
                |  |  |   |  __  | /  /__\  \  |    /   |      \           
                |  |  |   | |  | | |   __   |  |    \   |  |\   \          
                \     /   | |  | | |  |  |  |  | |\  \  |  | \   \       
                 \___/    |_|  |_| |__|  |__|  |_| \__\ |__|  \__/        
                                                                              
                      - O R C A' S   B I G   F R I E N D -                    
                                      &                                       
                       - I N T E G R A L  F E E D E R -                       
                                                                              
 v1 FN, 2020, v2 2021, v3 2022-2024                                           
------------------------------------------------------------------------------


----------------------
SHARK INTEGRAL PACKAGE
----------------------

Number of atoms                             ...     28
Number of basis functions                   ...    549
Number of shells                            ...    219
Maximum angular momentum                    ...      3
Integral batch strategy                     ... SHARK/LIBINT Hybrid
RI-J (if used) integral strategy            ... SPLIT-RIJ (Revised 2003 algorithm where possible)
Printlevel                                  ...      1
Contraction scheme used                     ... SEGMENTED contraction
Prescreening option                         ... SCHWARTZ
   Thresh                                   ... 1.000e-10
   Tcut                                     ... 1.000e-11
   Tpresel                                  ... 1.000e-11 
Coulomb Range Separation                    ... NOT USED
Exchange Range Separation                   ... NOT USED
Multipole approximations                    ... NOT USED
Finite Nucleus Model                        ... NOT USED
CABS basis                                  ... NOT available
Auxiliary Coulomb fitting basis             ... AVAILABLE
   # of basis functions in Aux-J            ...    880
   # of shells in Aux-J                     ...    292
   Maximum angular momentum in Aux-J        ...      4
Auxiliary J/K fitting basis                 ... NOT available
Auxiliary Correlation fitting basis         ... NOT available
Auxiliary 'external' fitting basis          ... NOT available

Checking pre-screening integrals            ... done (  0.0 sec) Dimension = 219
Check shell pair data                       ... done (  0.0 sec)
Shell pair information
Shell pair cut-off parameter TPreSel        ...   1.0e-11
Total number of shell pairs                 ...     24090
Shell pairs after pre-screening             ...     18329
Total number of primitive shell pairs       ...     74688
Primitive shell pairs kept                  ...     38687
          la=0 lb=0:   4891 shell pairs
          la=1 lb=0:   5366 shell pairs
          la=1 lb=1:   1527 shell pairs
          la=2 lb=0:   2506 shell pairs
          la=2 lb=1:   1427 shell pairs
          la=2 lb=2:    347 shell pairs
          la=3 lb=0:   1202 shell pairs
          la=3 lb=1:    679 shell pairs
          la=3 lb=2:    304 shell pairs
          la=3 lb=3:     80 shell pairs

Calculating one electron integrals          ... done (  0.0 sec)
Calculating RI/J V-Matrix + Cholesky decomp.... done (  0.0 sec)
Calculating Nuclear repulsion               ... done (  0.0 sec) ENN=    971.798373701495 Eh

Diagonalization of the overlap matrix:
Smallest eigenvalue                        ... 8.400e-06
Time for diagonalization                   ...    0.049 sec
Threshold for overlap eigenvalues          ... 1.000e-07
Number of eigenvalues below threshold      ... 0
Time for construction of square roots      ...    0.025 sec
Total time needed                          ...    0.076 sec

-------------------
DFT GRID GENERATION
-------------------

General Integration Accuracy     IntAcc      ... 4.388
Radial Grid Type                 RadialGrid  ... OptM3 with GC (2021)
Angular Grid (max. ang.)         AngularGrid ... 4 (Lebedev-302)
Angular grid pruning method      GridPruning ... 4 (adaptive)
Weight generation scheme         WeightScheme... mBecke (2022)
Basis function cutoff            BFCut       ... 1.0000e-10
Integration weight cutoff        WCut        ... 1.0000e-14
Partially contracted basis set               ... off
Rotationally invariant grid construction     ... off
Angular grids for H and He will be reduced by one unit

Total number of grid points                  ...   132687
Total number of batches                      ...     2088
Average number of points per batch           ...       63
Average number of grid points per atom       ...     4739

--------------------
COSX GRID GENERATION
--------------------

GRIDX 1
-------
General Integration Accuracy     IntAcc      ... 3.816
Radial Grid Type                 RadialGrid  ... OptM3 with GC (2021)
Angular Grid (max. ang.)         AngularGrid ... 1 (Lebedev-50)
Angular grid pruning method      GridPruning ... 4 (adaptive)
Weight generation scheme         WeightScheme... mBecke (2022)
Basis function cutoff            BFCut       ... 1.0000e-10
Integration weight cutoff        WCut        ... 1.0000e-14
Partially contracted basis set               ... on
Rotationally invariant grid construction     ... off
Angular grids for H and He will be reduced by one unit

Total number of grid points                  ...    17857
Total number of batches                      ...      152
Average number of points per batch           ...      117
Average number of grid points per atom       ...      638
UseSFitting                                  ... on

GRIDX 2
-------
General Integration Accuracy     IntAcc      ... 4.020
Radial Grid Type                 RadialGrid  ... OptM3 with GC (2021)
Angular Grid (max. ang.)         AngularGrid ... 2 (Lebedev-110)
Angular grid pruning method      GridPruning ... 4 (adaptive)
Weight generation scheme         WeightScheme... mBecke (2022)
Basis function cutoff            BFCut       ... 1.0000e-10
Integration weight cutoff        WCut        ... 1.0000e-14
Partially contracted basis set               ... on
Rotationally invariant grid construction     ... off
Angular grids for H and He will be reduced by one unit

Total number of grid points                  ...    36481
Total number of batches                      ...      301
Average number of points per batch           ...      121
Average number of grid points per atom       ...     1303
UseSFitting                                  ... on

GRIDX 3
-------
General Integration Accuracy     IntAcc      ... 4.338
Radial Grid Type                 RadialGrid  ... OptM3 with GC (2021)
Angular Grid (max. ang.)         AngularGrid ... 3 (Lebedev-194)
Angular grid pruning method      GridPruning ... 4 (adaptive)
Weight generation scheme         WeightScheme... mBecke (2022)
Basis function cutoff            BFCut       ... 1.0000e-10
Integration weight cutoff        WCut        ... 1.0000e-14
Partially contracted basis set               ... on
Rotationally invariant grid construction     ... off
Angular grids for H and He will be reduced by one unit

Total number of grid points                  ...    80294
Total number of batches                      ...      640
Average number of points per batch           ...      125
Average number of grid points per atom       ...     2868
UseSFitting                                  ... on
Initializing property integral containers    ... done (  0.0 sec)

SHARK setup successfully completed in   2.5 seconds

Maximum memory used throughout the entire STARTUP-calculation: 49.9 MB


           ************************************************************
           *        Program running with 6 parallel MPI-processes     *
           *              working on a common directory               *
           ************************************************************
-------------------------------------------------------------------------------
                                 ORCA GUESS
                   Start orbitals & Density for SCF / CASSCF
-------------------------------------------------------------------------------

------------
SCF SETTINGS
------------
Hamiltonian:
 Density Functional     Method          .... DFT(GTOs)
 Exchange Functional    Exchange        .... M062X
 Correlation Functional Correlation     .... M062X
 Gradients option       PostSCFGGA      .... off
 Hybrid DFT is turned on
   Fraction HF Exchange ScalHFX         ....  0.540000
   Scaling of DF-GGA-X  ScalDFX         ....  0.460000
   Scaling of DF-GGA-C  ScalDFC         ....  1.000000
   Scaling of DF-LDA-C  ScalLDAC        ....  1.000000
   Perturbative correction              ....  0.000000
 RI-approximation to the Coulomb term is turned on
   Number of AuxJ basis functions       .... 880
   RIJ-COSX (HFX calculated with COS-X)).... on


General Settings:
 Integral files         IntName         .... data/single_point_P_M06-2x/342156/342156
 Hartree-Fock type      HFTyp           .... RHF
 Total Charge           Charge          ....    0
 Multiplicity           Mult            ....    1
 Number of Electrons    NEL             ....  114
 Basis Dimension        Dim             ....  549
 Nuclear Repulsion      ENuc            ....    971.7983737015 Eh

Convergence Acceleration:
 AO-DIIS                CNVDIIS         .... on
   Start iteration      DIISMaxIt       ....    12
   Startup error        DIISStart       ....  0.200000
   # of expansion vecs  DIISMaxEq       ....     5
   Bias factor          DIISBfac        ....   1.050
   Max. coefficient     DIISMaxC        ....  10.000
 MO-DIIS                CNVKDIIS        .... off
 Trust-Rad. Augm. Hess. CNVTRAH         .... auto
   Auto Start mean grad. ratio tolernc. ....  1.125000
   Auto Start start iteration           ....    50
   Auto Start num. interpolation iter.  ....    10
   Max. Number of Micro iterations      ....    24
   Max. Number of Macro iterations      .... Maxiter - #DIIS iter
   Number of Davidson start vectors     ....     2
   Converg. threshold    (grad. norm)   ....   5.000e-05
   Grad. Scal. Fac. for Micro threshold ....   0.100
   Minimum threshold for Micro iter.    ....   1.000e-02
   NR start threshold (gradient norm)   ....   1.000e-04
   Initial trust radius                 ....   0.400
   Minimum AH scaling param. (alpha)    ....   1.000
   Maximum AH scaling param. (alpha)    .... 1000.000
   Quad. conv. algorithm                .... NR
   White noise on init. David. guess    .... on
   Maximum white noise                  ....   0.010
   Pseudo random numbers                .... off
   Inactive MOs                         .... canonical
   Orbital update algorithm             .... Taylor
   Preconditioner                       .... Diag
   Full preconditioner red. dimension   ....   250
 SOSCF                  CNVSOSCF        .... on
   Start iteration      SOSCFMaxIt      ....   150
   Startup grad/error   SOSCFStart      ....  0.003300
   Hessian update       SOSCFHessUp     .... L-BFGS
 Level Shifting         CNVShift        .... on
   Level shift para.    LevelShift      ....    0.2500
   Turn off err/grad.   ShiftErr        ....    0.0010
 Zerner damping         CNVZerner       .... off
 Static damping         CNVDamp         .... on
   Fraction old density DampFac         ....    0.7000
   Max. Damping (<1)    DampMax         ....    0.9800
   Min. Damping (>=0)   DampMin         ....    0.0000
   Turn off err/grad.   DampErr         ....    0.1000

SCF Procedure:
 Maximum # iterations   MaxIter         ....   125
 SCF integral mode      SCFMode         .... Direct
   Integral package                     .... SHARK and LIBINT hybrid scheme
 Reset frequency        DirectResetFreq ....    20
 Integral Threshold     Thresh          ....  1.000e-10 Eh
 Primitive CutOff       TCut            ....  1.000e-11 Eh

Convergence Tolerance:
 Convergence Check Mode ConvCheckMode   .... Total+1el-Energy
 Convergence forced     ConvForced      .... 0
 Energy Change          TolE            ....  1.000e-06 Eh
 1-El. energy change                    ....  1.000e-03 Eh
 Orbital Gradient       TolG            ....  5.000e-05
 Orbital Rotation angle TolX            ....  5.000e-05
 DIIS Error             TolErr          ....  1.000e-05

------------------------------
INITIAL GUESS: MODEL POTENTIAL
------------------------------
Loading Hartree-Fock densities                     ... done
Calculating cut-offs                               ... done
Initializing the effective Hamiltonian             ... done
Setting up the integral package (SHARK)            ... done
Starting the Coulomb interaction                   ... done (   0.2 sec)
Making the grid                                    ... done (   0.2 sec)
Mapping shells                                     ... done
Starting the XC term evaluation                    ... done (   0.2 sec)
  promolecular density results
     # of electrons  =    113.992601149
     EX              =   -100.579715211
     EC              =     -3.817961268
     EX+EC           =   -104.397676479
Transforming the Hamiltonian                       ... done (   0.0 sec)
Diagonalizing the Hamiltonian                      ... done (   0.0 sec)
Back transforming the eigenvectors                 ... done (   0.0 sec)
Now organizing SCF variables                       ... done
                      ------------------
                      INITIAL GUESS DONE (   0.8 sec)
                      ------------------
             **** ENERGY FILE WAS UPDATED (data/single_point_P_M06-2x/342156/342156.en.tmp) ****
Finished Guess after   0.9 sec
Maximum memory used throughout the entire GUESS-calculation: 35.0 MB


           ************************************************************
           *        Program running with 6 parallel MPI-processes     *
           *              working on a common directory               *
           ************************************************************

-------------------------------------------------------------------------------------------
                                      ORCA LEAN-SCF
                              memory conserving SCF solver
-------------------------------------------------------------------------------------------

----------------------------------------D-I-I-S--------------------------------------------
Iteration    Energy (Eh)           Delta-E    RMSDP     MaxDP     DIISErr   Damp  Time(sec)
-------------------------------------------------------------------------------------------
               ***  Starting incremental Fock matrix formation  ***
    1    -915.4613333079736321     0.00e+00  1.35e-03  6.43e-02  2.75e-01  0.700   7.7
    2    -915.6502367102685866    -1.89e-01  1.09e-03  6.34e-02  1.24e-01  0.700   4.7
                               ***Turning on AO-DIIS***
    3    -915.7329173004285394    -8.27e-02  6.44e-04  1.98e-02  4.14e-02  0.700   4.4
    4    -915.7827984142739979    -4.99e-02  1.46e-03  4.82e-02  2.82e-02  0.000   4.2
    5    -915.8907086217710685    -1.08e-01  1.89e-04  1.38e-02  8.64e-03  0.000   4.4
                              *** Initializing SOSCF ***
---------------------------------------S-O-S-C-F--------------------------------------
Iteration    Energy (Eh)           Delta-E    RMSDP     MaxDP     MaxGrad    Time(sec)
--------------------------------------------------------------------------------------
    6    -915.8911177786709459    -4.09e-04  8.29e-05  6.07e-03  1.68e-03     4.1
               *** Restarting incremental Fock matrix formation ***
    7    -915.8911225213540774    -4.74e-06  7.99e-05  3.64e-03  2.91e-04     7.5
    8    -915.8911255493061390    -3.03e-06  4.49e-05  2.78e-03  3.16e-04     5.4
    9    -915.8911273675633993    -1.82e-06  2.96e-05  1.39e-03  1.12e-04     5.1
   10    -915.8911278332033135    -4.66e-07  4.22e-06  2.22e-04  2.39e-05     5.0
                 **** Energy Check signals convergence ****

               *****************************************************
               *                     SUCCESS                       *
               *           SCF CONVERGED AFTER  10 CYCLES          *
               *****************************************************

Recomputing exchange energy using gridx3       ... done (   10.566 sec)
Old exchange energy                            :    -55.317905439 Eh
New exchange energy                            :    -55.317896489 Eh
Exchange energy change after final integration :      0.000008950 Eh
Total energy after final integration           :   -915.891118883 Eh
             **** ENERGY FILE WAS UPDATED (data/single_point_P_M06-2x/342156/342156.en.tmp) ****

----------------
TOTAL SCF ENERGY
----------------

Total Energy       :       -915.89111888277682 Eh          -24922.66439 eV

Components:
Nuclear Repulsion  :        971.79837370149528 Eh           26443.97813 eV
Electronic Energy  :      -1887.68950153469859 Eh          -51366.64277 eV
One Electron Energy:      -3175.80319661911881 Eh          -86417.99839 eV
Two Electron Energy:       1288.11369508442021 Eh           35051.35562 eV

Virial components:
Potential Energy   :      -1827.46777008056688 Eh          -49727.92614 eV
Kinetic Energy     :        911.57665119779017 Eh           24805.26175 eV
Virial Ratio       :          2.00473297300816

DFT components:
N(Alpha)           :       56.999970599587 electrons
N(Beta)            :       56.999970599587 electrons
N(Total)           :      113.999941199174 electrons
E(XC)              :      -51.263282079803 Eh       

---------------
SCF CONVERGENCE
---------------

  Last Energy change         ...    4.6564e-07  Tolerance :   1.0000e-06
  Last MAX-Density change    ...    2.2223e-04  Tolerance :   1.0000e-05
  Last RMS-Density change    ...    4.2242e-06  Tolerance :   1.0000e-06
  Last DIIS Error            ...    1.6798e-03  Tolerance :   1.0000e-05
  Last Orbital Gradient      ...    2.3938e-05  Tolerance :   5.0000e-05
  Last Orbital Rotation      ...    5.4606e-05  Tolerance :   5.0000e-05


----------------
ORBITAL ENERGIES
----------------

  NO   OCC          E(Eh)            E(eV) 
   0   2.0000     -78.055506     -2123.9983 
   1   2.0000     -14.760480      -401.6531 
   2   2.0000     -14.760458      -401.6525 
   3   2.0000     -10.605509      -288.5906 
   4   2.0000     -10.605469      -288.5895 
   5   2.0000     -10.586999      -288.0869 
   6   2.0000     -10.586989      -288.0866 
   7   2.0000     -10.581998      -287.9508 
   8   2.0000     -10.581976      -287.9502 
   9   2.0000     -10.578738      -287.8621 
  10   2.0000     -10.577987      -287.8417 
  11   2.0000     -10.576363      -287.7975 
  12   2.0000     -10.575295      -287.7684 
  13   2.0000     -10.574309      -287.7416 
  14   2.0000     -10.573342      -287.7153 
  15   2.0000      -6.871554      -186.9845 
  16   2.0000      -4.985972      -135.6752 
  17   2.0000      -4.985739      -135.6689 
  18   2.0000      -4.985548      -135.6637 
  19   2.0000      -1.013901       -27.5897 
  20   2.0000      -1.013696       -27.5841 
  21   2.0000      -0.981220       -26.7004 
  22   2.0000      -0.926604       -25.2142 
  23   2.0000      -0.911064       -24.7913 
  24   2.0000      -0.868237       -23.6259 
  25   2.0000      -0.865392       -23.5485 
  26   2.0000      -0.804862       -21.9014 
  27   2.0000      -0.753747       -20.5105 
  28   2.0000      -0.716461       -19.4959 
  29   2.0000      -0.708257       -19.2727 
  30   2.0000      -0.650780       -17.7086 
  31   2.0000      -0.608123       -16.5479 
  32   2.0000      -0.605411       -16.4741 
  33   2.0000      -0.586318       -15.9545 
  34   2.0000      -0.572317       -15.5735 
  35   2.0000      -0.566556       -15.4168 
  36   2.0000      -0.543615       -14.7925 
  37   2.0000      -0.539534       -14.6815 
  38   2.0000      -0.513764       -13.9802 
  39   2.0000      -0.509735       -13.8706 
  40   2.0000      -0.489061       -13.3080 
  41   2.0000      -0.488443       -13.2912 
  42   2.0000      -0.469756       -12.7827 
  43   2.0000      -0.462819       -12.5939 
  44   2.0000      -0.461776       -12.5656 
  45   2.0000      -0.452332       -12.3086 
  46   2.0000      -0.446353       -12.1459 
  47   2.0000      -0.428362       -11.6563 
  48   2.0000      -0.421513       -11.4699 
  49   2.0000      -0.400237       -10.8910 
  50   2.0000      -0.395740       -10.7686 
  51   2.0000      -0.394800       -10.7430 
  52   2.0000      -0.394067       -10.7231 
  53   2.0000      -0.386589       -10.5196 
  54   2.0000      -0.334533        -9.1031 
  55   2.0000      -0.331216        -9.0129 
  56   2.0000      -0.316916        -8.6237 
  57   0.0000      -0.027123        -0.7380 
  58   0.0000      -0.009957        -0.2710 
  59   0.0000       0.027121         0.7380 
  60   0.0000       0.032064         0.8725 
  61   0.0000       0.044772         1.2183 
  62   0.0000       0.057258         1.5581 
  63   0.0000       0.059883         1.6295 
  64   0.0000       0.064974         1.7680 
  65   0.0000       0.065829         1.7913 
  66   0.0000       0.075414         2.0521 
  67   0.0000       0.075829         2.0634 
*Only the first 10 virtual orbitals were printed.

                    ********************************
                    * MULLIKEN POPULATION ANALYSIS *
                    ********************************

-----------------------
MULLIKEN ATOMIC CHARGES
-----------------------
   0 C :   -0.124287
   1 C :   -0.152375
   2 C :   -0.085208
   3 C :   -0.164828
   4 C :   -0.142995
   5 C :   -0.167761
   6 P :    0.194804
   7 C :   -0.422405
   8 C :   -0.252640
   9 C :   -0.150438
  10 N :   -0.010450
  11 C :   -0.421342
  12 C :   -0.252708
  13 C :   -0.150220
  14 N :   -0.010468
  15 H :    0.155143
  16 H :    0.154162
  17 H :    0.163118
  18 H :    0.158475
  19 H :    0.155910
  20 H :    0.191266
  21 H :    0.184675
  22 H :    0.199292
  23 H :    0.188364
  24 H :    0.190884
  25 H :    0.184585
  26 H :    0.199076
  27 H :    0.188374
Sum of atomic charges:   -0.0000000

--------------------------------
MULLIKEN REDUCED ORBITAL CHARGES
--------------------------------
  0 C s       :     3.224137  s :     3.224137
      pz      :     0.896873  p :     2.832746
      px      :     0.984149
      py      :     0.951724
      dz2     :     0.012240  d :     0.061128
      dxz     :     0.015751
      dyz     :     0.018551
      dx2y2   :     0.007129
      dxy     :     0.007457
      f0      :     0.001019  f :     0.006276
      f+1     :     0.001495
      f-1     :     0.001140
      f+2     :     0.000638
      f-2     :     0.000642
      f+3     :     0.000618
      f-3     :     0.000724

  1 C s       :     3.233298  s :     3.233298
      pz      :     0.932115  p :     2.852392
      px      :     0.963586
      py      :     0.956692
      dz2     :     0.011987  d :     0.060406
      dxz     :     0.015365
      dyz     :     0.014432
      dx2y2   :     0.009276
      dxy     :     0.009345
      f0      :     0.000900  f :     0.006279
      f+1     :     0.001468
      f-1     :     0.001133
      f+2     :     0.000611
      f-2     :     0.000469
      f+3     :     0.000934
      f-3     :     0.000764

  2 C s       :     3.176965  s :     3.176965
      pz      :     1.001405  p :     2.837901
      px      :     0.898264
      py      :     0.938231
      dz2     :     0.015307  d :     0.063889
      dxz     :     0.015181
      dyz     :     0.005978
      dx2y2   :     0.012439
      dxy     :     0.014983
      f0      :     0.000851  f :     0.006454
      f+1     :     0.001379
      f-1     :     0.000299
      f+2     :     0.000848
      f-2     :     0.000853
      f+3     :     0.001218
      f-3     :     0.001005

  3 C s       :     3.284642  s :     3.284642
      pz      :     0.884191  p :     2.801913
      px      :     0.924295
      py      :     0.993427
      dz2     :     0.014073  d :     0.071402
      dxz     :     0.017087
      dyz     :     0.019774
      dx2y2   :     0.009676
      dxy     :     0.010792
      f0      :     0.001004  f :     0.006871
      f+1     :     0.001748
      f-1     :     0.001247
      f+2     :     0.000634
      f-2     :     0.000628
      f+3     :     0.000845
      f-3     :     0.000765

  4 C s       :     3.188331  s :     3.188331
      pz      :     0.869911  p :     2.881750
      px      :     1.041964
      py      :     0.969875
      dz2     :     0.011859  d :     0.066413
      dxz     :     0.020650
      dyz     :     0.014653
      dx2y2   :     0.009441
      dxy     :     0.009810
      f0      :     0.000891  f :     0.006501
      f+1     :     0.001607
      f-1     :     0.001100
      f+2     :     0.000643
      f-2     :     0.000506
      f+3     :     0.000964
      f-3     :     0.000790

  5 C s       :     3.239571  s :     3.239571
      pz      :     1.012045  p :     2.861413
      px      :     0.903788
      py      :     0.945581
      dz2     :     0.013277  d :     0.060526
      dxz     :     0.013909
      dyz     :     0.006535
      dx2y2   :     0.012219
      dxy     :     0.014586
      f0      :     0.000890  f :     0.006252
      f+1     :     0.001250
      f-1     :     0.000313
      f+2     :     0.000856
      f-2     :     0.000865
      f+3     :     0.001173
      f-3     :     0.000906

  6 P s       :     5.723171  s :     5.723171
      pz      :     3.347549  p :     8.816304
      px      :     2.715656
      py      :     2.753099
      dz2     :     0.026469  d :     0.240015
      dxz     :     0.043380
      dyz     :     0.051247
      dx2y2   :     0.058068
      dxy     :     0.060851
      f0      :     0.002849  f :     0.025706
      f+1     :     0.002378
      f-1     :     0.003211
      f+2     :     0.004950
      f-2     :     0.004965
      f+3     :     0.004289
      f-3     :     0.003064

  7 C s       :     3.293503  s :     3.293503
      pz      :     1.051922  p :     3.056203
      px      :     1.077764
      py      :     0.926517
      dz2     :     0.021117  d :     0.069074
      dxz     :     0.003855
      dyz     :     0.013656
      dx2y2   :     0.012112
      dxy     :     0.018333
      f0      :     0.000689  f :     0.003625
      f+1     :     0.000255
      f-1     :     0.000581
      f+2     :     0.000378
      f-2     :     0.000253
      f+3     :     0.000817
      f-3     :     0.000652

  8 C s       :     3.242652  s :     3.242652
      pz      :     1.033164  p :     2.918918
      px      :     0.987240
      py      :     0.898514
      dz2     :     0.021690  d :     0.086930
      dxz     :     0.005619
      dyz     :     0.017536
      dx2y2   :     0.016178
      dxy     :     0.025907
      f0      :     0.000758  f :     0.004140
      f+1     :     0.000240
      f-1     :     0.000582
      f+2     :     0.000452
      f-2     :     0.000447
      f+3     :     0.000935
      f-3     :     0.000725

  9 C s       :     3.187601  s :     3.187601
      pz      :     0.932637  p :     2.862895
      px      :     0.954543
      py      :     0.975715
      dz2     :     0.021775  d :     0.084626
      dxz     :     0.012099
      dyz     :     0.011065
      dx2y2   :     0.029487
      dxy     :     0.010201
      f0      :     0.000974  f :     0.015316
      f+1     :     0.002406
      f-1     :     0.001882
      f+2     :     0.002120
      f-2     :     0.002668
      f+3     :     0.002902
      f-3     :     0.002364

 10 N s       :     3.656313  s :     3.656313
      pz      :     1.085074  p :     3.309300
      px      :     1.121753
      py      :     1.102473
      dz2     :     0.009458  d :     0.042643
      dxz     :     0.006818
      dyz     :     0.006137
      dx2y2   :     0.014276
      dxy     :     0.005955
      f0      :     0.000036  f :     0.002194
      f+1     :     0.000471
      f-1     :     0.000354
      f+2     :     0.000419
      f-2     :     0.000154
      f+3     :     0.000460
      f-3     :     0.000300

 11 C s       :     3.293274  s :     3.293274
      pz      :     1.054899  p :     3.055418
      px      :     1.017121
      py      :     0.983398
      dz2     :     0.020203  d :     0.069024
      dxz     :     0.006496
      dyz     :     0.012001
      dx2y2   :     0.019132
      dxy     :     0.011191
      f0      :     0.000702  f :     0.003626
      f+1     :     0.000233
      f-1     :     0.000559
      f+2     :     0.000202
      f-2     :     0.000439
      f+3     :     0.000720
      f-3     :     0.000771

 12 C s       :     3.241543  s :     3.241543
      pz      :     1.034475  p :     2.920114
      px      :     1.007604
      py      :     0.878035
      dz2     :     0.019837  d :     0.086915
      dxz     :     0.008068
      dyz     :     0.017528
      dx2y2   :     0.027222
      dxy     :     0.014260
      f0      :     0.000776  f :     0.004136
      f+1     :     0.000246
      f-1     :     0.000518
      f+2     :     0.000388
      f-2     :     0.000539
      f+3     :     0.000813
      f-3     :     0.000856

 13 C s       :     3.187419  s :     3.187419
      pz      :     0.937227  p :     2.863001
      px      :     0.913890
      py      :     1.011884
      dz2     :     0.023630  d :     0.084482
      dxz     :     0.007721
      dyz     :     0.014532
      dx2y2   :     0.011772
      dxy     :     0.026827
      f0      :     0.001033  f :     0.015318
      f+1     :     0.000142
      f-1     :     0.004254
      f+2     :     0.002658
      f-2     :     0.002359
      f+3     :     0.002644
      f-3     :     0.002227

 14 N s       :     3.656133  s :     3.656133
      pz      :     1.090680  p :     3.309509
      px      :     1.053562
      py      :     1.165266
      dz2     :     0.010359  d :     0.042633
      dxz     :     0.004675
      dyz     :     0.007883
      dx2y2   :     0.006769
      dxy     :     0.012947
      f0      :     0.000050  f :     0.002193
      f+1     :     0.000028
      f-1     :     0.000811
      f+2     :     0.000164
      f-2     :     0.000428
      f+3     :     0.000446
      f-3     :     0.000266

 15 H s       :     0.825112  s :     0.825112
      pz      :     0.004037  p :     0.019745
      px      :     0.010970
      py      :     0.004738

 16 H s       :     0.826052  s :     0.826052
      pz      :     0.006899  p :     0.019786
      px      :     0.008595
      py      :     0.004292

 17 H s       :     0.816859  s :     0.816859
      pz      :     0.013263  p :     0.020023
      px      :     0.003090
      py      :     0.003670

 18 H s       :     0.821525  s :     0.821525
      pz      :     0.007119  p :     0.020000
      px      :     0.008520
      py      :     0.004361

 19 H s       :     0.824282  s :     0.824282
      pz      :     0.013154  p :     0.019808
      px      :     0.002969
      py      :     0.003684

 20 H s       :     0.788843  s :     0.788843
      pz      :     0.012406  p :     0.019892
      px      :     0.003877
      py      :     0.003609

 21 H s       :     0.795733  s :     0.795733
      pz      :     0.003894  p :     0.019592
      px      :     0.011194
      py      :     0.004504

 22 H s       :     0.781143  s :     0.781143
      pz      :     0.003724  p :     0.019565
      px      :     0.011730
      py      :     0.004111

 23 H s       :     0.792116  s :     0.792116
      pz      :     0.012765  p :     0.019520
      px      :     0.003349
      py      :     0.003406

 24 H s       :     0.789255  s :     0.789255
      pz      :     0.012244  p :     0.019861
      px      :     0.003411
      py      :     0.004206

 25 H s       :     0.795817  s :     0.795817
      pz      :     0.003967  p :     0.019598
      px      :     0.010671
      py      :     0.004959

 26 H s       :     0.781334  s :     0.781334
      pz      :     0.003776  p :     0.019589
      px      :     0.011153
      py      :     0.004660

 27 H s       :     0.792097  s :     0.792097
      pz      :     0.012598  p :     0.019529
      px      :     0.003539
      py      :     0.003392



                     *******************************
                     * LOEWDIN POPULATION ANALYSIS *
                     *******************************

----------------------
LOEWDIN ATOMIC CHARGES
----------------------
   0 C :   -0.129082
   1 C :   -0.135591
   2 C :   -0.146596
   3 C :   -0.298119
   4 C :   -0.141838
   5 C :   -0.134886
   6 P :    0.610506
   7 C :   -0.388877
   8 C :   -0.272738
   9 C :   -0.196412
  10 N :    0.046768
  11 C :   -0.388802
  12 C :   -0.272629
  13 C :   -0.196378
  14 N :    0.046778
  15 H :    0.151025
  16 H :    0.150828
  17 H :    0.150389
  18 H :    0.148622
  19 H :    0.151517
  20 H :    0.136798
  21 H :    0.145212
  22 H :    0.171846
  23 H :    0.168837
  24 H :    0.136849
  25 H :    0.145226
  26 H :    0.171910
  27 H :    0.168840

-------------------------------
LOEWDIN REDUCED ORBITAL CHARGES
-------------------------------
  0 C s       :     2.779500  s :     2.779500
      pz      :     1.060038  p :     2.936081
      px      :     0.989712
      py      :     0.886331
      dz2     :     0.112952  d :     0.372991
      dxz     :     0.121753
      dyz     :     0.072629
      dx2y2   :     0.034072
      dxy     :     0.031585
      f0      :     0.007954  f :     0.040510
      f+1     :     0.012340
      f-1     :     0.005538
      f+2     :     0.004705
      f-2     :     0.004662
      f+3     :     0.002226
      f-3     :     0.003084

  1 C s       :     2.778776  s :     2.778776
      pz      :     1.040261  p :     2.944245
      px      :     1.005569
      py      :     0.898415
      dz2     :     0.085307  d :     0.372163
      dxz     :     0.146821
      dyz     :     0.061470
      dx2y2   :     0.040673
      dxy     :     0.037891
      f0      :     0.007589  f :     0.040407
      f+1     :     0.011821
      f-1     :     0.006339
      f+2     :     0.003504
      f-2     :     0.003071
      f+3     :     0.003958
      f-3     :     0.004124

  2 C s       :     2.780016  s :     2.780016
      pz      :     0.997642  p :     2.942363
      px      :     1.046762
      py      :     0.897959
      dz2     :     0.118767  d :     0.383730
      dxz     :     0.095512
      dyz     :     0.024463
      dx2y2   :     0.071976
      dxy     :     0.073011
      f0      :     0.004960  f :     0.040488
      f+1     :     0.011004
      f-1     :     0.001822
      f+2     :     0.006597
      f-2     :     0.006743
      f+3     :     0.004359
      f-3     :     0.005002

  3 C s       :     2.781685  s :     2.781685
      pz      :     1.083683  p :     3.016661
      px      :     1.029445
      py      :     0.903533
      dz2     :     0.122499  d :     0.455181
      dxz     :     0.155003
      dyz     :     0.082647
      dx2y2   :     0.048110
      dxy     :     0.046921
      f0      :     0.008179  f :     0.044593
      f+1     :     0.014214
      f-1     :     0.005726
      f+2     :     0.005196
      f-2     :     0.005091
      f+3     :     0.003013
      f-3     :     0.003173

  4 C s       :     2.775966  s :     2.775966
      pz      :     1.031167  p :     2.941601
      px      :     1.009458
      py      :     0.900976
      dz2     :     0.085140  d :     0.383622
      dxz     :     0.153672
      dyz     :     0.064361
      dx2y2   :     0.041658
      dxy     :     0.038791
      f0      :     0.007446  f :     0.040649
      f+1     :     0.011962
      f-1     :     0.006432
      f+2     :     0.003563
      f-2     :     0.003116
      f+3     :     0.004029
      f-3     :     0.004103

  5 C s       :     2.778816  s :     2.778816
      pz      :     0.997168  p :     2.941796
      px      :     1.043322
      py      :     0.901306
      dz2     :     0.115079  d :     0.373715
      dxz     :     0.095088
      dyz     :     0.024735
      dx2y2   :     0.068940
      dxy     :     0.069873
      f0      :     0.005068  f :     0.040559
      f+1     :     0.010967
      f-1     :     0.001868
      f+2     :     0.006539
      f-2     :     0.006656
      f+3     :     0.004413
      f-3     :     0.005048

  6 P s       :     4.969889  s :     4.969889
      pz      :     3.332732  p :     8.837116
      px      :     2.749964
      py      :     2.754420
      dz2     :     0.075019  d :     0.485270
      dxz     :     0.081416
      dyz     :     0.091332
      dx2y2   :     0.115971
      dxy     :     0.121532
      f0      :     0.008337  f :     0.097220
      f+1     :     0.009227
      f-1     :     0.012183
      f+2     :     0.018762
      f-2     :     0.019235
      f+3     :     0.015087
      f-3     :     0.014388

  7 C s       :     2.851152  s :     2.851152
      pz      :     1.078429  p :     3.179439
      px      :     1.076936
      py      :     1.024074
      dz2     :     0.088547  d :     0.331117
      dxz     :     0.029292
      dyz     :     0.067067
      dx2y2   :     0.066704
      dxy     :     0.079507
      f0      :     0.004009  f :     0.027169
      f+1     :     0.001828
      f-1     :     0.003873
      f+2     :     0.004373
      f-2     :     0.003731
      f+3     :     0.005357
      f-3     :     0.003997

  8 C s       :     2.779767  s :     2.779767
      pz      :     1.030947  p :     3.068951
      px      :     1.023796
      py      :     1.014207
      dz2     :     0.095887  d :     0.386674
      dxz     :     0.029090
      dyz     :     0.069735
      dx2y2   :     0.092342
      dxy     :     0.099620
      f0      :     0.004405  f :     0.037347
      f+1     :     0.002781
      f-1     :     0.004740
      f+2     :     0.006167
      f-2     :     0.006384
      f+3     :     0.006956
      f-3     :     0.005915

  9 C s       :     2.843506  s :     2.843506
      pz      :     0.921111  p :     2.872047
      px      :     0.992980
      py      :     0.957956
      dz2     :     0.078816  d :     0.424039
      dxz     :     0.077760
      dyz     :     0.065998
      dx2y2   :     0.110698
      dxy     :     0.090768
      f0      :     0.004946  f :     0.056821
      f+1     :     0.007415
      f-1     :     0.005809
      f+2     :     0.006665
      f-2     :     0.013017
      f+3     :     0.009463
      f-3     :     0.009506

 10 N s       :     3.319504  s :     3.319504
      pz      :     1.115981  p :     3.511463
      px      :     1.224371
      py      :     1.171110
      dz2     :     0.017045  d :     0.107676
      dxz     :     0.021805
      dyz     :     0.018141
      dx2y2   :     0.024410
      dxy     :     0.026274
      f0      :     0.001280  f :     0.014590
      f+1     :     0.001894
      f-1     :     0.001439
      f+2     :     0.001767
      f-2     :     0.003398
      f+3     :     0.002390
      f-3     :     0.002421

 11 C s       :     2.851161  s :     2.851161
      pz      :     1.081394  p :     3.179510
      px      :     1.041614
      py      :     1.056503
      dz2     :     0.086067  d :     0.330967
      dxz     :     0.028895
      dyz     :     0.070625
      dx2y2   :     0.081590
      dxy     :     0.063790
      f0      :     0.004064  f :     0.027164
      f+1     :     0.002135
      f-1     :     0.003552
      f+2     :     0.003185
      f-2     :     0.004583
      f+3     :     0.004195
      f-3     :     0.005450

 12 C s       :     2.779707  s :     2.779707
      pz      :     1.030377  p :     3.068910
      px      :     1.031668
      py      :     1.006865
      dz2     :     0.091669  d :     0.386667
      dxz     :     0.031985
      dyz     :     0.073005
      dx2y2   :     0.103759
      dxy     :     0.086249
      f0      :     0.004514  f :     0.037345
      f+1     :     0.002296
      f-1     :     0.005141
      f+2     :     0.005877
      f-2     :     0.006649
      f+3     :     0.006164
      f-3     :     0.006705

 13 C s       :     2.843491  s :     2.843491
      pz      :     0.931787  p :     2.872034
      px      :     0.858043
      py      :     1.082204
      dz2     :     0.083859  d :     0.424034
      dxz     :     0.031670
      dyz     :     0.114959
      dx2y2   :     0.088343
      dxy     :     0.105203
      f0      :     0.005032  f :     0.056820
      f+1     :     0.000436
      f-1     :     0.013315
      f+2     :     0.012724
      f-2     :     0.007906
      f+3     :     0.008745
      f-3     :     0.008663

 14 N s       :     3.319503  s :     3.319503
      pz      :     1.131841  p :     3.511457
      px      :     1.024042
      py      :     1.355574
      dz2     :     0.018018  d :     0.107673
      dxz     :     0.008467
      dyz     :     0.032735
      dx2y2   :     0.024892
      dxy     :     0.023561
      f0      :     0.001293  f :     0.014590
      f+1     :     0.000115
      f-1     :     0.003365
      f+2     :     0.003311
      f-2     :     0.002097
      f+3     :     0.002186
      f-3     :     0.002222

 15 H s       :     0.792997  s :     0.792997
      pz      :     0.013031  p :     0.055978
      px      :     0.028883
      py      :     0.014064

 16 H s       :     0.793113  s :     0.793113
      pz      :     0.019580  p :     0.056059
      px      :     0.023401
      py      :     0.013078

 17 H s       :     0.793128  s :     0.793128
      pz      :     0.034386  p :     0.056483
      px      :     0.010364
      py      :     0.011733

 18 H s       :     0.795043  s :     0.795043
      pz      :     0.019809  p :     0.056336
      px      :     0.023141
      py      :     0.013386

 19 H s       :     0.792408  s :     0.792408
      pz      :     0.033961  p :     0.056075
      px      :     0.010440
      py      :     0.011674

 20 H s       :     0.802978  s :     0.802978
      pz      :     0.035640  p :     0.060224
      px      :     0.013030
      py      :     0.011554

 21 H s       :     0.795027  s :     0.795027
      pz      :     0.013470  p :     0.059761
      px      :     0.032376
      py      :     0.013916

 22 H s       :     0.771090  s :     0.771090
      pz      :     0.012881  p :     0.057064
      px      :     0.031178
      py      :     0.013005

 23 H s       :     0.774853  s :     0.774853
      pz      :     0.033971  p :     0.056310
      px      :     0.011532
      py      :     0.010806

 24 H s       :     0.802948  s :     0.802948
      pz      :     0.035376  p :     0.060202
      px      :     0.011616
      py      :     0.013210

 25 H s       :     0.795006  s :     0.795006
      pz      :     0.013653  p :     0.059767
      px      :     0.030015
      py      :     0.016100

 26 H s       :     0.770982  s :     0.770982
      pz      :     0.013056  p :     0.057108
      px      :     0.030451
      py      :     0.013601

 27 H s       :     0.774854  s :     0.774854
      pz      :     0.033560  p :     0.056306
      px      :     0.011714
      py      :     0.011032



                      *****************************
                      * MAYER POPULATION ANALYSIS *
                      *****************************

  NA   - Mulliken gross atomic population
  ZA   - Total nuclear charge
  QA   - Mulliken gross atomic charge
  VA   - Mayer's total valence
  BVA  - Mayer's bonded valence
  FA   - Mayer's free valence

  ATOM       NA         ZA         QA         VA         BVA        FA
  0 C      6.1243     6.0000    -0.1243     3.9209     3.9209    -0.0000
  1 C      6.1524     6.0000    -0.1524     3.9670     3.9670    -0.0000
  2 C      6.0852     6.0000    -0.0852     3.8578     3.8578    -0.0000
  3 C      6.1648     6.0000    -0.1648     3.6904     3.6904    -0.0000
  4 C      6.1430     6.0000    -0.1430     3.8322     3.8322    -0.0000
  5 C      6.1678     6.0000    -0.1678     4.0349     4.0349    -0.0000
  6 P     14.8052    15.0000     0.1948     3.0078     3.0078    -0.0000
  7 C      6.4224     6.0000    -0.4224     3.7881     3.7881    -0.0000
  8 C      6.2526     6.0000    -0.2526     3.7365     3.7365    -0.0000
  9 C      6.1504     6.0000    -0.1504     4.0369     4.0369    -0.0000
 10 N      7.0105     7.0000    -0.0105     3.0937     3.0937    -0.0000
 11 C      6.4213     6.0000    -0.4213     3.7859     3.7859     0.0000
 12 C      6.2527     6.0000    -0.2527     3.7372     3.7372    -0.0000
 13 C      6.1502     6.0000    -0.1502     4.0386     4.0386    -0.0000
 14 N      7.0105     7.0000    -0.0105     3.0937     3.0937     0.0000
 15 H      0.8449     1.0000     0.1551     0.9625     0.9625     0.0000
 16 H      0.8458     1.0000     0.1542     0.9642     0.9642     0.0000
 17 H      0.8369     1.0000     0.1631     0.9723     0.9723     0.0000
 18 H      0.8415     1.0000     0.1585     0.9681     0.9681     0.0000
 19 H      0.8441     1.0000     0.1559     0.9644     0.9644     0.0000
 20 H      0.8087     1.0000     0.1913     0.9431     0.9431     0.0000
 21 H      0.8153     1.0000     0.1847     0.9544     0.9544     0.0000
 22 H      0.8007     1.0000     0.1993     0.9474     0.9474    -0.0000
 23 H      0.8116     1.0000     0.1884     0.9513     0.9513    -0.0000
 24 H      0.8091     1.0000     0.1909     0.9433     0.9433     0.0000
 25 H      0.8154     1.0000     0.1846     0.9548     0.9548     0.0000
 26 H      0.8009     1.0000     0.1991     0.9473     0.9473    -0.0000
 27 H      0.8116     1.0000     0.1884     0.9513     0.9513    -0.0000

  Mayer bond orders larger than 0.100000
B(  0-C ,  1-C ) :   1.4471 B(  0-C ,  5-C ) :   1.4238 B(  0-C , 15-H ) :   0.9440 
B(  1-C ,  2-C ) :   1.4505 B(  1-C , 16-H ) :   0.9457 B(  2-C ,  3-C ) :   1.3878 
B(  2-C , 17-H ) :   0.9277 B(  3-C ,  4-C ) :   1.2718 B(  3-C ,  6-P ) :   0.9428 
B(  4-C ,  5-C ) :   1.5016 B(  4-C , 18-H ) :   0.9354 B(  5-C , 19-H ) :   0.9401 
B(  6-P ,  7-C ) :   0.9593 B(  6-P , 11-C ) :   0.9579 B(  7-C ,  8-C ) :   0.9043 
B(  7-C , 20-H ) :   0.9597 B(  7-C , 21-H ) :   0.9435 B(  8-C ,  9-C ) :   0.9696 
B(  8-C , 22-H ) :   0.9493 B(  8-C , 23-H ) :   0.9394 B(  9-C , 10-N ) :   3.0513 
B( 11-C , 12-C ) :   0.9051 B( 11-C , 24-H ) :   0.9599 B( 11-C , 25-H ) :   0.9437 
B( 12-C , 13-C ) :   0.9709 B( 12-C , 26-H ) :   0.9492 B( 12-C , 27-H ) :   0.9383 
B( 13-C , 14-N ) :   3.0517 

-------
TIMINGS
-------

Total SCF time: 0 days 0 hours 1 min 3 sec 

Total time                  ....      63.469 sec
Sum of individual times     ....      63.484 sec  (100.0%)

SCF preparation             ....       0.202 sec  (  0.3%)
Fock matrix formation       ....      61.251 sec  ( 96.5%)
  Startup                   ....       0.070 sec  (  0.1% of F)
  Split-RI-J                ....       4.074 sec  (  6.7% of F)
  Chain of spheres X        ....      42.367 sec  ( 69.2% of F)
  XC integration            ....      14.526 sec  ( 23.7% of F)
    Basis function eval.    ....       2.057 sec  ( 14.2% of XC)
    Density eval.           ....       5.644 sec  ( 38.9% of XC)
    XC-Functional eval.     ....       0.306 sec  (  2.1% of XC)
    XC-Potential eval.      ....       5.514 sec  ( 38.0% of XC)
Diagonalization             ....       0.000 sec  (  0.0%)
Density matrix formation    ....       0.186 sec  (  0.3%)
Total Energy calculation    ....       0.072 sec  (  0.1%)
Population analysis         ....       0.126 sec  (  0.2%)
Orbital Transformation      ....       0.232 sec  (  0.4%)
Orbital Orthonormalization  ....       0.000 sec  (  0.0%)
DIIS solution               ....       0.950 sec  (  1.5%)
SOSCF solution              ....       0.465 sec  (  0.7%)
Finished LeanSCF after  63.5 sec

Maximum memory used throughout the entire LEANSCF-calculation: 66.0 MB


-------------------------------------------------------------------------------
                          DFT DISPERSION CORRECTION                            
                                                                               
                              DFTD3 V3.1  Rev 1                                
                              USING zero damping                               
-------------------------------------------------------------------------------
The M062X functional is recognized
Active option DFTDOPT                   ...         3   

molecular C6(AA) [au] = 10481.280369 


            DFT-D V3
 parameters
 s6 scaling factor         :     1.0000 
 rs6 scaling factor        :     1.6190 
 s8 scaling factor         :     0.0000 
 rs8 scaling factor        :     1.0000 
 Damping factor alpha6     :    14.0000 
 Damping factor alpha8     :    16.0000 
 ad hoc parameters k1-k3   :    16.0000     1.3333    -4.0000 

 Edisp/kcal,au: -0.904560859871  -0.001441509333 
 E6   /kcal   :  -0.904560860 
 E8   /kcal   :  -0.000000000 
 % E8         :   0.000000000 

-------------------------   ----------------
Dispersion correction           -0.001441509
-------------------------   ----------------


-------------------------   --------------------
FINAL SINGLE POINT ENERGY      -915.892560392110
-------------------------   --------------------



           ************************************************************
           *        Program running with 6 parallel MPI-processes     *
           *              working on a common directory               *
           ************************************************************

------------------------------------------------------------------------------
                              ORCA PROPERTY CALCULATIONS
------------------------------------------------------------------------------

GBWName                                 ... data/single_point_P_M06-2x/342156/342156.gbw
Number of atoms                         ...     28
Number of basis functions               ...    549
Max core memory                         ...   1024 MB

Electric properties:
Dipole moment                           ... YES
Quadrupole moment                       ...  NO
Static polarizability (Dipole/Dipole)   ...  NO
Static polarizability (Dipole/Quad.)    ...  NO
Static polarizability (Quad./Quad.)     ...  NO
Static polarizability (Velocity)        ...  NO

Atomic electric properties:
Dipole moment                           ...  NO
Quadrupole moment                       ...  NO
Static polarizability                   ...  NO

Choice of electric origin               ... Center of mass
Position of electric origin             ...    -0.366830     0.137248     0.087912

General magnetic properties:
Magnetizability                         ...  NO

EPR properties:
g-Tensor (aka g-matrix)                 ...  NO
Zero-Field splitting spin-orbit         ...  NO
Zero-field splitting spin-spin          ...  NO
Hyperfine couplings                     ...  NO (   0 nuclei)
Quadrupole couplings                    ...  NO (   0 nuclei)
Contact density                         ...  NO (   0 nuclei)

NMR properties:
Chemical shifts                         ...  NO (   0 nuclei)
Spin-rotation constants                 ...  NO (   0 nuclei)
Spin-spin couplings                     ...  NO (   0 nuclei,    0 pairs)

Choice of magnetic origin               ... GIAO
Position of magnetic origin             ...     0.000000     0.000000     0.000000

Properties with geometric perturbations:
SCF Hessian                             ...  NO
IR spectrum                             ...  NO
VCD spectrum                            ...  NO
X-ray spectroscopy properties:
SCF XES/XAS/RIXS spectra                ...  NO


-------------
DIPOLE MOMENT
-------------

Method             : SCF
Type of density    : Electron Density
Multiplicity       :   1
Irrep              :   0
Energy             :  -915.8911188827768228 Eh
Relativity type    : 
Basis              : AO
                                X                 Y                 Z
Electronic contribution:     -2.887075521       1.110577627       1.743375549
Nuclear contribution   :      4.427095135      -1.651447010      -0.868123719
                        -----------------------------------------
Total Dipole Moment    :      1.540019615      -0.540869383       0.875251831
                        -----------------------------------------
Magnitude (a.u.)       :      1.852097695
Magnitude (Debye)      :      4.707658217



--------------------
Rotational spectrum 
--------------------
 
Rotational constants in cm-1:             0.018258             0.011722             0.008236 
Rotational constants in MHz :           547.350128           351.412463           246.914251 

Dipole components along the rotational axes: 
x,y,z [a.u.] :     0.000319     1.592329     0.945914 
x,y,z [Debye]:     0.000812     4.047379     2.404322 

 

Dipole moment calculation done in   0.0 sec 

Maximum memory used throughout the entire PROP-calculation: 34.5 MB

--------------------------------
SUGGESTED CITATIONS FOR THIS RUN
--------------------------------

Below you find a list of papers that are relevant to this ORCA run
We neither can nor want to force you to cite these papers, but we appreciate if you do
You receive ORCA, which is the product of decades of hard work by many enthusiastic individuals, for free
The only thing we kindly ask in return is that you cite our papers,
We deeply appreciate it, if you show your appreciation for ORCA by not just citing the generic ORCA reference.

Please note that relegating all ORCA citations to the supporting information does *not* help us.
SI sections are not indexed - citations you put there will not count into any citation statistics
But we need these citations in order to attract the funding resources that allow us to do what we are doing

Therefore, if you are a happy ORCA user, please consider citing a few of the papers listed below in the main body of your paper

In addition to the list printed below, the program has created the file data/single_point_P_M06-2x/342156/342156.bibtex that contains the list in bibtex format
You can import this file easily into all common literature databanks and citation aid programs


List of essential papers. We consider these as the minimum necessary citations

  1. Neese,F.
     Software update: the ORCA program system, version 5.0
     WIRES Comput. Molec. Sci., 2022 12(1)e1606
     doi.org/10.1002/wcms.1606

List of papers to cite with high priority. The work reported in these papers was absolutely
necessary for this run to complete.
Our perspective: the developers of density functionals and basis sets usually get cited in chemistry papers
Good! But without the algorithms to do something with them, the functionals or basis sets would not do anything.
Hence, in our opinion, the algorithm design and method developments papers are equally worthy of getting cited

  1. Neese,F.
     An improvement of the resolution of the identity approximation for the formation of the Coulomb matrix
     J. Comp. Chem., 2003 24(14)1740-1747
     doi.org/10.1002/jcc.10318
  2. Neese,F.; Wennmohs,F.; Hansen,A.; Becker,U.
     Efficient, approximate and parallel Hartree-Fock and hybrid DFT calculations. A 'chain-of-spheres' algorithm for the Hartree-Fock exchange
     Chem. Phys., 2009 356(1-3)98-109
     doi.org/10.1016/j.chemphys.2008.10.036
  3. Helmich-Paris,B.; de Souza,B.; Neese,F.; Izsák,R.
     An improved chain of spheres for exchange algorithm
     J. Chem. Phys., 2021 155 104109
     doi.org/doi: 10.1063/5.0058766.
  4. Neese,F.
     The SHARK Integral Generation and Digestion System
     J. Comp. Chem., 2022  1-16
     doi.org/10.1002/jcc.26942
  5. Grimme,S.; Antony,J.; Ehrlich,S.; Krieg,H.
     A consistent and accurate ab initio parametrization of density functional dispersion correction (DFT-D) for the 94 elements H-Pu
     J. Chem. Phys., 2010 132 154104-XXXX
     doi.org/10.1063/1.3382344

List of suggested additional citations. These are papers that are important in the 'surrounding' of 
of this run, or papers that preceded the highly important papers. If you like your results we are grateful for a citation.

  1. Izsak,R.; Neese,F.
     An overlap fitted chain of spheres exchange method
     J. Chem. Phys., 2011 135 144105
     doi.org/10.1063/1.3646921
  2. Izsak,R.; Hansen,A.; Neese,F.
     The resolution of identity and chain of spheres approximations for the LPNO-CCSD singles Fock term
     Molec. Phys., 2012 110 2413-2417
     doi.org/10.1080/00268976.2012.687466
  3. Neese,F.
     The ORCA program system
     WIRES Comput. Molec. Sci., 2012 2(1)73-78
     doi.org/10.1002/wcms.81
  4. Izsak,R.; Neese,F.; Klopper,W.
     Robust fitting techniques in the chain of spheres approximation to the Fock exchange: The role of the complementary space
     J. Chem. Phys., 2013 139 
     doi.org/10.1063/1.4819264
  5. Neese,F.
     Software update: the ORCA program system, version 4.0
     WIRES Comput. Molec. Sci., 2018 8(1)1-6
     doi.org/10.1002/wcms.1327
  6. Neese,F.; Wennmohs,F.; Becker,U.; Riplinger,C.
     The ORCA quantum chemistry program package
     J. Chem. Phys., 2020 152 Art. No. L224108
     doi.org/10.1063/5.0004608

List of optional additional citations

  1. Neese,F.
     Approximate second-order SCF convergence for spin unrestricted wavefunctions
     Chem. Phys. Lett., 2000 325(1-3)93-98
     doi.org/10.1016/s0009-2614(00)00662-x

Timings for individual modules:

Sum of individual times          ...       67.425 sec (=   1.124 min)
Startup calculation              ...        2.573 sec (=   0.043 min)   3.8 %
SCF iterations                   ...       64.643 sec (=   1.077 min)  95.9 %
Property calculations            ...        0.209 sec (=   0.003 min)   0.3 %
                             ****ORCA TERMINATED NORMALLY****
TOTAL RUN TIME: 0 days 0 hours 1 minutes 7 seconds 652 msec
