
                                 *****************
                                 * O   R   C   A *
                                 *****************

                                            #,                                       
                                            ###                                      
                                            ####                                     
                                            #####                                    
                                            ######                                   
                                           ########,                                 
                                     ,,################,,,,,                         
                               ,,#################################,,                 
                          ,,##########################################,,             
                       ,#########################################, ''#####,          
                    ,#############################################,,   '####,        
                  ,##################################################,,,,####,       
                ,###########''''           ''''###############################       
              ,#####''   ,,,,##########,,,,          '''####'''          '####       
            ,##' ,,,,###########################,,,                        '##       
           ' ,,###''''                  '''############,,,                           
         ,,##''                                '''############,,,,        ,,,,,,###''
      ,#''                                            '''#######################'''  
     '                                                          ''''####''''         
             ,#######,   #######,   ,#######,      ##                                
            ,#'     '#,  ##    ##  ,#'     '#,    #''#        ,####,   ,####,        
            ##       ##  ##   ,#'  ##            #'  '#       #'       #'  '#        
            ##       ##  #######   ##           ,######,      #####,   #    #        
            '#,     ,#'  ##    ##  '#,     ,#' ,#      #,     #,   #   #,  ,#        
             '#######'   ##     ##  '#######'  #'      '#     '####' # '####'        



                #########################################################
                #                        -***-                          #
                #          Department of theory and spectroscopy        #
                #                                                       #
                #                      Frank Neese                      #
                #                                                       #
                #     Directorship, Architecture, Infrastructure        #
                #                    SHARK, DRIVERS                     #
                #        Core code/Algorithms in most modules           #
                #                                                       #
                #        Max Planck Institute fuer Kohlenforschung      #
                #                Kaiser Wilhelm Platz 1                 #
                #                 D-45470 Muelheim/Ruhr                 #
                #                      Germany                          #
                #                                                       #
                #                  All rights reserved                  #
                #                        -***-                          #
                #########################################################


                         Program Version 6.0.0  -   RELEASE   -


 With contributions from (in alphabetic order):
   Daniel Aravena         : Magnetic Suceptibility
   Michael Atanasov       : Ab Initio Ligand Field Theory (pilot matlab implementation)
   Alexander A. Auer      : GIAO ZORA, VPT2 properties, NMR spectrum
   Ute Becker             : All parallelization in ORCA, NUMFREQ, NUMCALC
   Giovanni Bistoni       : ED, misc. LED, open-shell LED, HFLD
   Martin Brehm           : Molecular dynamics
   Dmytro Bykov           : pre 5.0 version of the SCF Hessian
   Marcos Casanova-Páez   : Triplet and SCS-CIS(D). UHF-(DLPNO)-IP/EA/STEOM-CCSD. UHF-CVS-IP/STEOM-CCSD
   Vijay G. Chilkuri      : MRCI spin determinant printing, contributions to CSF-ICE
   Pauline Colinet        : FMM embedding
   Dipayan Datta          : RHF DLPNO-CCSD density
   Achintya Kumar Dutta   : EOM-CC, STEOM-CC
   Nicolas Foglia         : Exact transition moments, OPA infrastructure, MCD improvements
   Dmitry Ganyushin       : Spin-Orbit,Spin-Spin,Magnetic field MRCI
   Miquel Garcia          : C-PCM and meta-GGA Hessian, CCSD/C-PCM, Gaussian charge scheme
   Tiago L. C. Gouveia    : GS-ROHF, GS-ROCIS
   Yang Guo               : DLPNO-NEVPT2, F12-NEVPT2, CIM, IAO-localization
   Andreas Hansen         : Spin unrestricted coupled pair/coupled cluster methods
   Ingolf Harden          : AUTO-CI MPn and infrastructure 
   Benjamin Helmich-Paris : MC-RPA, TRAH-(SCF,CASSCF), AVAS, COSX integrals, SCF dyn. polar.
   Lee Huntington         : MR-EOM, pCC
   Robert Izsak           : Overlap fitted RIJCOSX, COSX-SCS-MP3, EOM
   Riya Kayal             : Wick's Theorem for AUTO-CI, AUTO-CI UHF-CCSDT
   Emily Kempfer          : AUTO-CI, RHF CISDT and CCSDT
   Christian Kollmar      : KDIIS, OOCD, Brueckner-CCSD(T), CCSD density, CASPT2, CASPT2-K, improved NEVPT2
   Axel Koslowski         : Symmetry handling
   Simone Kossmann        : Meta GGA functionals, TD-DFT gradient, OOMP2, (MP2 Hessian; deprecated post 5.0)
   Lucas Lang             : DCDCAS
   Marvin Lechner         : AUTO-CI (C++ implementation), FIC-MRCC
   Spencer Leger          : CASSCF response
   Dagmar Lenk            : GEPOL surface, SMD, ORCA-2-JSON
   Dimitrios Liakos       : Extrapolation schemes; Compound Job, initial MDCI parallelization
   Dimitrios Manganas     : Further ROCIS development; embedding schemes. LFT, Crystal Embedding
   Dimitrios Pantazis     : SARC Basis sets
   Anastasios Papadopoulos: AUTO-CI, single reference methods and gradients
   Taras Petrenko         : pre 6.0 DFT Hessian and TD-DFT gradient, (ASA, deprecated), ECA, 1-Electron XAS/XES, NRVS
   Peter Pinski           : DLPNO-MP2, DLPNO-MP2 Gradient
   Christoph Reimann      : Effective Core Potentials
   Marius Retegan         : Local ZFS, SOC
   Christoph Riplinger    : Optimizer, TS searches, QM/MM, DLPNO-CCSD(T), (RO)-DLPNO pert. Triples
   Michael Roemelt        : Original ROCIS implementation
   Masaaki Saitow         : Open-shell DLPNO-CCSD energy and density
   Barbara Sandhoefer     : DKH picture change effects
   Kantharuban Sivalingam : CASSCF convergence/infrastructure, NEVPT2 and variants, FIC-MRCI
   Bernardo de Souza      : ESD, SOC TD-DFT
   Georgi Stoychev        : AutoAux, RI-MP2 NMR, DLPNO-MP2 response, X2C
   Van Anh Tran           : RI-MP2 g-tensors
   Willem Van den Heuvel  : Paramagnetic NMR
   Zikuan Wang            : NOTCH, Electric field optimization 
   Frank Wennmohs         : Technical directorship and infrastructure
   Hang Xu                : AUTO-CI-Response properties 


 We gratefully acknowledge several colleagues who have allowed us to
 interface, adapt or use parts of their codes:
   Stefan Grimme, W. Hujo, H. Kruse, P. Pracht,  : VdW corrections, initial TS optimization,
                  C. Bannwarth, S. Ehlert,         DFT functionals, gCP, sTDA/sTD-DF
                  L. Wittmann, M. Mueller
   Ed Valeev, F. Pavosevic, A. Kumar             : LibInt (2-el integral package), F12 methods
   Garnet Chan, S. Sharma, J. Yang, R. Olivares  : DMRG
   Ulf Ekstrom                                   : XCFun DFT Library
   Mihaly Kallay                                 : mrcc  (arbitrary order and MRCC methods)
   Frank Weinhold                                : gennbo (NPA and NBO analysis)
   Simon Mueller                                 : openCOSMO-RS
   Christopher J. Cramer and Donald G. Truhlar   : smd solvation model
   Lars Goerigk                                  : TD-DFT with DH, B97 family of functionals
   V. Asgeirsson, H. Jonsson                     : NEB implementation
   FAccTs GmbH                                   : IRC, NEB, NEB-TS, DLPNO-Multilevel, CI-OPT
                                                   MM, QMMM, 2- and 3-layer-ONIOM, Crystal-QMMM,
                                                   LR-CPCM, SF, NACMEs, symmetry and pop. for TD-DFT,
                                                   nearIR, NL-DFT gradient (VV10), updates on ESD,
                                                   ML-optimized integration grids, MBIS, APM,
                                                   GOAT, DOCKER, SOLVATOR, interface openCOSMO-RS
   S Lehtola, MJT Oliveira, MAL Marques          : LibXC Library
   Liviu Ungur et al                             : ANISO software


 Your calculation uses the libint2 library for the computation of 2-el integrals
 For citations please refer to: http://libint.valeyev.net

 Your ORCA version has been built with support for libXC version: 6.2.2
 For citations please refer to: https://libxc.gitlab.io

 This ORCA versions uses:
   CBLAS   interface :  Fast vector & matrix operations
   LAPACKE interface :  Fast linear algebra routines
   Shared memory     :  Shared parallel matrices


Your calculation utilizes the atom-pairwise dispersion correction
with the Becke-Johnson damping scheme (D3BJ)


Warning: RI is on but no J-basis has been assigned. Assigning Def2/J (nothing to worry about!)
================================================================================

----- Orbital basis set information -----
Your calculation utilizes the basis: def2-SVP
   F. Weigend and R. Ahlrichs, Phys. Chem. Chem. Phys. 7, 3297 (2005).

----- AuxJ basis set information -----
Your calculation utilizes the auxiliary basis: def2/J
   F. Weigend, Phys. Chem. Chem. Phys. 8, 1057 (2006).

================================================================================
                                        WARNINGS
                       Please study these warnings very carefully!
================================================================================


WARNING: Geometry Optimization
  ===> : Switching off AutoStart
         For restart on a previous wavefunction, please use MOREAD

================================================================================
                                       INPUT FILE
================================================================================
NAME = data/geom_opt_PO_BP86/74149/74149.inp
|  1> ! RI BP86 def2-SVP D3BJ TIGHTSCF Opt
|  2> %pal
|  3> nprocs 6
|  4> end
|  5> 
|  6> * xyz 0 1
|  7> C     -1.482197   -2.698413   -0.017457
|  8> C     -1.813943   -1.334788   -0.591208
|  9> P     -1.108174    0.038572    0.356404
| 10> O     -1.682317    0.042460    1.752217
| 11> C     -1.703001    1.487905   -0.553437
| 12> C     -1.265873    2.805475    0.056193
| 13> C      0.658786   -0.029415    0.247086
| 14> C      1.423510   -0.075179    1.420118
| 15> C      2.816206   -0.129126    1.360846
| 16> C      3.460140   -0.137896    0.125702
| 17> C      2.712081   -0.092763   -1.049054
| 18> C      1.318368   -0.038787   -0.989137
| 19> H     -0.401055   -2.865314   -0.011096
| 20> H     -1.950490   -3.489899   -0.609831
| 21> H     -1.837828   -2.780015    1.014091
| 22> H     -1.463296   -1.275659   -1.626844
| 23> H     -2.901942   -1.208425   -0.612524
| 24> H     -2.797537    1.447924   -0.576979
| 25> H     -1.356987    1.429132   -1.590650
| 26> H     -1.615081    2.887141    1.089927
| 27> H     -1.669995    3.646810   -0.514328
| 28> H     -0.174976    2.886794    0.065867
| 29> H      0.925094   -0.068561    2.388878
| 30> H      3.396700   -0.164241    2.279253
| 31> H      4.545301   -0.179929    0.079462
| 32> H      3.216206   -0.099680   -2.012233
| 33> H      0.752302   -0.004122   -1.916408
| 34> **                         ****END OF INPUT****
================================================================================

                       *****************************
                       * Geometry Optimization Run *
                       *****************************

Geometry optimization settings:
Update method            Update   .... BFGS
Choice of coordinates    CoordSys .... (2022) Redundant Internals
Initial Hessian          InHess   .... Almloef's Model
Max. no of cycles        MaxIter  .... 81

Convergence Tolerances:
Energy Change            TolE     ....  5.0000e-06 Eh
Max. Gradient            TolMAXG  ....  3.0000e-04 Eh/bohr
RMS Gradient             TolRMSG  ....  1.0000e-04 Eh/bohr
Max. Displacement        TolMAXD  ....  4.0000e-03 bohr
RMS Displacement         TolRMSD  ....  2.0000e-03 bohr
Strict Convergence                .... False

------------------------------------------------------------------------------
                        ORCA OPTIMIZATION COORDINATE SETUP
------------------------------------------------------------------------------

The optimization will be done in redundant internal coordinates (2022)
Making redundant internal coordinates   ...  (2022 redundants) done
Evaluating the initial hessian          ...  (Almloef) done
Evaluating the coordinates              ...  done
Calculating the B-matrix                .... done
Calculating the G-matrix                .... done
Diagonalizing the G-matrix              .... done
Small eigenvalue found = 1.035e-02
Small eigenvalue found = 1.676e-02
Small eigenvalue found = 2.296e-02
The first mode is                       ....   53
The number of degrees of freedom        ....   75

    -----------------------------------------------------------------
                    Redundant Internal Coordinates


    -----------------------------------------------------------------
         Definition                    Initial Value    Approx d2E/dq
    -----------------------------------------------------------------
      1. B(C   1,C   0)                  1.5162         0.393070   
      2. B(P   2,C   1)                  1.8117         0.446132   
      3. B(O   3,P   2)                  1.5093         1.213539   
      4. B(C   4,P   2)                  1.8117         0.446133   
      5. B(C   5,C   4)                  1.5162         0.393069   
      6. B(C   6,P   2)                  1.7716         0.516827   
      7. B(C   7,C   6)                  1.4010         0.599973   
      8. B(C   8,C   7)                  1.3950         0.613424   
      9. B(C   9,C   8)                  1.3929         0.618063   
     10. B(C  10,C   9)                  1.3934         0.616946   
     11. B(C  11,C  10)                  1.3960         0.611076   
     12. B(C  11,C   6)                  1.4012         0.599594   
     13. B(H  12,C   0)                  1.0940         0.354890   
     14. B(H  13,C   0)                  1.0939         0.354955   
     15. B(H  14,C   0)                  1.0942         0.354616   
     16. B(H  15,C   1)                  1.0950         0.353566   
     17. B(H  16,C   1)                  1.0955         0.352871   
     18. B(H  17,C   4)                  1.0955         0.352873   
     19. B(H  18,C   4)                  1.0950         0.353566   
     20. B(H  19,C   5)                  1.0942         0.354618   
     21. B(H  20,C   5)                  1.0939         0.354956   
     22. B(H  21,C   5)                  1.0940         0.354891   
     23. B(H  22,C   7)                  1.0895         0.360794   
     24. B(H  23,C   8)                  1.0871         0.364024   
     25. B(H  24,C   9)                  1.0870         0.364146   
     26. B(H  25,C  10)                  1.0872         0.363885   
     27. B(H  26,C  11)                  1.0870         0.364155   
     28. A(C   1,C   0,H  14)          110.6540         0.326219   
     29. A(C   1,C   0,H  12)          110.8339         0.326260   
     30. A(C   1,C   0,H  13)          110.6190         0.326270   
     31. A(H  13,C   0,H  14)          108.5071         0.289486   
     32. A(H  12,C   0,H  13)          108.4111         0.289520   
     33. A(H  12,C   0,H  14)          107.7191         0.289477   
     34. A(P   2,C   1,H  15)          109.2093         0.353679   
     35. A(C   0,C   1,P   2)          113.4918         0.402451   
     36. A(C   0,C   1,H  15)          109.6585         0.326059   
     37. A(H  15,C   1,H  16)          107.0616         0.289084   
     38. A(P   2,C   1,H  16)          108.0369         0.353561   
     39. A(C   0,C   1,H  16)          109.1723         0.325954   
     40. A(O   3,P   2,C   4)          109.7240         0.524959   
     41. A(C   1,P   2,C   6)          109.0971         0.450818   
     42. A(C   1,P   2,C   4)          102.4655         0.438971   
     43. A(C   1,P   2,O   3)          109.7240         0.524959   
     44. A(C   4,P   2,C   6)          109.0972         0.450818   
     45. A(O   3,P   2,C   6)          115.8849         0.539718   
     46. A(P   2,C   4,H  18)          109.2093         0.353679   
     47. A(C   5,C   4,H  17)          109.1723         0.325954   
     48. A(P   2,C   4,H  17)          108.0369         0.353561   
     49. A(P   2,C   4,C   5)          113.4917         0.402451   
     50. A(H  17,C   4,H  18)          107.0617         0.289084   
     51. A(C   5,C   4,H  18)          109.6585         0.326059   
     52. A(H  20,C   5,H  21)          108.4110         0.289521   
     53. A(H  19,C   5,H  21)          107.7193         0.289477   
     54. A(C   4,C   5,H  21)          110.8338         0.326260   
     55. A(C   4,C   5,H  20)          110.6189         0.326270   
     56. A(C   4,C   5,H  19)          110.6540         0.326219   
     57. A(H  19,C   5,H  20)          108.5072         0.289486   
     58. A(C   7,C   6,C  11)          118.7850         0.428926   
     59. A(P   2,C   6,C  11)          121.6127         0.445563   
     60. A(P   2,C   6,C   7)          119.6022         0.445614   
     61. A(C   6,C   7,C   8)          120.7048         0.430685   
     62. A(C   8,C   7,H  22)          119.6528         0.352388   
     63. A(C   6,C   7,H  22)          119.6424         0.351069   
     64. A(C   7,C   8,C   9)          119.9627         0.432991   
     65. A(C   9,C   8,H  23)          120.1379         0.353370   
     66. A(C   7,C   8,H  23)          119.8994         0.352919   
     67. A(C   8,C   9,C  10)          119.9454         0.433436   
     68. A(C  10,C   9,H  24)          120.0889         0.353282   
     69. A(C   8,C   9,H  24)          119.9657         0.353390   
     70. A(C   9,C  10,C  11)          120.0672         0.432551   
     71. A(C  11,C  10,H  25)          120.0799         0.352668   
     72. A(C   9,C  10,H  25)          119.8529         0.353239   
     73. A(C  10,C  11,H  26)          118.9818         0.352712   
     74. A(C   6,C  11,H  26)          120.4833         0.351582   
     75. A(C   6,C  11,C  10)          120.5348         0.430340   
     76. D(H  15,C   1,C   0,H  12)     61.3206         0.012275   
     77. D(H  15,C   1,C   0,H  13)    -58.9600         0.012275   
     78. D(P   2,C   1,C   0,H  14)     58.3296         0.012275   
     79. D(P   2,C   1,C   0,H  12)    -61.1067         0.012275   
     80. D(P   2,C   1,C   0,H  13)    178.6127         0.012275   
     81. D(H  15,C   1,C   0,H  14)   -179.2431         0.012275   
     82. D(C   4,P   2,C   1,H  16)    -57.7846         0.004427   
     83. D(C   4,P   2,C   1,H  15)     58.3329         0.004427   
     84. D(O   3,P   2,C   1,C   0)    -62.4761         0.004427   
     85. D(C   4,P   2,C   1,C   0)   -178.9915         0.004427   
     86. D(O   3,P   2,C   1,H  16)     58.7308         0.004427   
     87. D(O   3,P   2,C   1,H  15)    174.8483         0.004427   
     88. D(C   5,C   4,P   2,C   6)    -65.4697         0.004427   
     89. D(C   5,C   4,P   2,O   3)     62.4762         0.004427   
     90. D(C   5,C   4,P   2,C   1)    178.9915         0.004427   
     91. D(H  17,C   4,P   2,C   6)    173.3234         0.004427   
     92. D(H  17,C   4,P   2,O   3)    -58.7308         0.004427   
     93. D(H  17,C   4,P   2,C   1)     57.7846         0.004427   
     94. D(H  20,C   5,C   4,H  18)     58.9604         0.012275   
     95. D(H  20,C   5,C   4,H  17)    -58.0444         0.012275   
     96. D(H  20,C   5,C   4,P   2)   -178.6123         0.012275   
     97. D(H  19,C   5,C   4,H  18)    179.2435         0.012275   
     98. D(H  19,C   5,C   4,H  17)     62.2387         0.012275   
     99. D(H  19,C   5,C   4,P   2)    -58.3293         0.012275   
    100. D(C  11,C   6,P   2,O   3)   -179.9995         0.005180   
    101. D(C  11,C   6,P   2,C   1)     55.5997         0.005180   
    102. D(C   7,C   6,P   2,C   4)    124.4013         0.005180   
    103. D(C   7,C   6,P   2,C   1)   -124.4003         0.005180   
    104. D(C   7,C   6,P   2,O   3)      0.0004         0.005180   
    105. D(C   8,C   7,C   6,C  11)     -0.0000         0.024815   
    106. D(C   8,C   7,C   6,P   2)    180.0000         0.024815   
    107. D(H  22,C   7,C   6,C  11)   -180.0000         0.024815   
    108. D(H  22,C   7,C   6,P   2)      0.0001         0.024815   
    109. D(H  23,C   8,C   7,H  22)      0.0000         0.026005   
    110. D(H  23,C   8,C   7,C   6)   -179.9999         0.026005   
    111. D(C   9,C   8,C   7,H  22)   -180.0000         0.026005   
    112. D(C   9,C   8,C   7,C   6)      0.0001         0.026005   
    113. D(H  24,C   9,C   8,H  23)     -0.0000         0.026423   
    114. D(H  24,C   9,C   8,C   7)    180.0000         0.026423   
    115. D(C  10,C   9,C   8,H  23)    180.0000         0.026423   
    116. D(C  10,C   9,C   8,C   7)     -0.0001         0.026423   
    117. D(H  25,C  10,C   9,H  24)     -0.0000         0.026322   
    118. D(H  25,C  10,C   9,C   8)   -180.0000         0.026322   
    119. D(C  11,C  10,C   9,H  24)    179.9999         0.026322   
    120. D(C  11,C  10,C   9,C   8)     -0.0000         0.026322   
    121. D(H  26,C  11,C  10,H  25)     -0.0000         0.025795   
    122. D(H  26,C  11,C  10,C   9)   -179.9999         0.025795   
    123. D(C   6,C  11,C  10,H  25)   -180.0000         0.025795   
    124. D(C   6,C  11,C  10,C   9)      0.0001         0.025795   
    125. D(H  26,C  11,C   6,C   7)    180.0000         0.024782   
    126. D(H  26,C  11,C   6,P   2)     -0.0000         0.024782   
    127. D(C  10,C  11,C   6,C   7)     -0.0001         0.024782   
    128. D(C  10,C  11,C   6,P   2)    179.9999         0.024782   
    -----------------------------------------------------------------

Number of atoms                         .... 27
Number of degrees of freedom            .... 128


         *************************************************************
         *                GEOMETRY OPTIMIZATION CYCLE   1            *
         *************************************************************
---------------------------------
CARTESIAN COORDINATES (ANGSTROEM)
---------------------------------
  C     -1.482197   -2.698413   -0.017457
  C     -1.813943   -1.334788   -0.591208
  P     -1.108174    0.038572    0.356404
  O     -1.682317    0.042460    1.752217
  C     -1.703001    1.487905   -0.553437
  C     -1.265873    2.805475    0.056193
  C      0.658786   -0.029415    0.247086
  C      1.423510   -0.075179    1.420118
  C      2.816206   -0.129126    1.360846
  C      3.460140   -0.137896    0.125702
  C      2.712081   -0.092763   -1.049054
  C      1.318368   -0.038787   -0.989137
  H     -0.401055   -2.865314   -0.011096
  H     -1.950490   -3.489899   -0.609831
  H     -1.837828   -2.780015    1.014091
  H     -1.463296   -1.275659   -1.626844
  H     -2.901942   -1.208425   -0.612524
  H     -2.797537    1.447924   -0.576979
  H     -1.356987    1.429132   -1.590650
  H     -1.615081    2.887141    1.089927
  H     -1.669995    3.646810   -0.514328
  H     -0.174976    2.886794    0.065867
  H      0.925094   -0.068561    2.388878
  H      3.396700   -0.164241    2.279253
  H      4.545301   -0.179929    0.079462
  H      3.216206   -0.099680   -2.012233
  H      0.752302   -0.004122   -1.916408

----------------------------
CARTESIAN COORDINATES (A.U.)
----------------------------
  NO LB      ZA    FRAG     MASS         X           Y           Z
   0 C     6.0000    0    12.011   -2.800946   -5.099262   -0.032989
   1 C     6.0000    0    12.011   -3.427855   -2.522384   -1.117221
   2 P    15.0000    0    30.974   -2.094145    0.072891    0.673506
   3 O     8.0000    0    15.999   -3.179118    0.080238    3.311210
   4 C     6.0000    0    12.011   -3.218205    2.811733   -1.045844
   5 C     6.0000    0    12.011   -2.392153    5.301579    0.106189
   6 C     6.0000    0    12.011    1.244925   -0.055586    0.466925
   7 C     6.0000    0    12.011    2.690044   -0.142068    2.683634
   8 C     6.0000    0    12.011    5.321858   -0.244013    2.571626
   9 C     6.0000    0    12.011    6.538717   -0.260586    0.237542
  10 C     6.0000    0    12.011    5.125090   -0.175297   -1.982425
  11 C     6.0000    0    12.011    2.491354   -0.073297   -1.869198
  12 H     1.0000    0     1.008   -0.757884   -5.414659   -0.020968
  13 H     1.0000    0     1.008   -3.685892   -6.594953   -1.152414
  14 H     1.0000    0     1.008   -3.472992   -5.253467    1.916354
  15 H     1.0000    0     1.008   -2.765229   -2.410646   -3.074290
  16 H     1.0000    0     1.008   -5.483876   -2.283592   -1.157503
  17 H     1.0000    0     1.008   -5.286579    2.736180   -1.090332
  18 H     1.0000    0     1.008   -2.564334    2.700668   -3.005893
  19 H     1.0000    0     1.008   -3.052061    5.455906    2.059664
  20 H     1.0000    0     1.008   -3.155833    6.891472   -0.971939
  21 H     1.0000    0     1.008   -0.330657    5.455250    0.124471
  22 H     1.0000    0     1.008    1.748174   -0.129562    4.514325
  23 H     1.0000    0     1.008    6.418833   -0.310371    4.307164
  24 H     1.0000    0     1.008    8.589374   -0.340017    0.150161
  25 H     1.0000    0     1.008    6.077749   -0.188368   -3.802569
  26 H     1.0000    0     1.008    1.421645   -0.007789   -3.621486

--------------------------------
INTERNAL COORDINATES (ANGSTROEM)
--------------------------------
 C      0   0   0     0.000000000000     0.00000000     0.00000000
 C      1   0   0     1.516152617365     0.00000000     0.00000000
 P      2   1   0     1.811683215550   113.49179810     0.00000000
 O      3   2   1     1.509287657129   109.72403119   297.52386794
 C      3   2   1     1.811683181491   102.46552937   181.00848161
 C      5   3   2     1.516153135466   113.49172456   178.99153246
 C      3   2   1     1.771643389312   109.09710650    65.46964009
 C      7   3   2     1.401035764317   119.60222470   235.59970849
 C      8   7   3     1.395000214053   120.70479994   179.99997958
 C      9   8   7     1.392949607844   119.96270399     0.00000000
 C     10   9   8     1.393442110282   119.94544653     0.00000000
 C     11  10   9     1.396044190502   120.06717219     0.00000000
 H      1   2   3     1.093967289404   110.83387247   298.89331258
 H      1   2   3     1.093917445661   110.61901141   178.61268278
 H      1   2   3     1.094177120428   110.65399150    58.32963632
 H      2   1   3     1.094984694754   109.65850343   122.42731258
 H      2   1   3     1.095519878243   109.17230575   239.43202148
 H      5   3   2     1.095518946172   108.03694320    57.78460122
 H      5   3   2     1.094984365685   109.20932000   301.66703465
 H      6   5   3     1.094176194941   110.65401247   301.67070398
 H      6   5   3     1.093916534545   110.61892621   181.38765997
 H      6   5   3     1.093966466875   110.83381189    61.10717325
 H      8   7   3     1.089476133093   119.64242532     0.00000000
 H      9   8   7     1.087050028706   119.89938695   180.00009212
 H     10   9   8     1.086958741908   119.96567710   179.99995911
 H     11  10   9     1.087153920360   119.85292479   180.00001863
 H     12  11  10     1.086951648429   118.98184526   180.00005119

---------------------------
INTERNAL COORDINATES (A.U.)
---------------------------
 C      0   0   0     0.000000000000     0.00000000     0.00000000
 C      1   0   0     2.865113224047     0.00000000     0.00000000
 P      2   1   0     3.423585118811   113.49179810     0.00000000
 O      3   2   1     2.852140329281   109.72403119   297.52386794
 C      3   2   1     3.423585054450   102.46552937   181.00848161
 C      5   3   2     2.865114203117   113.49172456   178.99153246
 C      3   2   1     3.347920812772   109.09710650    65.46964009
 C      7   3   2     2.647573898389   119.60222470   235.59970849
 C      8   7   3     2.636168361322   120.70479994   179.99997958
 C      9   8   7     2.632293277178   119.96270399     0.00000000
 C     10   9   8     2.633223971905   119.94544653     0.00000000
 C     11  10   9     2.638141190900   120.06717219     0.00000000
 H      1   2   3     2.067298576442   110.83387247   298.89331258
 H      1   2   3     2.067204385418   110.61901141   178.61268278
 H      1   2   3     2.067695099612   110.65399150    58.32963632
 H      2   1   3     2.069221193921   109.65850343   122.42731258
 H      2   1   3     2.070232544146   109.17230575   239.43202148
 H      5   3   2     2.070230782786   108.03694320    57.78460122
 H      5   3   2     2.069220572070   109.20932000   301.66703465
 H      6   5   3     2.067693350695   110.65401247   301.67070398
 H      6   5   3     2.067202663657   110.61892621   181.38765997
 H      6   5   3     2.067297022086   110.83381189    61.10717325
 H      8   7   3     2.058811520990   119.64242532     0.00000000
 H      9   8   7     2.054226848126   119.89938695   180.00009212
 H     10   9   8     2.054054341078   119.96567710   179.99995911
 H     11  10   9     2.054423174900   119.85292479   180.00001863
 H     12  11  10     2.054040936345   118.98184526   180.00005119

---------------------
BASIS SET INFORMATION
---------------------
There are 4 groups of distinct atoms

 Group   1 Type C   : 7s4p1d contracted to 3s2p1d pattern {511/31/1}
 Group   2 Type P   : 10s7p1d contracted to 4s3p1d pattern {5311/511/1}
 Group   3 Type O   : 7s4p1d contracted to 3s2p1d pattern {511/31/1}
 Group   4 Type H   : 4s1p contracted to 2s1p pattern {31/1}

Atom   0C    basis set group =>   1
Atom   1C    basis set group =>   1
Atom   2P    basis set group =>   2
Atom   3O    basis set group =>   3
Atom   4C    basis set group =>   1
Atom   5C    basis set group =>   1
Atom   6C    basis set group =>   1
Atom   7C    basis set group =>   1
Atom   8C    basis set group =>   1
Atom   9C    basis set group =>   1
Atom  10C    basis set group =>   1
Atom  11C    basis set group =>   1
Atom  12H    basis set group =>   4
Atom  13H    basis set group =>   4
Atom  14H    basis set group =>   4
Atom  15H    basis set group =>   4
Atom  16H    basis set group =>   4
Atom  17H    basis set group =>   4
Atom  18H    basis set group =>   4
Atom  19H    basis set group =>   4
Atom  20H    basis set group =>   4
Atom  21H    basis set group =>   4
Atom  22H    basis set group =>   4
Atom  23H    basis set group =>   4
Atom  24H    basis set group =>   4
Atom  25H    basis set group =>   4
Atom  26H    basis set group =>   4
---------------------------------
AUXILIARY/J BASIS SET INFORMATION
---------------------------------
There are 4 groups of distinct atoms

 Group   1 Type C   : 12s5p4d2f1g contracted to 6s4p3d1f1g pattern {711111/2111/211/2/1}
 Group   2 Type P   : 14s5p5d2f1g contracted to 8s4p3d1f1g pattern {71111111/2111/311/2/1}
 Group   3 Type O   : 12s5p4d2f1g contracted to 6s4p3d1f1g pattern {711111/2111/211/2/1}
 Group   4 Type H   : 5s2p1d contracted to 3s1p1d pattern {311/2/1}

Atom   0C    basis set group =>   1
Atom   1C    basis set group =>   1
Atom   2P    basis set group =>   2
Atom   3O    basis set group =>   3
Atom   4C    basis set group =>   1
Atom   5C    basis set group =>   1
Atom   6C    basis set group =>   1
Atom   7C    basis set group =>   1
Atom   8C    basis set group =>   1
Atom   9C    basis set group =>   1
Atom  10C    basis set group =>   1
Atom  11C    basis set group =>   1
Atom  12H    basis set group =>   4
Atom  13H    basis set group =>   4
Atom  14H    basis set group =>   4
Atom  15H    basis set group =>   4
Atom  16H    basis set group =>   4
Atom  17H    basis set group =>   4
Atom  18H    basis set group =>   4
Atom  19H    basis set group =>   4
Atom  20H    basis set group =>   4
Atom  21H    basis set group =>   4
Atom  22H    basis set group =>   4
Atom  23H    basis set group =>   4
Atom  24H    basis set group =>   4
Atom  25H    basis set group =>   4
Atom  26H    basis set group =>   4


           ************************************************************
           *        Program running with 6 parallel MPI-processes     *
           *              working on a common directory               *
           ************************************************************
------------------------------------------------------------------------------
                             ORCA STARTUP CALCULATIONS
                           -- RI-GTO INTEGRALS CHOSEN --
------------------------------------------------------------------------------
------------------------------------------------------------------------------
                   ___                                                        
                  /   \      - P O W E R E D   B Y -                         
                 /     \                                                     
                 |  |  |   _    _      __       _____    __    __             
                 |  |  |  | |  | |    /  \     |  _  \  |  |  /  |          
                  \  \/   | |  | |   /    \    | | | |  |  | /  /          
                 / \  \   | |__| |  /  /\  \   | |_| |  |  |/  /          
                |  |  |   |  __  | /  /__\  \  |    /   |      \           
                |  |  |   | |  | | |   __   |  |    \   |  |\   \          
                \     /   | |  | | |  |  |  |  | |\  \  |  | \   \       
                 \___/    |_|  |_| |__|  |__|  |_| \__\ |__|  \__/        
                                                                              
                      - O R C A' S   B I G   F R I E N D -                    
                                      &                                       
                       - I N T E G R A L  F E E D E R -                       
                                                                              
 v1 FN, 2020, v2 2021, v3 2022-2024                                           
------------------------------------------------------------------------------


----------------------
SHARK INTEGRAL PACKAGE
----------------------

Number of atoms                             ...     27
Number of basis functions                   ...    247
Number of shells                            ...    119
Maximum angular momentum                    ...      2
Integral batch strategy                     ... SHARK/LIBINT Hybrid
RI-J (if used) integral strategy            ... SPLIT-RIJ (Revised 2003 algorithm where possible)
Printlevel                                  ...      1
Contraction scheme used                     ... SEGMENTED contraction
Prescreening option                         ... SCHWARTZ
   Thresh                                   ... 2.500e-11
   Tcut                                     ... 2.500e-12
   Tpresel                                  ... 2.500e-12 
Coulomb Range Separation                    ... NOT USED
Exchange Range Separation                   ... NOT USED
Multipole approximations                    ... NOT USED
Finite Nucleus Model                        ... NOT USED
CABS basis                                  ... NOT available
Auxiliary Coulomb fitting basis             ... AVAILABLE
   # of basis functions in Aux-J            ...    755
   # of shells in Aux-J                     ...    257
   Maximum angular momentum in Aux-J        ...      4
Auxiliary J/K fitting basis                 ... NOT available
Auxiliary Correlation fitting basis         ... NOT available
Auxiliary 'external' fitting basis          ... NOT available

Checking pre-screening integrals            ... done (  0.0 sec) Dimension = 119
Check shell pair data                       ... done (  0.0 sec)
Shell pair information
Shell pair cut-off parameter TPreSel        ...   2.5e-12
Total number of shell pairs                 ...      7140
Shell pairs after pre-screening             ...      6275
Total number of primitive shell pairs       ...     25636
Primitive shell pairs kept                  ...     15354
          la=0 lb=0:   2035 shell pairs
          la=1 lb=0:   2366 shell pairs
          la=1 lb=1:    705 shell pairs
          la=2 lb=0:    696 shell pairs
          la=2 lb=1:    409 shell pairs
          la=2 lb=2:     64 shell pairs

Calculating one electron integrals          ... done (  0.0 sec)
Calculating RI/J V-Matrix + Cholesky decomp.... done (  0.0 sec)
Calculating Nuclear repulsion               ... done (  0.0 sec) ENN=    823.771225663544 Eh

Diagonalization of the overlap matrix:
Smallest eigenvalue                        ... 2.875e-04
Time for diagonalization                   ...    0.007 sec
Threshold for overlap eigenvalues          ... 1.000e-07
Number of eigenvalues below threshold      ... 0
Time for construction of square roots      ...    0.005 sec
Total time needed                          ...    0.014 sec

-------------------
DFT GRID GENERATION
-------------------

General Integration Accuracy     IntAcc      ... 4.388
Radial Grid Type                 RadialGrid  ... OptM3 with GC (2021)
Angular Grid (max. ang.)         AngularGrid ... 4 (Lebedev-302)
Angular grid pruning method      GridPruning ... 4 (adaptive)
Weight generation scheme         WeightScheme... mBecke (2022)
Basis function cutoff            BFCut       ... 1.0000e-11
Integration weight cutoff        WCut        ... 1.0000e-14
Partially contracted basis set               ... off
Rotationally invariant grid construction     ... off
Angular grids for H and He will be reduced by one unit

Total number of grid points                  ...   120955
Total number of batches                      ...     1903
Average number of points per batch           ...       63
Average number of grid points per atom       ...     4480
Initializing property integral containers    ... done (  0.0 sec)

SHARK setup successfully completed in   0.7 seconds

Maximum memory used throughout the entire STARTUP-calculation: 33.3 MB


           ************************************************************
           *        Program running with 6 parallel MPI-processes     *
           *              working on a common directory               *
           ************************************************************
-------------------------------------------------------------------------------
                                 ORCA GUESS
                   Start orbitals & Density for SCF / CASSCF
-------------------------------------------------------------------------------

------------
SCF SETTINGS
------------
Hamiltonian:
 Density Functional     Method          .... DFT(GTOs)
 Exchange Functional    Exchange        .... B88
   X-Alpha parameter    XAlpha          ....  0.666667
   Becke's b parameter  XBeta           ....  0.004200
 Correlation Functional Correlation     .... P86
 LDA part of GGA corr.  LDAOpt          .... PW91-LDA
 Gradients option       PostSCFGGA      .... off
   NL short-range parameter             ....  4.400000
 RI-approximation to the Coulomb term is turned on
   Number of AuxJ basis functions       .... 755


General Settings:
 Integral files         IntName         .... data/geom_opt_PO_BP86/74149/74149
 Hartree-Fock type      HFTyp           .... RHF
 Total Charge           Charge          ....    0
 Multiplicity           Mult            ....    1
 Number of Electrons    NEL             ....   98
 Basis Dimension        Dim             ....  247
 Nuclear Repulsion      ENuc            ....    823.7712256635 Eh

Convergence Acceleration:
 AO-DIIS                CNVDIIS         .... on
   Start iteration      DIISMaxIt       ....    12
   Startup error        DIISStart       ....  0.200000
   # of expansion vecs  DIISMaxEq       ....     5
   Bias factor          DIISBfac        ....   1.050
   Max. coefficient     DIISMaxC        ....  10.000
 MO-DIIS                CNVKDIIS        .... off
 Trust-Rad. Augm. Hess. CNVTRAH         .... auto
   Auto Start mean grad. ratio tolernc. ....  1.125000
   Auto Start start iteration           ....    50
   Auto Start num. interpolation iter.  ....    10
   Max. Number of Micro iterations      ....    24
   Max. Number of Macro iterations      .... Maxiter - #DIIS iter
   Number of Davidson start vectors     ....     2
   Converg. threshold    (grad. norm)   ....   1.000e-05
   Grad. Scal. Fac. for Micro threshold ....   0.100
   Minimum threshold for Micro iter.    ....   1.000e-02
   NR start threshold (gradient norm)   ....   1.000e-04
   Initial trust radius                 ....   0.400
   Minimum AH scaling param. (alpha)    ....   1.000
   Maximum AH scaling param. (alpha)    .... 1000.000
   Quad. conv. algorithm                .... NR
   White noise on init. David. guess    .... on
   Maximum white noise                  ....   0.010
   Pseudo random numbers                .... off
   Inactive MOs                         .... canonical
   Orbital update algorithm             .... Taylor
   Preconditioner                       .... Diag
   Full preconditioner red. dimension   ....   250
 SOSCF                  CNVSOSCF        .... on
   Start iteration      SOSCFMaxIt      ....   150
   Startup grad/error   SOSCFStart      ....  0.003300
   Hessian update       SOSCFHessUp     .... L-BFGS
 Level Shifting         CNVShift        .... on
   Level shift para.    LevelShift      ....    0.2500
   Turn off err/grad.   ShiftErr        ....    0.0010
 Zerner damping         CNVZerner       .... off
 Static damping         CNVDamp         .... on
   Fraction old density DampFac         ....    0.7000
   Max. Damping (<1)    DampMax         ....    0.9800
   Min. Damping (>=0)   DampMin         ....    0.0000
   Turn off err/grad.   DampErr         ....    0.1000

SCF Procedure:
 Maximum # iterations   MaxIter         ....   125
 SCF integral mode      SCFMode         .... Direct
   Integral package                     .... SHARK and LIBINT hybrid scheme
 Reset frequency        DirectResetFreq ....    20
 Integral Threshold     Thresh          ....  2.500e-11 Eh
 Primitive CutOff       TCut            ....  2.500e-12 Eh

Convergence Tolerance:
 Convergence Check Mode ConvCheckMode   .... Total+1el-Energy
 Convergence forced     ConvForced      .... 0
 Energy Change          TolE            ....  1.000e-08 Eh
 1-El. energy change                    ....  1.000e-05 Eh
 Orbital Gradient       TolG            ....  1.000e-05
 Orbital Rotation angle TolX            ....  1.000e-05
 DIIS Error             TolErr          ....  5.000e-07

------------------------------
INITIAL GUESS: MODEL POTENTIAL
------------------------------
Loading Hartree-Fock densities                     ... done
Calculating cut-offs                               ... done
Initializing the effective Hamiltonian             ... done
Setting up the integral package (SHARK)            ... done
Starting the Coulomb interaction                   ... done (   0.1 sec)
Making the grid                                    ... done (   0.1 sec)
Mapping shells                                     ... done
Starting the XC term evaluation                    ... done (   0.1 sec)
  promolecular density results
     # of electrons  =     97.992296072
     EX              =    -86.759950111
     EC              =     -3.645003484
     EX+EC           =    -90.404953595
Transforming the Hamiltonian                       ... done (   0.0 sec)
Diagonalizing the Hamiltonian                      ... done (   0.0 sec)
Back transforming the eigenvectors                 ... done (   0.0 sec)
Now organizing SCF variables                       ... done
                      ------------------
                      INITIAL GUESS DONE (   0.3 sec)
                      ------------------
             **** ENERGY FILE WAS UPDATED (data/geom_opt_PO_BP86/74149/74149.en.tmp) ****
Finished Guess after   0.4 sec
Maximum memory used throughout the entire GUESS-calculation: 18.1 MB


           ************************************************************
           *        Program running with 6 parallel MPI-processes     *
           *              working on a common directory               *
           ************************************************************

-------------------------------------------------------------------------------------------
                                      ORCA LEAN-SCF
                              memory conserving SCF solver
-------------------------------------------------------------------------------------------

----------------------------------------D-I-I-S--------------------------------------------
Iteration    Energy (Eh)           Delta-E    RMSDP     MaxDP     DIISErr   Damp  Time(sec)
-------------------------------------------------------------------------------------------
               ***  Starting incremental Fock matrix formation  ***
    1    -805.8944828730687959     0.00e+00  4.65e-03  1.62e-01  3.39e-01  0.700   0.5
    2    -806.0903487392193938    -1.96e-01  2.71e-03  8.70e-02  8.41e-02  0.700   0.5
                               ***Turning on AO-DIIS***
    3    -806.1491488910286307    -5.88e-02  8.51e-04  1.93e-02  2.63e-02  0.700   0.4
    4    -806.1897649790515743    -4.06e-02  1.45e-03  4.21e-02  1.60e-02  0.000   0.4
    5    -806.2816587525902605    -9.19e-02  3.82e-04  1.04e-02  8.27e-03  0.000   0.5
                              *** Initializing SOSCF ***
---------------------------------------S-O-S-C-F--------------------------------------
Iteration    Energy (Eh)           Delta-E    RMSDP     MaxDP     MaxGrad    Time(sec)
--------------------------------------------------------------------------------------
    6    -806.2826899787906996    -1.03e-03  1.32e-04  3.24e-03  1.85e-03     0.5
               *** Restarting incremental Fock matrix formation ***
    7    -806.2827533523292232    -6.34e-05  1.08e-04  2.86e-03  2.91e-04     0.5
    8    -806.2827449484219642     8.40e-06  4.99e-05  1.69e-03  9.63e-04     0.5
    9    -806.2827605891724261    -1.56e-05  4.64e-05  1.46e-03  2.65e-04     0.4
   10    -806.2827586573765757     1.93e-06  2.84e-05  8.36e-04  3.45e-04     0.4
   11    -806.2827622164071499    -3.56e-06  1.69e-05  5.49e-04  9.47e-05     0.4
   12    -806.2827616005303071     6.16e-07  1.13e-05  3.71e-04  1.75e-04     0.4
   13    -806.2827624059431173    -8.05e-07  2.77e-06  9.59e-05  1.41e-05     0.4
   14    -806.2827623995461863     6.40e-09  1.42e-06  6.72e-05  2.59e-05     0.4
                 **** Energy Check signals convergence ****

               *****************************************************
               *                     SUCCESS                       *
               *           SCF CONVERGED AFTER  14 CYCLES          *
               *****************************************************

             **** ENERGY FILE WAS UPDATED (data/geom_opt_PO_BP86/74149/74149.en.tmp) ****

----------------
TOTAL SCF ENERGY
----------------

Total Energy       :       -806.28276239954619 Eh          -21940.06938 eV

Components:
Nuclear Repulsion  :        823.77122566354421 Eh           22415.95466 eV
Electronic Energy  :      -1630.05398806309040 Eh          -44356.02403 eV
One Electron Energy:      -2736.47489169456458 Eh          -74463.26744 eV
Two Electron Energy:       1106.42090363147418 Eh           30107.24341 eV

Virial components:
Potential Energy   :      -1606.30477575408213 Eh          -43709.77511 eV
Kinetic Energy     :        800.02201335453594 Eh           21769.70573 eV
Virial Ratio       :          2.00782572096830

DFT components:
N(Alpha)           :       48.999985823303 electrons
N(Beta)            :       48.999985823303 electrons
N(Total)           :       97.999971646606 electrons
E(X)               :      -88.144175757729 Eh       
E(C)               :       -3.648877490262 Eh       
E(XC)              :      -91.793053247991 Eh       

---------------
SCF CONVERGENCE
---------------

  Last Energy change         ...   -6.3969e-09  Tolerance :   1.0000e-08
  Last MAX-Density change    ...    6.7237e-05  Tolerance :   1.0000e-07
  Last RMS-Density change    ...    1.4155e-06  Tolerance :   5.0000e-09
  Last DIIS Error            ...    1.8514e-03  Tolerance :   5.0000e-07
  Last Orbital Gradient      ...    2.5908e-05  Tolerance :   1.0000e-05
  Last Orbital Rotation      ...    4.0984e-05  Tolerance :   1.0000e-05


----------------
ORBITAL ENERGIES
----------------

  NO   OCC          E(Eh)            E(eV) 
   0   2.0000     -76.396701     -2078.8599 
   1   2.0000     -18.697802      -508.7931 
   2   2.0000      -9.937149      -270.4036 
   3   2.0000      -9.931701      -270.2553 
   4   2.0000      -9.931455      -270.2486 
   5   2.0000      -9.930226      -270.2152 
   6   2.0000      -9.928632      -270.1718 
   7   2.0000      -9.928090      -270.1571 
   8   2.0000      -9.913694      -269.7653 
   9   2.0000      -9.913682      -269.7650 
  10   2.0000      -9.906876      -269.5798 
  11   2.0000      -9.906867      -269.5796 
  12   2.0000      -6.358263      -173.0171 
  13   2.0000      -4.579384      -124.6114 
  14   2.0000      -4.579086      -124.6033 
  15   2.0000      -4.579051      -124.6023 
  16   2.0000      -0.841172       -22.8895 
  17   2.0000      -0.789215       -21.4756 
  18   2.0000      -0.712525       -19.3888 
  19   2.0000      -0.690788       -18.7973 
  20   2.0000      -0.686059       -18.6686 
  21   2.0000      -0.684995       -18.6397 
  22   2.0000      -0.596418       -16.2294 
  23   2.0000      -0.560717       -15.2579 
  24   2.0000      -0.554711       -15.0945 
  25   2.0000      -0.545458       -14.8427 
  26   2.0000      -0.500841       -13.6286 
  27   2.0000      -0.459772       -12.5110 
  28   2.0000      -0.423813       -11.5325 
  29   2.0000      -0.414792       -11.2871 
  30   2.0000      -0.411932       -11.2092 
  31   2.0000      -0.410842       -11.1796 
  32   2.0000      -0.403262       -10.9733 
  33   2.0000      -0.388140       -10.5618 
  34   2.0000      -0.378523       -10.3001 
  35   2.0000      -0.366517        -9.9734 
  36   2.0000      -0.347988        -9.4692 
  37   2.0000      -0.340194        -9.2571 
  38   2.0000      -0.326674        -8.8893 
  39   2.0000      -0.321384        -8.7453 
  40   2.0000      -0.318388        -8.6638 
  41   2.0000      -0.306666        -8.3448 
  42   2.0000      -0.302691        -8.2366 
  43   2.0000      -0.301149        -8.1947 
  44   2.0000      -0.283297        -7.7089 
  45   2.0000      -0.248219        -6.7544 
  46   2.0000      -0.246536        -6.7086 
  47   2.0000      -0.206319        -5.6142 
  48   2.0000      -0.200480        -5.4553 
  49   0.0000      -0.069693        -1.8964 
  50   0.0000      -0.055516        -1.5107 
  51   0.0000       0.019545         0.5318 
  52   0.0000       0.040689         1.1072 
  53   0.0000       0.051200         1.3932 
  54   0.0000       0.056938         1.5494 
  55   0.0000       0.059199         1.6109 
  56   0.0000       0.069645         1.8951 
  57   0.0000       0.080019         2.1774 
  58   0.0000       0.086652         2.3579 
  59   0.0000       0.097994         2.6665 
*Only the first 10 virtual orbitals were printed.

                    ********************************
                    * MULLIKEN POPULATION ANALYSIS *
                    ********************************

-----------------------
MULLIKEN ATOMIC CHARGES
-----------------------
   0 C :   -0.019509
   1 C :   -0.144204
   2 P :    0.446304
   3 O :   -0.470885
   4 C :   -0.144159
   5 C :   -0.019604
   6 C :   -0.095632
   7 C :    0.003395
   8 C :    0.011801
   9 C :    0.016215
  10 C :    0.010311
  11 C :   -0.006306
  12 H :    0.032343
  13 H :    0.032134
  14 H :    0.048701
  15 H :    0.025352
  16 H :    0.056734
  17 H :    0.056714
  18 H :    0.025386
  19 H :    0.048705
  20 H :    0.032144
  21 H :    0.032382
  22 H :    0.016342
  23 H :    0.005087
  24 H :    0.003617
  25 H :    0.000026
  26 H :   -0.003394
Sum of atomic charges:   -0.0000000

--------------------------------
MULLIKEN REDUCED ORBITAL CHARGES
--------------------------------
  0 C s       :     2.993027  s :     2.993027
      pz      :     1.025798  p :     2.999492
      px      :     1.019552
      py      :     0.954142
      dz2     :     0.006672  d :     0.026989
      dxz     :     0.002659
      dyz     :     0.005828
      dx2y2   :     0.007297
      dxy     :     0.004533

  1 C s       :     3.056356  s :     3.056356
      pz      :     1.014501  p :     3.059669
      px      :     1.031427
      py      :     1.013741
      dz2     :     0.007319  d :     0.028179
      dxz     :     0.002754
      dyz     :     0.005807
      dx2y2   :     0.007387
      dxy     :     0.004911

  2 P s       :     5.283880  s :     5.283880
      pz      :     2.874323  p :     8.778196
      px      :     2.937712
      py      :     2.966160
      dz2     :     0.099956  d :     0.491620
      dxz     :     0.101961
      dyz     :     0.152447
      dx2y2   :     0.088017
      dxy     :     0.049239

  3 O s       :     3.819552  s :     3.819552
      pz      :     1.396332  p :     4.639380
      px      :     1.589177
      py      :     1.653871
      dz2     :     0.004317  d :     0.011953
      dxz     :     0.003680
      dyz     :     0.002853
      dx2y2   :     0.000532
      dxy     :     0.000571

  4 C s       :     3.056355  s :     3.056355
      pz      :     1.014240  p :     3.059625
      px      :     1.033071
      py      :     1.012315
      dz2     :     0.007472  d :     0.028178
      dxz     :     0.002706
      dyz     :     0.005738
      dx2y2   :     0.007941
      dxy     :     0.004322

  5 C s       :     2.993050  s :     2.993050
      pz      :     1.025081  p :     2.999564
      px      :     1.018058
      py      :     0.956425
      dz2     :     0.006807  d :     0.026990
      dxz     :     0.002530
      dyz     :     0.005843
      dx2y2   :     0.007847
      dxy     :     0.003963

  6 C s       :     3.066220  s :     3.066220
      pz      :     0.972194  p :     2.995959
      px      :     0.992398
      py      :     1.031367
      dz2     :     0.010109  d :     0.033453
      dxz     :     0.009339
      dyz     :     0.006485
      dx2y2   :     0.004798
      dxy     :     0.002722

  7 C s       :     3.249383  s :     3.249383
      pz      :     0.892190  p :     2.714427
      px      :     0.883186
      py      :     0.939051
      dz2     :     0.008148  d :     0.032794
      dxz     :     0.011571
      dyz     :     0.003042
      dx2y2   :     0.004637
      dxy     :     0.005396

  8 C s       :     3.173939  s :     3.173939
      pz      :     0.873915  p :     2.781522
      px      :     0.927897
      py      :     0.979710
      dz2     :     0.008040  d :     0.032739
      dxz     :     0.012269
      dyz     :     0.003310
      dx2y2   :     0.004427
      dxy     :     0.004692

  9 C s       :     3.169883  s :     3.169883
      pz      :     0.966375  p :     2.780829
      px      :     0.848806
      py      :     0.965648
      dz2     :     0.010571  d :     0.033073
      dxz     :     0.009747
      dyz     :     0.006184
      dx2y2   :     0.004353
      dxy     :     0.002219

 10 C s       :     3.170944  s :     3.170944
      pz      :     0.865477  p :     2.786041
      px      :     0.935879
      py      :     0.984686
      dz2     :     0.008273  d :     0.032703
      dxz     :     0.011637
      dyz     :     0.003014
      dx2y2   :     0.004632
      dxy     :     0.005147

 11 C s       :     3.223850  s :     3.223850
      pz      :     0.878365  p :     2.749287
      px      :     0.897492
      py      :     0.973429
      dz2     :     0.008044  d :     0.033169
      dxz     :     0.012220
      dyz     :     0.003291
      dx2y2   :     0.004427
      dxy     :     0.005188

 12 H s       :     0.944436  s :     0.944436
      pz      :     0.005442  p :     0.023221
      px      :     0.012904
      py      :     0.004875

 13 H s       :     0.945042  s :     0.945042
      pz      :     0.007335  p :     0.022824
      px      :     0.006751
      py      :     0.008738

 14 H s       :     0.928397  s :     0.928397
      pz      :     0.012368  p :     0.022902
      px      :     0.006097
      py      :     0.004436

 15 H s       :     0.951642  s :     0.951642
      pz      :     0.012034  p :     0.023006
      px      :     0.006047
      py      :     0.004925

 16 H s       :     0.920424  s :     0.920424
      pz      :     0.005203  p :     0.022842
      px      :     0.013010
      py      :     0.004629

 17 H s       :     0.920444  s :     0.920444
      pz      :     0.005192  p :     0.022842
      px      :     0.013077
      py      :     0.004573

 18 H s       :     0.951608  s :     0.951608
      pz      :     0.012027  p :     0.023006
      px      :     0.006002
      py      :     0.004977

 19 H s       :     0.928395  s :     0.928395
      pz      :     0.012369  p :     0.022901
      px      :     0.006034
      py      :     0.004498

 20 H s       :     0.945032  s :     0.945032
      pz      :     0.007160  p :     0.022824
      px      :     0.006367
      py      :     0.009298

 21 H s       :     0.944396  s :     0.944396
      pz      :     0.005419  p :     0.023221
      px      :     0.013025
      py      :     0.004777

 22 H s       :     0.960858  s :     0.960858
      pz      :     0.011807  p :     0.022801
      px      :     0.006462
      py      :     0.004532

 23 H s       :     0.972584  s :     0.972584
      pz      :     0.010890  p :     0.022329
      px      :     0.006517
      py      :     0.004922

 24 H s       :     0.974088  s :     0.974088
      pz      :     0.003717  p :     0.022295
      px      :     0.013696
      py      :     0.004882

 25 H s       :     0.977568  s :     0.977568
      pz      :     0.011525  p :     0.022406
      px      :     0.005867
      py      :     0.005015

 26 H s       :     0.980789  s :     0.980789
      pz      :     0.010915  p :     0.022604
      px      :     0.006465
      py      :     0.005224



                     *******************************
                     * LOEWDIN POPULATION ANALYSIS *
                     *******************************

----------------------
LOEWDIN ATOMIC CHARGES
----------------------
   0 C :   -0.073602
   1 C :   -0.191623
   2 P :    0.863906
   3 O :   -0.510414
   4 C :   -0.191620
   5 C :   -0.073624
   6 C :   -0.194878
   7 C :   -0.007301
   8 C :   -0.023080
   9 C :   -0.014963
  10 C :   -0.025953
  11 C :   -0.027166
  12 H :    0.027408
  13 H :    0.029653
  14 H :    0.034350
  15 H :    0.022540
  16 H :    0.039239
  17 H :    0.039238
  18 H :    0.022545
  19 H :    0.034349
  20 H :    0.029660
  21 H :    0.027416
  22 H :    0.037841
  23 H :    0.034399
  24 H :    0.033086
  25 H :    0.032535
  26 H :    0.026060

-------------------------------
LOEWDIN REDUCED ORBITAL CHARGES
-------------------------------
  0 C s       :     2.836236  s :     2.836236
      pz      :     1.073382  p :     3.166199
      px      :     1.071305
      py      :     1.021512
      dz2     :     0.017296  d :     0.071167
      dxz     :     0.006905
      dyz     :     0.015315
      dx2y2   :     0.020836
      dxy     :     0.010815

  1 C s       :     2.889421  s :     2.889421
      pz      :     1.076739  p :     3.229851
      px      :     1.082889
      py      :     1.070223
      dz2     :     0.018608  d :     0.072351
      dxz     :     0.007097
      dyz     :     0.015029
      dx2y2   :     0.020191
      dxy     :     0.011426

  2 P s       :     4.930036  s :     4.930036
      pz      :     2.793371  p :     8.519265
      px      :     2.853538
      py      :     2.872355
      dz2     :     0.143946  d :     0.686794
      dxz     :     0.135707
      dyz     :     0.215565
      dx2y2   :     0.128985
      dxy     :     0.062591

  3 O s       :     3.657807  s :     3.657807
      pz      :     1.521182  p :     4.833993
      px      :     1.635746
      py      :     1.677065
      dz2     :     0.007920  d :     0.018615
      dxz     :     0.006054
      dyz     :     0.003306
      dx2y2   :     0.000673
      dxy     :     0.000663

  4 C s       :     2.889420  s :     2.889420
      pz      :     1.075783  p :     3.229848
      px      :     1.081516
      py      :     1.072549
      dz2     :     0.018887  d :     0.072351
      dxz     :     0.006884
      dyz     :     0.015057
      dx2y2   :     0.021272
      dxy     :     0.010252

  5 C s       :     2.836234  s :     2.836234
      pz      :     1.072439  p :     3.166224
      px      :     1.069333
      py      :     1.024452
      dz2     :     0.017530  d :     0.071166
      dxz     :     0.006514
      dyz     :     0.015561
      dx2y2   :     0.021865
      dxy     :     0.009696

  6 C s       :     2.907978  s :     2.907978
      pz      :     1.089616  p :     3.196265
      px      :     1.096457
      py      :     1.010191
      dz2     :     0.029987  d :     0.090635
      dxz     :     0.029716
      dyz     :     0.013811
      dx2y2   :     0.012021
      dxy     :     0.005100

  7 C s       :     2.868274  s :     2.868274
      pz      :     1.055450  p :     3.049632
      px      :     1.060003
      py      :     0.934179
      dz2     :     0.023558  d :     0.089395
      dxz     :     0.034357
      dyz     :     0.006001
      dx2y2   :     0.013960
      dxy     :     0.011518

  8 C s       :     2.863827  s :     2.863827
      pz      :     1.048955  p :     3.070345
      px      :     1.060697
      py      :     0.960693
      dz2     :     0.023777  d :     0.088908
      dxz     :     0.035524
      dyz     :     0.006497
      dx2y2   :     0.013214
      dxy     :     0.009896

  9 C s       :     2.864896  s :     2.864896
      pz      :     1.071014  p :     3.060723
      px      :     1.042064
      py      :     0.947646
      dz2     :     0.031017  d :     0.089344
      dxz     :     0.029978
      dyz     :     0.013520
      dx2y2   :     0.010970
      dxy     :     0.003858

 10 C s       :     2.863646  s :     2.863646
      pz      :     1.047748  p :     3.073527
      px      :     1.059372
      py      :     0.966407
      dz2     :     0.024038  d :     0.088780
      dxz     :     0.033898
      dyz     :     0.005796
      dx2y2   :     0.013971
      dxy     :     0.011077

 11 C s       :     2.864788  s :     2.864788
      pz      :     1.047010  p :     3.071413
      px      :     1.062262
      py      :     0.962142
      dz2     :     0.023694  d :     0.090965
      dxz     :     0.036154
      dyz     :     0.006707
      dx2y2   :     0.013408
      dxy     :     0.011001

 12 H s       :     0.906188  s :     0.906188
      pz      :     0.013302  p :     0.066404
      px      :     0.039540
      py      :     0.013562

 13 H s       :     0.904191  s :     0.904191
      pz      :     0.021034  p :     0.066156
      px      :     0.017892
      py      :     0.027230

 14 H s       :     0.898413  s :     0.898413
      pz      :     0.038759  p :     0.067237
      px      :     0.015707
      py      :     0.012770

 15 H s       :     0.905171  s :     0.905171
      pz      :     0.039813  p :     0.072289
      px      :     0.016494
      py      :     0.015982

 16 H s       :     0.890309  s :     0.890309
      pz      :     0.013666  p :     0.070452
      px      :     0.041852
      py      :     0.014933

 17 H s       :     0.890310  s :     0.890310
      pz      :     0.013624  p :     0.070451
      px      :     0.041957
      py      :     0.014870

 18 H s       :     0.905166  s :     0.905166
      pz      :     0.039747  p :     0.072289
      px      :     0.016344
      py      :     0.016197

 19 H s       :     0.898413  s :     0.898413
      pz      :     0.038837  p :     0.067238
      px      :     0.015627
      py      :     0.012774

 20 H s       :     0.904184  s :     0.904184
      pz      :     0.020486  p :     0.066157
      px      :     0.016654
      py      :     0.029017

 21 H s       :     0.906179  s :     0.906179
      pz      :     0.013310  p :     0.066405
      px      :     0.040011
      py      :     0.013084

 22 H s       :     0.890929  s :     0.890929
      pz      :     0.037469  p :     0.071230
      px      :     0.020356
      py      :     0.013405

 23 H s       :     0.897432  s :     0.897432
      pz      :     0.033558  p :     0.068169
      px      :     0.020244
      py      :     0.014366

 24 H s       :     0.898852  s :     0.898852
      pz      :     0.011827  p :     0.068062
      px      :     0.042094
      py      :     0.014140

 25 H s       :     0.899211  s :     0.899211
      pz      :     0.035480  p :     0.068255
      px      :     0.018240
      py      :     0.014535

 26 H s       :     0.904691  s :     0.904691
      pz      :     0.034257  p :     0.069249
      px      :     0.020199
      py      :     0.014794



                      *****************************
                      * MAYER POPULATION ANALYSIS *
                      *****************************

  NA   - Mulliken gross atomic population
  ZA   - Total nuclear charge
  QA   - Mulliken gross atomic charge
  VA   - Mayer's total valence
  BVA  - Mayer's bonded valence
  FA   - Mayer's free valence

  ATOM       NA         ZA         QA         VA         BVA        FA
  0 C      6.0195     6.0000    -0.0195     4.0080     4.0080    -0.0000
  1 C      6.1442     6.0000    -0.1442     3.9512     3.9512    -0.0000
  2 P     14.5537    15.0000     0.4463     4.8877     4.8877    -0.0000
  3 O      8.4709     8.0000    -0.4709     2.1197     2.1197    -0.0000
  4 C      6.1442     6.0000    -0.1442     3.9511     3.9511    -0.0000
  5 C      6.0196     6.0000    -0.0196     4.0081     4.0081    -0.0000
  6 C      6.0956     6.0000    -0.0956     3.6787     3.6787    -0.0000
  7 C      5.9966     6.0000     0.0034     3.8979     3.8979    -0.0000
  8 C      5.9882     6.0000     0.0118     3.8263     3.8263    -0.0000
  9 C      5.9838     6.0000     0.0162     3.8275     3.8275    -0.0000
 10 C      5.9897     6.0000     0.0103     3.8619     3.8619    -0.0000
 11 C      6.0063     6.0000    -0.0063     3.8528     3.8528    -0.0000
 12 H      0.9677     1.0000     0.0323     0.9951     0.9951    -0.0000
 13 H      0.9679     1.0000     0.0321     0.9836     0.9836    -0.0000
 14 H      0.9513     1.0000     0.0487     1.0064     1.0064    -0.0000
 15 H      0.9746     1.0000     0.0254     0.9852     0.9852    -0.0000
 16 H      0.9433     1.0000     0.0567     0.9895     0.9895    -0.0000
 17 H      0.9433     1.0000     0.0567     0.9895     0.9895    -0.0000
 18 H      0.9746     1.0000     0.0254     0.9852     0.9852    -0.0000
 19 H      0.9513     1.0000     0.0487     1.0064     1.0064    -0.0000
 20 H      0.9679     1.0000     0.0321     0.9836     0.9836    -0.0000
 21 H      0.9676     1.0000     0.0324     0.9951     0.9951    -0.0000
 22 H      0.9837     1.0000     0.0163     1.0150     1.0150    -0.0000
 23 H      0.9949     1.0000     0.0051     0.9796     0.9796    -0.0000
 24 H      0.9964     1.0000     0.0036     0.9787     0.9787    -0.0000
 25 H      1.0000     1.0000     0.0000     0.9789     0.9789    -0.0000
 26 H      1.0034     1.0000    -0.0034     0.9847     0.9847    -0.0000

  Mayer bond orders larger than 0.100000
B(  0-C ,  1-C ) :   1.0971 B(  0-C , 12-H ) :   0.9675 B(  0-C , 13-H ) :   0.9611 
B(  0-C , 14-H ) :   0.9594 B(  1-C ,  2-P ) :   0.9459 B(  1-C , 15-H ) :   0.9115 
B(  1-C , 16-H ) :   0.9265 B(  2-P ,  3-O ) :   1.9061 B(  2-P ,  4-C ) :   0.9459 
B(  2-P ,  6-C ) :   0.8748 B(  4-C ,  5-C ) :   1.0971 B(  4-C , 17-H ) :   0.9265 
B(  4-C , 18-H ) :   0.9115 B(  5-C , 19-H ) :   0.9594 B(  5-C , 20-H ) :   0.9611 
B(  5-C , 21-H ) :   0.9675 B(  6-C ,  7-C ) :   1.3760 B(  6-C , 11-C ) :   1.3257 
B(  7-C ,  8-C ) :   1.3718 B(  7-C , 22-H ) :   0.9808 B(  8-C ,  9-C ) :   1.3787 
B(  8-C , 23-H ) :   0.9841 B(  9-C , 10-C ) :   1.3766 B(  9-C , 24-H ) :   0.9808 
B( 10-C , 11-C ) :   1.4012 B( 10-C , 25-H ) :   0.9808 B( 11-C , 26-H ) :   0.9803 


-------
TIMINGS
-------

Total SCF time: 0 days 0 hours 0 min 6 sec 

Total time                  ....       6.287 sec
Sum of individual times     ....       6.233 sec  ( 99.1%)

SCF preparation             ....       0.106 sec  (  1.7%)
Fock matrix formation       ....       5.608 sec  ( 89.2%)
  Startup                   ....       0.036 sec  (  0.6% of F)
  Split-RI-J                ....       1.803 sec  ( 32.2% of F)
  XC integration            ....       3.626 sec  ( 64.7% of F)
    Basis function eval.    ....       1.050 sec  ( 29.0% of XC)
    Density eval.           ....       0.889 sec  ( 24.5% of XC)
    XC-Functional eval.     ....       0.134 sec  (  3.7% of XC)
    XC-Potential eval.      ....       0.900 sec  ( 24.8% of XC)
Diagonalization             ....       0.000 sec  (  0.0%)
Density matrix formation    ....       0.079 sec  (  1.3%)
Total Energy calculation    ....       0.031 sec  (  0.5%)
Population analysis         ....       0.039 sec  (  0.6%)
Orbital Transformation      ....       0.038 sec  (  0.6%)
Orbital Orthonormalization  ....       0.000 sec  (  0.0%)
DIIS solution               ....       0.184 sec  (  2.9%)
SOSCF solution              ....       0.148 sec  (  2.4%)
Finished LeanSCF after   6.3 sec

Maximum memory used throughout the entire LEANSCF-calculation: 24.6 MB


-------------------------------------------------------------------------------
                          DFT DISPERSION CORRECTION                            
                                                                               
                              DFTD3 V3.1  Rev 1                                
                          USING Becke-Johnson damping                          
-------------------------------------------------------------------------------
The BP86 functional is recognized
Active option DFTDOPT                   ...         4   

molecular C6(AA) [au] = 7930.245526 


            DFT-D V3
 parameters
 s6 scaling factor         :     1.0000 
 a1 scaling factor         :     0.3946 
 s8 scaling factor         :     3.2822 
 a2 scaling factor         :     4.8516 
 ad hoc parameters k1-k3   :    16.0000     1.3333    -4.0000 

 Edisp/kcal,au: -32.974954340603  -0.052548929038 
 E6   /kcal   : -12.134650537 
 E8   /kcal   : -20.840303804 
 % E8         :  63.200402307 

-------------------------   ----------------
Dispersion correction           -0.052548929
-------------------------   ----------------


-------------------------   --------------------
FINAL SINGLE POINT ENERGY      -806.335311328584
-------------------------   --------------------



           ************************************************************
           *        Program running with 6 parallel MPI-processes     *
           *              working on a common directory               *
           ************************************************************
------------------------------------------------------------------------------
                         ORCA SCF GRADIENT CALCULATION
------------------------------------------------------------------------------

Nuc. rep. gradient        (SHARK) ... done (  0.0 sec)
HCore & Overlap gradient  (SHARK) ... done (  0.1 sec)
Split-RIJ-J gradient      (SHARK) ... done (  0.5 sec)
XC gradient                       ... done (  2.2 sec)
Dispersion correction             ... done (  0.1 sec)

-------------------
DISPERSION GRADIENT
-------------------

   1   C   :   -0.000344959   -0.000709096   -0.000048900
   2   C   :   -0.000504552   -0.000494938   -0.000158944
   3   P   :   -0.000323981    0.000010080    0.000198319
   4   O   :   -0.000403214    0.000007553    0.000619922
   5   C   :   -0.000463989    0.000537073   -0.000145133
   6   C   :   -0.000288199    0.000735031   -0.000029573
   7   C   :    0.000683307   -0.000028601    0.000130333
   8   C   :    0.000324345   -0.000011672   -0.000080083
   9   C   :    0.000485297   -0.000021755    0.000200263
  10   C   :    0.000172491   -0.000006882    0.000007689
  11   C   :    0.000544552   -0.000018554   -0.000212814
  12   C   :    0.000566902   -0.000024539    0.000168570
  13   H   :   -0.000090842   -0.000478934   -0.000024266
  14   H   :   -0.000080121   -0.000268126   -0.000050035
  15   H   :   -0.000134560   -0.000320364    0.000081376
  16   H   :   -0.000189630   -0.000208698   -0.000237636
  17   H   :   -0.000242137   -0.000155716   -0.000082688
  18   H   :   -0.000229085    0.000176390   -0.000078244
  19   H   :   -0.000172418    0.000229209   -0.000231776
  20   H   :   -0.000109090    0.000327646    0.000090048
  21   H   :   -0.000058781    0.000274827   -0.000042769
  22   H   :   -0.000052952    0.000485062   -0.000011365
  23   H   :    0.000139268   -0.000009646    0.000311707
  24   H   :    0.000159519   -0.000008961    0.000200951
  25   H   :    0.000240243   -0.000009317   -0.000009414
  26   H   :    0.000154685   -0.000003220   -0.000213590
  27   H   :    0.000217897   -0.000003853   -0.000351949

Difference to translation invariance:
           :   -0.0000000000    0.0000000000    0.0000000000

Difference to rotation invariance:
           :    0.0000000000    0.0000000000    0.0000000000

Norm of the Dispersion gradient    ...    0.0025317749
RMS gradient                       ...    0.0002813083
MAX gradient                       ...    0.0007350314

------------------
CARTESIAN GRADIENT
------------------

   1   C   :   -0.000818067   -0.001698034   -0.001984771
   2   C   :   -0.007941606    0.010780411    0.007437183
   3   P   :    0.041759715   -0.001465747   -0.008736357
   4   O   :   -0.005863139    0.000498403   -0.020089571
   5   C   :   -0.008705344   -0.010355185    0.007147362
   6   C   :   -0.000681841    0.001836732   -0.001934067
   7   C   :   -0.016527296    0.000559453    0.003545161
   8   C   :    0.001184560    0.000016319   -0.006032806
   9   C   :    0.002006101   -0.000086824    0.000308742
  10   C   :   -0.002069016    0.000071811   -0.000643448
  11   C   :    0.002474224   -0.000111634    0.001900750
  12   C   :   -0.003769627    0.000089722    0.002441509
  13   H   :   -0.009809782    0.003283476   -0.000213425
  14   H   :    0.003319838    0.007630705    0.004407470
  15   H   :    0.002733073    0.000408449   -0.008658729
  16   H   :   -0.002225159   -0.001359295    0.011873968
  17   H   :    0.008348797   -0.007001813   -0.001102270
  18   H   :    0.008849856    0.006382285   -0.000918623
  19   H   :   -0.002137302    0.001223816    0.011909352
  20   H   :    0.002690668   -0.000392302   -0.008674594
  21   H   :    0.002702674   -0.007985326    0.004200786
  22   H   :   -0.010056789   -0.002497136   -0.000272431
  23   H   :    0.006703962   -0.000181976   -0.005689331
  24   H   :   -0.004596426    0.000289890   -0.007987893
  25   H   :   -0.009531490    0.000364731    0.000745450
  26   H   :   -0.003739235    0.000036332    0.008528596
  27   H   :    0.005698649   -0.000337266    0.008491988

Difference to translation invariance:
           :    0.0000000000    0.0000000000    0.0000000000

Difference to rotation invariance:
           :    0.0001153008   -0.0004502841   -0.0003329133

Norm of the Cartesian gradient     ...    0.0681536164
RMS gradient                       ...    0.0075726240
MAX gradient                       ...    0.0417597155

-------
TIMINGS
-------

Total SCF gradient time     ....        2.889 sec

One electron gradient       ....       0.134 sec  (  4.6%)
RI-J Coulomb gradient       ....       0.499 sec  ( 17.3%)
XC gradient                 ....       2.195 sec  ( 76.0%)

Maximum memory used throughout the entire SCFGRAD-calculation: 33.2 MB
------------------------------------------------------------------------------
                         ORCA GEOMETRY RELAXATION STEP
------------------------------------------------------------------------------

Reading the OPT-File                    .... done
Getting information on internals        .... done
Copying old internal coords+grads       .... done
Making the new internal coordinates     .... (2022 redundants) done
Validating the new internal coordinates .... (2022 redundants) done
Calculating the B-matrix                .... done
Calculating the G,G- and P matrices     .... done
Transforming gradient to internals      .... done
Projecting the internal gradient        .... done
Number of atoms                         ....  27
Number of internal coordinates          .... 128
Current Energy                          ....  -806.335311329 Eh
Current gradient norm                   ....     0.068153616 Eh/bohr
Maximum allowed component of the step   ....  0.300
Current trust radius                    ....  0.300
Evaluating the initial hessian          ....  (Almloef) done
[...]
      px      :     1.080141
      py      :     1.068694
      dz2     :     0.016419  d :     0.068516
      dxz     :     0.007629
      dyz     :     0.015354
      dx2y2   :     0.019322
      dxy     :     0.009792

  2 P s       :     4.964658  s :     4.964658
      pz      :     2.788680  p :     8.517974
      px      :     2.858544
      py      :     2.870750
      dz2     :     0.140531  d :     0.644728
      dxz     :     0.126981
      dyz     :     0.211905
      dx2y2   :     0.115225
      dxy     :     0.050085

  3 O s       :     3.667972  s :     3.667972
      pz      :     1.483133  p :     4.816352
      px      :     1.658882
      py      :     1.674336
      dz2     :     0.008939  d :     0.018278
      dxz     :     0.005092
      dyz     :     0.003497
      dx2y2   :     0.000364
      dxy     :     0.000386

  4 C s       :     2.906366  s :     2.906366
      pz      :     1.071692  p :     3.221391
      px      :     1.078462
      py      :     1.071237
      dz2     :     0.016741  d :     0.068517
      dxz     :     0.007535
      dyz     :     0.015218
      dx2y2   :     0.020425
      dxy     :     0.008598

  5 C s       :     2.851486  s :     2.851486
      pz      :     1.067899  p :     3.161187
      px      :     1.069564
      py      :     1.023724
      dz2     :     0.016785  d :     0.067389
      dxz     :     0.006463
      dyz     :     0.014364
      dx2y2   :     0.021028
      dxy     :     0.008748

  6 C s       :     2.924869  s :     2.924869
      pz      :     1.086409  p :     3.177607
      px      :     1.091606
      py      :     0.999592
      dz2     :     0.028657  d :     0.086418
      dxz     :     0.028987
      dyz     :     0.013395
      dx2y2   :     0.010752
      dxy     :     0.004627

  7 C s       :     2.877033  s :     2.877033
      pz      :     1.058916  p :     3.054647
      px      :     1.057680
      py      :     0.938051
      dz2     :     0.022277  d :     0.086776
      dxz     :     0.034183
      dyz     :     0.005977
      dx2y2   :     0.013499
      dxy     :     0.010840

  8 C s       :     2.873229  s :     2.873229
      pz      :     1.045465  p :     3.067893
      px      :     1.059471
      py      :     0.962957
      dz2     :     0.022815  d :     0.085972
      dxz     :     0.034275
      dyz     :     0.006096
      dx2y2   :     0.012966
      dxy     :     0.009820

  9 C s       :     2.874657  s :     2.874657
      pz      :     1.066716  p :     3.062538
      px      :     1.039053
      py      :     0.956769
      dz2     :     0.029758  d :     0.085526
      dxz     :     0.028875
      dyz     :     0.012947
      dx2y2   :     0.010318
      dxy     :     0.003629

 10 C s       :     2.872973  s :     2.872973
      pz      :     1.045085  p :     3.071691
      px      :     1.057157
      py      :     0.969449
      dz2     :     0.023034  d :     0.085843
      dxz     :     0.032841
      dyz     :     0.005706
      dx2y2   :     0.013492
      dxy     :     0.010770

 11 C s       :     2.873610  s :     2.873610
      pz      :     1.045386  p :     3.075983
      px      :     1.060693
      py      :     0.969904
      dz2     :     0.023164  d :     0.088088
      dxz     :     0.034713
      dyz     :     0.006245
      dx2y2   :     0.013224
      dxy     :     0.010743

 12 H s       :     0.902907  s :     0.902907
      pz      :     0.012397  p :     0.064192
      px      :     0.039451
      py      :     0.012343

 13 H s       :     0.903840  s :     0.903840
      pz      :     0.018510  p :     0.063915
      px      :     0.016837
      py      :     0.028567

 14 H s       :     0.896843  s :     0.896843
      pz      :     0.038578  p :     0.065525
      px      :     0.015105
      py      :     0.011843

 15 H s       :     0.901816  s :     0.901816
      pz      :     0.038271  p :     0.068973
      px      :     0.016235
      py      :     0.014467

 16 H s       :     0.894552  s :     0.894552
      pz      :     0.012938  p :     0.068113
      px      :     0.040950
      py      :     0.014226

 17 H s       :     0.894536  s :     0.894536
      pz      :     0.012875  p :     0.068125
      px      :     0.041053
      py      :     0.014197

 18 H s       :     0.901831  s :     0.901831
      pz      :     0.038244  p :     0.068974
      px      :     0.016043
      py      :     0.014688

 19 H s       :     0.896853  s :     0.896853
      pz      :     0.038593  p :     0.065526
      px      :     0.015063
      py      :     0.011870

 20 H s       :     0.903827  s :     0.903827
      pz      :     0.017960  p :     0.063915
      px      :     0.015580
      py      :     0.030375

 21 H s       :     0.902874  s :     0.902874
      pz      :     0.012389  p :     0.064189
      px      :     0.039848
      py      :     0.011952

 22 H s       :     0.890598  s :     0.890598
      pz      :     0.035308  p :     0.070777
      px      :     0.022643
      py      :     0.012826

 23 H s       :     0.898540  s :     0.898540
      pz      :     0.033234  p :     0.065913
      px      :     0.019006
      py      :     0.013674

 24 H s       :     0.899538  s :     0.899538
      pz      :     0.010908  p :     0.065842
      px      :     0.041297
      py      :     0.013638

 25 H s       :     0.900140  s :     0.900140
      pz      :     0.034203  p :     0.065989
      px      :     0.017926
      py      :     0.013860

 26 H s       :     0.906885  s :     0.906885
      pz      :     0.033411  p :     0.066490
      px      :     0.018954
      py      :     0.014124



                      *****************************
                      * MAYER POPULATION ANALYSIS *
                      *****************************

  NA   - Mulliken gross atomic population
  ZA   - Total nuclear charge
  QA   - Mulliken gross atomic charge
  VA   - Mayer's total valence
  BVA  - Mayer's bonded valence
  FA   - Mayer's free valence

  ATOM       NA         ZA         QA         VA         BVA        FA
  0 C      6.0434     6.0000    -0.0434     3.9978     3.9978    -0.0000
  1 C      6.1641     6.0000    -0.1641     3.9342     3.9342    -0.0000
  2 P     14.5239    15.0000     0.4761     4.7766     4.7766    -0.0000
  3 O      8.4663     8.0000    -0.4663     2.1274     2.1274    -0.0000
  4 C      6.1642     6.0000    -0.1642     3.9343     3.9343    -0.0000
  5 C      6.0436     6.0000    -0.0436     3.9976     3.9976    -0.0000
  6 C      6.1380     6.0000    -0.1380     3.7393     3.7393    -0.0000
  7 C      5.9948     6.0000     0.0052     3.8854     3.8854    -0.0000
  8 C      5.9974     6.0000     0.0026     3.8240     3.8240    -0.0000
  9 C      5.9926     6.0000     0.0074     3.8302     3.8302    -0.0000
 10 C      6.0027     6.0000    -0.0027     3.8696     3.8696     0.0000
 11 C      6.0103     6.0000    -0.0103     3.8526     3.8526    -0.0000
 12 H      0.9546     1.0000     0.0454     0.9942     0.9942    -0.0000
 13 H      0.9605     1.0000     0.0395     0.9821     0.9821    -0.0000
 14 H      0.9423     1.0000     0.0577     1.0074     1.0074    -0.0000
 15 H      0.9582     1.0000     0.0418     0.9862     0.9862    -0.0000
 16 H      0.9385     1.0000     0.0615     0.9832     0.9832    -0.0000
 17 H      0.9385     1.0000     0.0615     0.9833     0.9833    -0.0000
 18 H      0.9582     1.0000     0.0418     0.9862     0.9862     0.0000
 19 H      0.9423     1.0000     0.0577     1.0074     1.0074    -0.0000
 20 H      0.9605     1.0000     0.0395     0.9821     0.9821    -0.0000
 21 H      0.9544     1.0000     0.0456     0.9941     0.9941    -0.0000
 22 H      0.9754     1.0000     0.0246     1.0204     1.0204    -0.0000
 23 H      0.9894     1.0000     0.0106     0.9799     0.9799    -0.0000
 24 H      0.9908     1.0000     0.0092     0.9789     0.9789     0.0000
 25 H      0.9945     1.0000     0.0055     0.9790     0.9790     0.0000
 26 H      1.0006     1.0000    -0.0006     0.9845     0.9845     0.0000

  Mayer bond orders larger than 0.100000
B(  0-C ,  1-C ) :   1.0858 B(  0-C , 12-H ) :   0.9684 B(  0-C , 13-H ) :   0.9615 
B(  0-C , 14-H ) :   0.9586 B(  1-C ,  2-P ) :   0.9223 B(  1-C , 15-H ) :   0.9174 
B(  1-C , 16-H ) :   0.9283 B(  2-P ,  3-O ) :   1.8703 B(  2-P ,  4-C ) :   0.9223 
B(  2-P ,  6-C ) :   0.8579 B(  4-C ,  5-C ) :   1.0858 B(  4-C , 17-H ) :   0.9282 
B(  4-C , 18-H ) :   0.9174 B(  5-C , 19-H ) :   0.9586 B(  5-C , 20-H ) :   0.9615 
B(  5-C , 21-H ) :   0.9684 B(  6-C ,  7-C ) :   1.3945 B(  6-C , 11-C ) :   1.3388 
B(  7-C ,  8-C ) :   1.3632 B(  7-C , 22-H ) :   0.9686 B(  8-C ,  9-C ) :   1.3842 
B(  8-C , 23-H ) :   0.9793 B(  9-C , 10-C ) :   1.3786 B(  9-C , 24-H ) :   0.9757 
B( 10-C , 11-C ) :   1.4040 B( 10-C , 25-H ) :   0.9751 B( 11-C , 26-H ) :   0.9720 


-------
TIMINGS
-------

Total SCF time: 0 days 0 hours 0 min 2 sec 

Total time                  ....       2.278 sec
Sum of individual times     ....       2.222 sec  ( 97.5%)

SCF preparation             ....       0.108 sec  (  4.7%)
Fock matrix formation       ....       1.893 sec  ( 83.1%)
  Startup                   ....       0.014 sec  (  0.7% of F)
  Split-RI-J                ....       0.572 sec  ( 30.2% of F)
  XC integration            ....       1.257 sec  ( 66.4% of F)
    Basis function eval.    ....       0.346 sec  ( 27.5% of XC)
    Density eval.           ....       0.332 sec  ( 26.4% of XC)
    XC-Functional eval.     ....       0.045 sec  (  3.6% of XC)
    XC-Potential eval.      ....       0.281 sec  ( 22.4% of XC)
Diagonalization             ....       0.000 sec  (  0.0%)
Density matrix formation    ....       0.024 sec  (  1.1%)
Total Energy calculation    ....       0.012 sec  (  0.5%)
Population analysis         ....       0.068 sec  (  3.0%)
Orbital Transformation      ....       0.017 sec  (  0.7%)
Orbital Orthonormalization  ....       0.000 sec  (  0.0%)
DIIS solution               ....       0.023 sec  (  1.0%)
SOSCF solution              ....       0.077 sec  (  3.4%)
Finished LeanSCF after   2.3 sec

Maximum memory used throughout the entire LEANSCF-calculation: 25.5 MB


-------------------------------------------------------------------------------
                          DFT DISPERSION CORRECTION                            
                                                                               
                              DFTD3 V3.1  Rev 1                                
                          USING Becke-Johnson damping                          
-------------------------------------------------------------------------------
The BP86 functional is recognized
Active option DFTDOPT                   ...         4   

molecular C6(AA) [au] = 7948.650897 


            DFT-D V3
 parameters
 s6 scaling factor         :     1.0000 
 a1 scaling factor         :     0.3946 
 s8 scaling factor         :     3.2822 
 a2 scaling factor         :     4.8516 
 ad hoc parameters k1-k3   :    16.0000     1.3333    -4.0000 

 Edisp/kcal,au: -32.824818961179  -0.052309673107 
 E6   /kcal   : -12.079201710 
 E8   /kcal   : -20.745617251 
 % E8         :  63.201010417 

-------------------------   ----------------
Dispersion correction           -0.052309673
-------------------------   ----------------


-------------------------   --------------------
FINAL SINGLE POINT ENERGY      -806.345488742939
-------------------------   --------------------

                                *** OPTIMIZATION RUN DONE ***



           ************************************************************
           *        Program running with 6 parallel MPI-processes     *
           *              working on a common directory               *
           ************************************************************

------------------------------------------------------------------------------
                              ORCA PROPERTY CALCULATIONS
------------------------------------------------------------------------------

GBWName                                 ... data/geom_opt_PO_BP86/74149/74149.gbw
Number of atoms                         ...     27
Number of basis functions               ...    247
Max core memory                         ...   1024 MB

Electric properties:
Dipole moment                           ... YES
Quadrupole moment                       ...  NO
Static polarizability (Dipole/Dipole)   ...  NO
Static polarizability (Dipole/Quad.)    ...  NO
Static polarizability (Quad./Quad.)     ...  NO
Static polarizability (Velocity)        ...  NO

Atomic electric properties:
Dipole moment                           ...  NO
Quadrupole moment                       ...  NO
Static polarizability                   ...  NO

Choice of electric origin               ... Center of mass
Position of electric origin             ...     0.064485    -0.007503     0.359282

General magnetic properties:
Magnetizability                         ...  NO

EPR properties:
g-Tensor (aka g-matrix)                 ...  NO
Zero-Field splitting spin-orbit         ...  NO
Zero-field splitting spin-spin          ...  NO
Hyperfine couplings                     ...  NO (   0 nuclei)
Quadrupole couplings                    ...  NO (   0 nuclei)
Contact density                         ...  NO (   0 nuclei)

NMR properties:
Chemical shifts                         ...  NO (   0 nuclei)
Spin-rotation constants                 ...  NO (   0 nuclei)
Spin-spin couplings                     ...  NO (   0 nuclei,    0 pairs)

Choice of magnetic origin               ... GIAO
Position of magnetic origin             ...     0.000000     0.000000     0.000000

Properties with geometric perturbations:
SCF Hessian                             ...  NO
IR spectrum                             ...  NO
VCD spectrum                            ...  NO
X-ray spectroscopy properties:
SCF XES/XAS/RIXS spectra                ...  NO


-------------
DIPOLE MOMENT
-------------

Method             : SCF
Type of density    : Electron Density
Multiplicity       :   1
Irrep              :   0
Energy             :  -806.2931790698321493 Eh
Relativity type    : 
Basis              : AO
                                X                 Y                 Z
Electronic contribution:      2.943764976      -0.161760079       3.701411220
Nuclear contribution   :     -2.422548204       0.158615548      -5.027533033
                        -----------------------------------------
Total Dipole Moment    :      0.521216771      -0.003144531      -1.326121813
                        -----------------------------------------
Magnitude (a.u.)       :      1.424877494
Magnitude (Debye)      :      3.621750765



--------------------
Rotational spectrum 
--------------------
 
Rotational constants in cm-1:             0.036457             0.020734             0.017610 
Rotational constants in MHz :          1092.960049           621.582223           527.931915 

Dipole components along the rotational axes: 
x,y,z [a.u.] :    -0.540749     0.002230    -1.318280 
x,y,z [Debye]:    -1.374475     0.005668    -3.350801 

 

Dipole moment calculation done in   0.0 sec 

Maximum memory used throughout the entire PROP-calculation: 12.3 MB

--------------------------------
SUGGESTED CITATIONS FOR THIS RUN
--------------------------------

Below you find a list of papers that are relevant to this ORCA run
We neither can nor want to force you to cite these papers, but we appreciate if you do
You receive ORCA, which is the product of decades of hard work by many enthusiastic individuals, for free
The only thing we kindly ask in return is that you cite our papers,
We deeply appreciate it, if you show your appreciation for ORCA by not just citing the generic ORCA reference.

Please note that relegating all ORCA citations to the supporting information does *not* help us.
SI sections are not indexed - citations you put there will not count into any citation statistics
But we need these citations in order to attract the funding resources that allow us to do what we are doing

Therefore, if you are a happy ORCA user, please consider citing a few of the papers listed below in the main body of your paper

In addition to the list printed below, the program has created the file data/geom_opt_PO_BP86/74149/74149.bibtex that contains the list in bibtex format
You can import this file easily into all common literature databanks and citation aid programs


List of essential papers. We consider these as the minimum necessary citations

  1. Neese,F.
     Software update: the ORCA program system, version 5.0
     WIRES Comput. Molec. Sci., 2022 12(1)e1606
     doi.org/10.1002/wcms.1606

List of papers to cite with high priority. The work reported in these papers was absolutely
necessary for this run to complete.
Our perspective: the developers of density functionals and basis sets usually get cited in chemistry papers
Good! But without the algorithms to do something with them, the functionals or basis sets would not do anything.
Hence, in our opinion, the algorithm design and method developments papers are equally worthy of getting cited

  1. Neese,F.
     An improvement of the resolution of the identity approximation for the formation of the Coulomb matrix
     J. Comp. Chem., 2003 24(14)1740-1747
     doi.org/10.1002/jcc.10318
  2. Neese,F.
     The SHARK Integral Generation and Digestion System
     J. Comp. Chem., 2022  1-16
     doi.org/10.1002/jcc.26942
  3. Grimme,S.; Antony,J.; Ehrlich,S.; Krieg,H.
     A consistent and accurate ab initio parametrization of density functional dispersion correction (DFT-D) for the 94 elements H-Pu
     J. Chem. Phys., 2010 132 154104-XXXX
     doi.org/10.1063/1.3382344
  4. Grimme,S.; Ehrlich,S.; Goerigk,L.
     Effect of the damping function in dispersion corrected density functional theory
     J. Comput. Chem., 2011 32(7)1456-1465
     doi.org/10.1002/jcc.21759

List of suggested additional citations. These are papers that are important in the 'surrounding' of 
of this run, or papers that preceded the highly important papers. If you like your results we are grateful for a citation.

  1. Neese,F.
     The ORCA program system
     WIRES Comput. Molec. Sci., 2012 2(1)73-78
     doi.org/10.1002/wcms.81
  2. Neese,F.
     Software update: the ORCA program system, version 4.0
     WIRES Comput. Molec. Sci., 2018 8(1)1-6
     doi.org/10.1002/wcms.1327
  3. Neese,F.; Wennmohs,F.; Becker,U.; Riplinger,C.
     The ORCA quantum chemistry program package
     J. Chem. Phys., 2020 152 Art. No. L224108
     doi.org/10.1063/5.0004608

List of optional additional citations

  1. Neese,F.
     Approximate second-order SCF convergence for spin unrestricted wavefunctions
     Chem. Phys. Lett., 2000 325(1-3)93-98
     doi.org/10.1016/s0009-2614(00)00662-x

Timings for individual modules:

Sum of individual times          ...       76.538 sec (=   1.276 min)
Startup calculation              ...        7.926 sec (=   0.132 min)  10.4 %
SCF iterations                   ...       43.729 sec (=   0.729 min)  57.1 %
Property calculations            ...        0.149 sec (=   0.002 min)   0.2 %
SCF Gradient evaluation          ...       24.642 sec (=   0.411 min)  32.2 %
Geometry relaxation              ...        0.092 sec (=   0.002 min)   0.1 %
                             ****ORCA TERMINATED NORMALLY****
TOTAL RUN TIME: 0 days 0 hours 1 minutes 18 seconds 191 msec
