
                                 *****************
                                 * O   R   C   A *
                                 *****************

                                            #,                                       
                                            ###                                      
                                            ####                                     
                                            #####                                    
                                            ######                                   
                                           ########,                                 
                                     ,,################,,,,,                         
                               ,,#################################,,                 
                          ,,##########################################,,             
                       ,#########################################, ''#####,          
                    ,#############################################,,   '####,        
                  ,##################################################,,,,####,       
                ,###########''''           ''''###############################       
              ,#####''   ,,,,##########,,,,          '''####'''          '####       
            ,##' ,,,,###########################,,,                        '##       
           ' ,,###''''                  '''############,,,                           
         ,,##''                                '''############,,,,        ,,,,,,###''
      ,#''                                            '''#######################'''  
     '                                                          ''''####''''         
             ,#######,   #######,   ,#######,      ##                                
            ,#'     '#,  ##    ##  ,#'     '#,    #''#        ,####,   ,####,        
            ##       ##  ##   ,#'  ##            #'  '#       #'       #'  '#        
            ##       ##  #######   ##           ,######,      #####,   #    #        
            '#,     ,#'  ##    ##  '#,     ,#' ,#      #,     #,   #   #,  ,#        
             '#######'   ##     ##  '#######'  #'      '#     '####' # '####'        



                #########################################################
                #                        -***-                          #
                #          Department of theory and spectroscopy        #
                #                                                       #
                #                      Frank Neese                      #
                #                                                       #
                #     Directorship, Architecture, Infrastructure        #
                #                    SHARK, DRIVERS                     #
                #        Core code/Algorithms in most modules           #
                #                                                       #
                #        Max Planck Institute fuer Kohlenforschung      #
                #                Kaiser Wilhelm Platz 1                 #
                #                 D-45470 Muelheim/Ruhr                 #
                #                      Germany                          #
                #                                                       #
                #                  All rights reserved                  #
                #                        -***-                          #
                #########################################################


                         Program Version 6.0.0  -   RELEASE   -


 With contributions from (in alphabetic order):
   Daniel Aravena         : Magnetic Suceptibility
   Michael Atanasov       : Ab Initio Ligand Field Theory (pilot matlab implementation)
   Alexander A. Auer      : GIAO ZORA, VPT2 properties, NMR spectrum
   Ute Becker             : All parallelization in ORCA, NUMFREQ, NUMCALC
   Giovanni Bistoni       : ED, misc. LED, open-shell LED, HFLD
   Martin Brehm           : Molecular dynamics
   Dmytro Bykov           : pre 5.0 version of the SCF Hessian
   Marcos Casanova-Páez   : Triplet and SCS-CIS(D). UHF-(DLPNO)-IP/EA/STEOM-CCSD. UHF-CVS-IP/STEOM-CCSD
   Vijay G. Chilkuri      : MRCI spin determinant printing, contributions to CSF-ICE
   Pauline Colinet        : FMM embedding
   Dipayan Datta          : RHF DLPNO-CCSD density
   Achintya Kumar Dutta   : EOM-CC, STEOM-CC
   Nicolas Foglia         : Exact transition moments, OPA infrastructure, MCD improvements
   Dmitry Ganyushin       : Spin-Orbit,Spin-Spin,Magnetic field MRCI
   Miquel Garcia          : C-PCM and meta-GGA Hessian, CCSD/C-PCM, Gaussian charge scheme
   Tiago L. C. Gouveia    : GS-ROHF, GS-ROCIS
   Yang Guo               : DLPNO-NEVPT2, F12-NEVPT2, CIM, IAO-localization
   Andreas Hansen         : Spin unrestricted coupled pair/coupled cluster methods
   Ingolf Harden          : AUTO-CI MPn and infrastructure 
   Benjamin Helmich-Paris : MC-RPA, TRAH-(SCF,CASSCF), AVAS, COSX integrals, SCF dyn. polar.
   Lee Huntington         : MR-EOM, pCC
   Robert Izsak           : Overlap fitted RIJCOSX, COSX-SCS-MP3, EOM
   Riya Kayal             : Wick's Theorem for AUTO-CI, AUTO-CI UHF-CCSDT
   Emily Kempfer          : AUTO-CI, RHF CISDT and CCSDT
   Christian Kollmar      : KDIIS, OOCD, Brueckner-CCSD(T), CCSD density, CASPT2, CASPT2-K, improved NEVPT2
   Axel Koslowski         : Symmetry handling
   Simone Kossmann        : Meta GGA functionals, TD-DFT gradient, OOMP2, (MP2 Hessian; deprecated post 5.0)
   Lucas Lang             : DCDCAS
   Marvin Lechner         : AUTO-CI (C++ implementation), FIC-MRCC
   Spencer Leger          : CASSCF response
   Dagmar Lenk            : GEPOL surface, SMD, ORCA-2-JSON
   Dimitrios Liakos       : Extrapolation schemes; Compound Job, initial MDCI parallelization
   Dimitrios Manganas     : Further ROCIS development; embedding schemes. LFT, Crystal Embedding
   Dimitrios Pantazis     : SARC Basis sets
   Anastasios Papadopoulos: AUTO-CI, single reference methods and gradients
   Taras Petrenko         : pre 6.0 DFT Hessian and TD-DFT gradient, (ASA, deprecated), ECA, 1-Electron XAS/XES, NRVS
   Peter Pinski           : DLPNO-MP2, DLPNO-MP2 Gradient
   Christoph Reimann      : Effective Core Potentials
   Marius Retegan         : Local ZFS, SOC
   Christoph Riplinger    : Optimizer, TS searches, QM/MM, DLPNO-CCSD(T), (RO)-DLPNO pert. Triples
   Michael Roemelt        : Original ROCIS implementation
   Masaaki Saitow         : Open-shell DLPNO-CCSD energy and density
   Barbara Sandhoefer     : DKH picture change effects
   Kantharuban Sivalingam : CASSCF convergence/infrastructure, NEVPT2 and variants, FIC-MRCI
   Bernardo de Souza      : ESD, SOC TD-DFT
   Georgi Stoychev        : AutoAux, RI-MP2 NMR, DLPNO-MP2 response, X2C
   Van Anh Tran           : RI-MP2 g-tensors
   Willem Van den Heuvel  : Paramagnetic NMR
   Zikuan Wang            : NOTCH, Electric field optimization 
   Frank Wennmohs         : Technical directorship and infrastructure
   Hang Xu                : AUTO-CI-Response properties 


 We gratefully acknowledge several colleagues who have allowed us to
 interface, adapt or use parts of their codes:
   Stefan Grimme, W. Hujo, H. Kruse, P. Pracht,  : VdW corrections, initial TS optimization,
                  C. Bannwarth, S. Ehlert,         DFT functionals, gCP, sTDA/sTD-DF
                  L. Wittmann, M. Mueller
   Ed Valeev, F. Pavosevic, A. Kumar             : LibInt (2-el integral package), F12 methods
   Garnet Chan, S. Sharma, J. Yang, R. Olivares  : DMRG
   Ulf Ekstrom                                   : XCFun DFT Library
   Mihaly Kallay                                 : mrcc  (arbitrary order and MRCC methods)
   Frank Weinhold                                : gennbo (NPA and NBO analysis)
   Simon Mueller                                 : openCOSMO-RS
   Christopher J. Cramer and Donald G. Truhlar   : smd solvation model
   Lars Goerigk                                  : TD-DFT with DH, B97 family of functionals
   V. Asgeirsson, H. Jonsson                     : NEB implementation
   FAccTs GmbH                                   : IRC, NEB, NEB-TS, DLPNO-Multilevel, CI-OPT
                                                   MM, QMMM, 2- and 3-layer-ONIOM, Crystal-QMMM,
                                                   LR-CPCM, SF, NACMEs, symmetry and pop. for TD-DFT,
                                                   nearIR, NL-DFT gradient (VV10), updates on ESD,
                                                   ML-optimized integration grids, MBIS, APM,
                                                   GOAT, DOCKER, SOLVATOR, interface openCOSMO-RS
   S Lehtola, MJT Oliveira, MAL Marques          : LibXC Library
   Liviu Ungur et al                             : ANISO software


 Your calculation uses the libint2 library for the computation of 2-el integrals
 For citations please refer to: http://libint.valeyev.net

 Your ORCA version has been built with support for libXC version: 6.2.2
 For citations please refer to: https://libxc.gitlab.io

 This ORCA versions uses:
   CBLAS   interface :  Fast vector & matrix operations
   LAPACKE interface :  Fast linear algebra routines
   Shared memory     :  Shared parallel matrices


Your calculation utilizes the atom-pairwise dispersion correction
with the zero-damping scheme (D30)


XCFun DFT library Copyright 2009-2010 Ulf Ekstrom and contributors.
See http://admol.org/xcfun for more information.
This is free software; see the source code for copying conditions.
There is ABSOLUTELY NO WARRANTY; not even for MERCHANTABILITY or FITNESS FOR A PARTICULAR PURPOSE.
For details see the documentation.
Scientific users of this library should cite U. Ekstrom, L. Visscher, R. Bast, A. J. Thorvaldsen and K. Ruud;
J.Chem.Theor.Comp. 2010, DOI: 10.1021/ct100117s
XCFun Version 0.99 

Warning: RI is on but no J-basis has been assigned. Assigning Def2/J (nothing to worry about!)
================================================================================

----- Orbital basis set information -----
Your calculation utilizes the basis: def2-TZVP
   F. Weigend and R. Ahlrichs, Phys. Chem. Chem. Phys. 7, 3297 (2005).

----- AuxJ basis set information -----
Your calculation utilizes the auxiliary basis: def2/J
   F. Weigend, Phys. Chem. Chem. Phys. 8, 1057 (2006).

================================================================================
                                        WARNINGS
                       Please study these warnings very carefully!
================================================================================

WARNING: Functional chosen is sensitive to the integration grid.
         DEFGRID3 seems to be a minimum grid for robust results!

================================================================================
                                       INPUT FILE
================================================================================
NAME = data/single_point_P_M06-2x/80271/80271.inp
|  1> ! RIJCOSX M062X def2-TZVP D3ZERO NormalSCF
|  2> %pal
|  3> nprocs 6
|  4> end
|  5> 
|  6> * xyz 0 1
|  7>   C           2.77905160974405     -0.07549609468400     -1.99704493266315
|  8>   C           2.51531523305497     -1.03637639685326     -0.86469527152931
|  9>   C           3.53596390229807     -1.88998994560393     -0.39997076557266
| 10>   C           3.32327311799929     -2.77582282545714      0.66790321641707
| 11>   C           2.07110908611111     -2.81587218816083      1.30055678226645
| 12>   C           1.04246416039604     -1.96998695003168      0.85866244560202
| 13>   C           1.24622444675109     -1.08241742538667     -0.21882626209330
| 14>   P          -0.10998266378496     -0.01477265376349     -0.88274717627315
| 15>   C           0.29168476473252      1.62919652574911     -0.13635854157321
| 16>   C           1.36331217805984      1.80203598742432      0.76478864541502
| 17>   C           1.68518352852385      3.07182887273245      1.26761367735586
| 18>   C           0.92827028824735      4.18664359318989      0.87511658382061
| 19>   C          -0.14393105778179      4.02156951767740     -0.01554802255773
| 20>   C          -0.48128812664075      2.75660137968173     -0.53768498235442
| 21>   C          -1.65752475580070      2.60453374029221     -1.46949291150998
| 22>   C          -1.55927100955392     -0.55463821350080      0.13153009024449
| 23>   C          -2.03024776568675      0.20032165059646      1.22637395172785
| 24>   C          -3.17105843439623     -0.19773275963855      1.93964942704862
| 25>   C          -3.85160091654039     -1.36665345517796      1.56505266939108
| 26>   C          -3.38497530876332     -2.12692116974765      0.48138118526169
| 27>   C          -2.24519358970798     -1.74242286916440     -0.25333622717427
| 28>   C          -1.75343538336047     -2.59219357558533     -1.39866234778405
| 29>   H           2.84715547475286      0.96969469748488     -1.62563606482238
| 30>   H           1.94876492935007     -0.08832125066477     -2.73452108837881
| 31>   H           3.72530789777778     -0.31296517286168     -2.52065554511380
| 32>   H           4.52002488922727     -1.85819140034560     -0.89490153242475
| 33>   H           4.13798304129022     -3.43507109720908      1.00496030355113
| 34>   H           1.89312408378334     -3.50246019786047      2.14250294657807
| 35>   H           0.06246255172715     -1.99199270924351      1.35891677218332
| 36>   H           1.94841873279231      0.92429710638337      1.07849399990049
| 37>   H           2.52510116713077      3.18702611960599      1.96990340175552
| 38>   H           1.17142732344720      5.18821213147958      1.26204866573046
| 39>   H          -0.73886993312642      4.89719339851385     -0.32158731950523
| 40>   H          -1.40418156011131      1.95350494062011     -2.33281951156229
| 41>   H          -2.00340431749309      3.58480418841666     -1.85070990113076
| 42>   H          -2.51341014761954      2.11716711590691     -0.95459723726904
| 43>   H          -1.48961921719741      1.11152696911506      1.52390873693349
| 44>   H          -3.52430972237072      0.40473491570059      2.79064935063205
| 45>   H          -4.74864069636649     -1.68907927947868      2.11580732903851
| 46>   H          -3.91944188637201     -3.04499245438843      0.18836877473156
| 47>   H          -1.48833563185825     -1.96635531204489     -2.27689596756424
| 48>   H          -0.82956307481942     -3.14399019450824     -1.12082347683068
| 49>   H          -2.51333520784523     -3.33617925920951     -1.70667386989816
| 50> **                         ****END OF INPUT****
================================================================================

                       ****************************
                       * Single Point Calculation *
                       ****************************

---------------------------------
CARTESIAN COORDINATES (ANGSTROEM)
---------------------------------
  C      2.779052   -0.075496   -1.997045
  C      2.515315   -1.036376   -0.864695
  C      3.535964   -1.889990   -0.399971
  C      3.323273   -2.775823    0.667903
  C      2.071109   -2.815872    1.300557
  C      1.042464   -1.969987    0.858662
  C      1.246224   -1.082417   -0.218826
  P     -0.109983   -0.014773   -0.882747
  C      0.291685    1.629197   -0.136359
  C      1.363312    1.802036    0.764789
  C      1.685184    3.071829    1.267614
  C      0.928270    4.186644    0.875117
  C     -0.143931    4.021570   -0.015548
  C     -0.481288    2.756601   -0.537685
  C     -1.657525    2.604534   -1.469493
  C     -1.559271   -0.554638    0.131530
  C     -2.030248    0.200322    1.226374
  C     -3.171058   -0.197733    1.939649
  C     -3.851601   -1.366653    1.565053
  C     -3.384975   -2.126921    0.481381
  C     -2.245194   -1.742423   -0.253336
  C     -1.753435   -2.592194   -1.398662
  H      2.847155    0.969695   -1.625636
  H      1.948765   -0.088321   -2.734521
  H      3.725308   -0.312965   -2.520656
  H      4.520025   -1.858191   -0.894902
  H      4.137983   -3.435071    1.004960
  H      1.893124   -3.502460    2.142503
  H      0.062463   -1.991993    1.358917
  H      1.948419    0.924297    1.078494
  H      2.525101    3.187026    1.969903
  H      1.171427    5.188212    1.262049
  H     -0.738870    4.897193   -0.321587
  H     -1.404182    1.953505   -2.332820
  H     -2.003404    3.584804   -1.850710
  H     -2.513410    2.117167   -0.954597
  H     -1.489619    1.111527    1.523909
  H     -3.524310    0.404735    2.790649
  H     -4.748641   -1.689079    2.115807
  H     -3.919442   -3.044992    0.188369
  H     -1.488336   -1.966355   -2.276896
  H     -0.829563   -3.143990   -1.120823
  H     -2.513335   -3.336179   -1.706674

----------------------------
CARTESIAN COORDINATES (A.U.)
----------------------------
  NO LB      ZA    FRAG     MASS         X           Y           Z
   0 C     6.0000    0    12.011    5.251646   -0.142667   -3.773868
   1 C     6.0000    0    12.011    4.753257   -1.958468   -1.634037
   2 C     6.0000    0    12.011    6.682003   -3.571563   -0.755835
   3 C     6.0000    0    12.011    6.280076   -5.245545    1.262154
   4 C     6.0000    0    12.011    3.913829   -5.321227    2.457696
   5 C     6.0000    0    12.011    1.969972   -3.722736    1.622637
   6 C     6.0000    0    12.011    2.355023   -2.045472   -0.413522
   7 P    15.0000    0    30.974   -0.207837   -0.027916   -1.668150
   8 C     6.0000    0    12.011    0.551204    3.078735   -0.257680
   9 C     6.0000    0    12.011    2.576287    3.405354    1.445241
  10 C     6.0000    0    12.011    3.184535    5.804915    2.395443
  11 C     6.0000    0    12.011    1.754177    7.911610    1.653731
  12 C     6.0000    0    12.011   -0.271990    7.599665   -0.029382
  13 C     6.0000    0    12.011   -0.909503    5.209222   -1.016077
  14 C     6.0000    0    12.011   -3.132268    4.921855   -2.776939
  15 C     6.0000    0    12.011   -2.946595   -1.048114    0.248556
  16 C     6.0000    0    12.011   -3.836612    0.378553    2.317511
  17 C     6.0000    0    12.011   -5.992432   -0.373661    3.665406
  18 C     6.0000    0    12.011   -7.278471   -2.582601    2.957521
  19 C     6.0000    0    12.011   -6.396676   -4.019299    0.909679
  20 C     6.0000    0    12.011   -4.242801   -3.292702   -0.478736
  21 C     6.0000    0    12.011   -3.313513   -4.898536   -2.643089
  22 H     1.0000    0     1.008    5.380344    1.832457   -3.072007
  23 H     1.0000    0     1.008    3.682632   -0.166903   -5.167496
  24 H     1.0000    0     1.008    7.039812   -0.591418   -4.763349
  25 H     1.0000    0     1.008    8.541609   -3.511473   -1.691119
  26 H     1.0000    0     1.008    7.819655   -6.491344    1.899100
  27 H     1.0000    0     1.008    3.577486   -6.618691    4.048744
  28 H     1.0000    0     1.008    0.118037   -3.764321    2.567981
  29 H     1.0000    0     1.008    3.681978    1.746668    2.038058
  30 H     1.0000    0     1.008    4.771750    6.022607    3.722578
  31 H     1.0000    0     1.008    2.213677    9.804300    2.384926
  32 H     1.0000    0     1.008   -1.396262    9.254354   -0.607712
  33 H     1.0000    0     1.008   -2.653519    3.691589   -4.408390
  34 H     1.0000    0     1.008   -3.785885    6.774298   -3.497335
  35 H     1.0000    0     1.008   -4.749657    4.000866   -1.803927
  36 H     1.0000    0     1.008   -2.814972    2.100482    2.879770
  37 H     1.0000    0     1.008   -6.659980    0.764838    5.273563
  38 H     1.0000    0     1.008   -8.973630   -3.191897    3.998296
  39 H     1.0000    0     1.008   -7.406672   -5.754202    0.355965
  40 H     1.0000    0     1.008   -2.812547   -3.715873   -4.302710
  41 H     1.0000    0     1.008   -1.567647   -5.941280   -2.118049
  42 H     1.0000    0     1.008   -4.749515   -6.304465   -3.225146

--------------------------------
INTERNAL COORDINATES (ANGSTROEM)
--------------------------------
 C      0   0   0     0.000000000000     0.00000000     0.00000000
 C      1   0   0     1.508331391491     0.00000000     0.00000000
 C      2   1   0     1.409378821707   120.44804428     0.00000000
 C      3   2   1     1.403670937993   121.55716926   178.83072307
 C      4   3   2     1.403484680568   119.74441755   359.62864923
 C      5   4   3     1.403175977581   119.66197134     0.04445627
 C      6   5   4     1.410772777801   120.92476677     0.31792489
 P      7   6   5     1.849311781536   122.10617395   176.86890542
 C      8   7   6     1.849612764967   102.06377533   101.93224396
 C      9   8   7     1.410788802452   122.11421156   356.51244227
 C     10   9   8     1.403142241747   120.93177210   176.97422437
 C     11  10   9     1.403489751544   119.66293145     0.29678016
 C     12  11  10     1.403619826694   119.73626572     0.04789404
 C     13  12  11     1.409461310870   121.56432638   359.66299829
 C     14  13  12     1.508284850936   120.39819560   178.65795331
 C      8   7   6     1.849499906771   102.07930232   356.64980101
 C     16   8   7     1.410838963965   122.07088266   101.41757959
 C     17  16   8     1.403088806542   120.93825801   176.88486686
 C     18  17  16     1.403508601082   119.65957509     0.31547373
 C     19  18  17     1.403599067101   119.73477901     0.02852702
 C     20  19  18     1.409521545199   121.56826934   359.65216722
 C     21  20  19     1.508545096957   120.37686877   178.95818973
 H      1   2   3     1.111308452040   111.03647028   253.15682133
 H      1   2   3     1.110590625080   111.12698719   135.21213386
 H      1   2   3     1.107231050506   111.58151043    13.57396940
 H      3   2   1     1.101972611934   118.75876381   358.56264563
 H      4   3   2     1.100894192420   119.91399934   179.62613181
 H      5   4   3     1.100888322999   120.44994910   180.31412748
 H      6   5   4     1.100518876574   119.84113379   180.59163676
 H     10   9   8     1.100539082957   119.22276040   356.65375727
 H     11  10   9     1.100882783192   119.88884754   180.00670198
 H     12  11  10     1.100900230116   120.34717463   180.05002823
 H     13  12  11     1.101966196107   119.68223119   179.88052416
 H     15  14  13     1.110564762255   111.18990819   135.80481704
 H     15  14  13     1.107198814955   111.53478928    14.13937842
 H     15  14  13     1.111388134652   111.01186267   253.78571372
 H     17  16   8     1.100500480848   119.26719900   356.64672592
 H     18  17  16     1.100888115216   119.90810042   180.06338149
 H     19  18  17     1.100894851423   120.36442689   180.07520330
 H     20  19  18     1.101982612834   119.69005323   179.95441551
 H     22  21  20     1.110515961736   111.14841157   135.77038952
 H     22  21  20     1.111401812738   111.15259913   253.83754704
 H     22  21  20     1.107173671311   111.46924316    14.18678457

---------------------------
INTERNAL COORDINATES (A.U.)
---------------------------
 C      0   0   0     0.000000000000     0.00000000     0.00000000
 C      1   0   0     2.850333249114     0.00000000     0.00000000
 C      2   1   0     2.663339991974   120.44804428     0.00000000
 C      3   2   1     2.652553654951   121.55716926   178.83072307
 C      4   3   2     2.652201679428   119.74441755   359.62864923
 C      5   4   3     2.651618315325   119.66197134     0.04445627
 C      6   5   4     2.665974187236   120.92476677     0.31792489
 P      7   6   5     3.494692803337   122.10617395   176.86890542
 C      8   7   6     3.495261579592   102.06377533   101.93224396
 C      9   8   7     2.666004469437   122.11421156   356.51244227
 C     10   9   8     2.651554563838   120.93177210   176.97422437
 C     11  10   9     2.652211262183   119.66293145     0.29678016
 C     12  11  10     2.652457068593   119.73626572     0.04789404
 C     13  12  11     2.663495873902   121.56432638   359.66299829
 C     14  13  12     2.850245300212   120.39819560   178.65795331
 C      8   7   6     3.495048308510   102.07930232   356.64980101
 C     16   8   7     2.666099260960   122.07088266   101.41757959
 C     17  16   8     2.651453585934   120.93825801   176.88486686
 C     18  17  16     2.652246882648   119.65957509     0.31547373
 C     19  18  17     2.652417838647   119.73477901     0.02852702
 C     20  19  18     2.663609700288   121.56826934   359.65216722
 C     21  20  19     2.850737093918   120.37686877   178.95818973
 H      1   2   3     2.100068624667   111.03647028   253.15682133
 H      1   2   3     2.098712128301   111.12698719   135.21213386
 H      1   2   3     2.092363452430   111.58151043    13.57396940
 H      3   2   1     2.082426443638   118.75876381   358.56264563
 H      4   3   2     2.080388526098   119.91399934   179.62613181
 H      5   4   3     2.080377434500   120.44994910   180.31412748
 H      6   5   4     2.079679281935   119.84113379   180.59163676
 H     10   9   8     2.079717466465   119.22276040   356.65375727
 H     11  10   9     2.080366965781   119.88884754   180.00670198
 H     12  11  10     2.080399935691   120.34717463   180.05002823
 H     13  12  11     2.082414319482   119.68223119   179.88052416
 H     15  14  13     2.098663254645   111.18990819   135.80481704
 H     15  14  13     2.092302536067   111.53478928    14.13937842
 H     15  14  13     2.100219202982   111.01186267   253.78571372
 H     17  16   8     2.079644519050   119.26719900   356.64672592
 H     18  17  16     2.080377041846   119.90810042   180.06338149
 H     19  18  17     2.080389771434   120.36442689   180.07520330
 H     20  19  18     2.082445342598   119.69005323   179.95441551
 H     22  21  20     2.098571035029   111.14841157   135.77038952
 H     22  21  20     2.100245050818   111.15259913   253.83754704
 H     22  21  20     2.092255021466   111.46924316    14.18678457

---------------------
BASIS SET INFORMATION
---------------------
There are 3 groups of distinct atoms

 Group   1 Type C   : 11s6p2d1f contracted to 5s3p2d1f pattern {62111/411/11/1}
 Group   2 Type P   : 14s9p3d1f contracted to 5s5p2d1f pattern {73211/51111/21/1}
 Group   3 Type H   : 5s1p contracted to 3s1p pattern {311/1}

Atom   0C    basis set group =>   1
Atom   1C    basis set group =>   1
Atom   2C    basis set group =>   1
Atom   3C    basis set group =>   1
Atom   4C    basis set group =>   1
Atom   5C    basis set group =>   1
Atom   6C    basis set group =>   1
Atom   7P    basis set group =>   2
Atom   8C    basis set group =>   1
Atom   9C    basis set group =>   1
Atom  10C    basis set group =>   1
Atom  11C    basis set group =>   1
Atom  12C    basis set group =>   1
Atom  13C    basis set group =>   1
Atom  14C    basis set group =>   1
Atom  15C    basis set group =>   1
Atom  16C    basis set group =>   1
Atom  17C    basis set group =>   1
Atom  18C    basis set group =>   1
Atom  19C    basis set group =>   1
Atom  20C    basis set group =>   1
Atom  21C    basis set group =>   1
Atom  22H    basis set group =>   3
Atom  23H    basis set group =>   3
Atom  24H    basis set group =>   3
Atom  25H    basis set group =>   3
Atom  26H    basis set group =>   3
Atom  27H    basis set group =>   3
Atom  28H    basis set group =>   3
Atom  29H    basis set group =>   3
Atom  30H    basis set group =>   3
Atom  31H    basis set group =>   3
Atom  32H    basis set group =>   3
Atom  33H    basis set group =>   3
Atom  34H    basis set group =>   3
Atom  35H    basis set group =>   3
Atom  36H    basis set group =>   3
Atom  37H    basis set group =>   3
Atom  38H    basis set group =>   3
Atom  39H    basis set group =>   3
Atom  40H    basis set group =>   3
Atom  41H    basis set group =>   3
Atom  42H    basis set group =>   3
---------------------------------
AUXILIARY/J BASIS SET INFORMATION
---------------------------------
There are 3 groups of distinct atoms

 Group   1 Type C   : 12s5p4d2f1g contracted to 6s4p3d1f1g pattern {711111/2111/211/2/1}
 Group   2 Type P   : 14s5p5d2f1g contracted to 8s4p3d1f1g pattern {71111111/2111/311/2/1}
 Group   3 Type H   : 5s2p1d contracted to 3s1p1d pattern {311/2/1}

Atom   0C    basis set group =>   1
Atom   1C    basis set group =>   1
Atom   2C    basis set group =>   1
Atom   3C    basis set group =>   1
Atom   4C    basis set group =>   1
Atom   5C    basis set group =>   1
Atom   6C    basis set group =>   1
Atom   7P    basis set group =>   2
Atom   8C    basis set group =>   1
Atom   9C    basis set group =>   1
Atom  10C    basis set group =>   1
Atom  11C    basis set group =>   1
Atom  12C    basis set group =>   1
Atom  13C    basis set group =>   1
Atom  14C    basis set group =>   1
Atom  15C    basis set group =>   1
Atom  16C    basis set group =>   1
Atom  17C    basis set group =>   1
Atom  18C    basis set group =>   1
Atom  19C    basis set group =>   1
Atom  20C    basis set group =>   1
Atom  21C    basis set group =>   1
Atom  22H    basis set group =>   3
Atom  23H    basis set group =>   3
Atom  24H    basis set group =>   3
Atom  25H    basis set group =>   3
Atom  26H    basis set group =>   3
Atom  27H    basis set group =>   3
Atom  28H    basis set group =>   3
Atom  29H    basis set group =>   3
Atom  30H    basis set group =>   3
Atom  31H    basis set group =>   3
Atom  32H    basis set group =>   3
Atom  33H    basis set group =>   3
Atom  34H    basis set group =>   3
Atom  35H    basis set group =>   3
Atom  36H    basis set group =>   3
Atom  37H    basis set group =>   3
Atom  38H    basis set group =>   3
Atom  39H    basis set group =>   3
Atom  40H    basis set group =>   3
Atom  41H    basis set group =>   3
Atom  42H    basis set group =>   3


           ************************************************************
           *        Program running with 6 parallel MPI-processes     *
           *              working on a common directory               *
           ************************************************************
------------------------------------------------------------------------------
                             ORCA STARTUP CALCULATIONS
                           -- RI-GTO INTEGRALS CHOSEN --
------------------------------------------------------------------------------
------------------------------------------------------------------------------
                   ___                                                        
                  /   \      - P O W E R E D   B Y -                         
                 /     \                                                     
                 |  |  |   _    _      __       _____    __    __             
                 |  |  |  | |  | |    /  \     |  _  \  |  |  /  |          
                  \  \/   | |  | |   /    \    | | | |  |  | /  /          
                 / \  \   | |__| |  /  /\  \   | |_| |  |  |/  /          
                |  |  |   |  __  | /  /__\  \  |    /   |      \           
                |  |  |   | |  | | |   __   |  |    \   |  |\   \          
                \     /   | |  | | |  |  |  |  | |\  \  |  | \   \       
                 \___/    |_|  |_| |__|  |__|  |_| \__\ |__|  \__/        
                                                                              
                      - O R C A' S   B I G   F R I E N D -                    
                                      &                                       
                       - I N T E G R A L  F E E D E R -                       
                                                                              
 v1 FN, 2020, v2 2021, v3 2022-2024                                           
------------------------------------------------------------------------------


----------------------
SHARK INTEGRAL PACKAGE
----------------------

Number of atoms                             ...     43
Number of basis functions                   ...    814
Number of shells                            ...    328
Maximum angular momentum                    ...      3
Integral batch strategy                     ... SHARK/LIBINT Hybrid
RI-J (if used) integral strategy            ... SPLIT-RIJ (Revised 2003 algorithm where possible)
Printlevel                                  ...      1
Contraction scheme used                     ... SEGMENTED contraction
Prescreening option                         ... SCHWARTZ
   Thresh                                   ... 1.000e-10
   Tcut                                     ... 1.000e-11
   Tpresel                                  ... 1.000e-11 
Coulomb Range Separation                    ... NOT USED
Exchange Range Separation                   ... NOT USED
Multipole approximations                    ... NOT USED
Finite Nucleus Model                        ... NOT USED
CABS basis                                  ... NOT available
Auxiliary Coulomb fitting basis             ... AVAILABLE
   # of basis functions in Aux-J            ...   1311
   # of shells in Aux-J                     ...    437
   Maximum angular momentum in Aux-J        ...      4
Auxiliary J/K fitting basis                 ... NOT available
Auxiliary Correlation fitting basis         ... NOT available
Auxiliary 'external' fitting basis          ... NOT available

Checking pre-screening integrals            ... done (  0.0 sec) Dimension = 328
Check shell pair data                       ... done (  0.0 sec)
Shell pair information
Shell pair cut-off parameter TPreSel        ...   1.0e-11
Total number of shell pairs                 ...     53956
Shell pairs after pre-screening             ...     39350
Total number of primitive shell pairs       ...    165012
Primitive shell pairs kept                  ...     79232
          la=0 lb=0:  10521 shell pairs
          la=1 lb=0:  11565 shell pairs
          la=1 lb=1:   3184 shell pairs
          la=2 lb=0:   5475 shell pairs
          la=2 lb=1:   3030 shell pairs
          la=2 lb=2:    765 shell pairs
          la=3 lb=0:   2538 shell pairs
          la=3 lb=1:   1432 shell pairs
          la=3 lb=2:    674 shell pairs
          la=3 lb=3:    166 shell pairs

Calculating one electron integrals          ... done (  0.1 sec)
Calculating RI/J V-Matrix + Cholesky decomp.... done (  0.1 sec)
Calculating Nuclear repulsion               ... done (  0.0 sec) ENN=   1869.788233539416 Eh

Diagonalization of the overlap matrix:
Smallest eigenvalue                        ... 5.714e-06
Time for diagonalization                   ...    0.138 sec
Threshold for overlap eigenvalues          ... 1.000e-07
Number of eigenvalues below threshold      ... 0
Time for construction of square roots      ...    0.065 sec
Total time needed                          ...    0.209 sec

-------------------
DFT GRID GENERATION
-------------------

General Integration Accuracy     IntAcc      ... 4.388
Radial Grid Type                 RadialGrid  ... OptM3 with GC (2021)
Angular Grid (max. ang.)         AngularGrid ... 4 (Lebedev-302)
Angular grid pruning method      GridPruning ... 4 (adaptive)
Weight generation scheme         WeightScheme... mBecke (2022)
Basis function cutoff            BFCut       ... 1.0000e-10
Integration weight cutoff        WCut        ... 1.0000e-14
Partially contracted basis set               ... off
Rotationally invariant grid construction     ... off
Angular grids for H and He will be reduced by one unit

Total number of grid points                  ...   198970
Total number of batches                      ...     3131
Average number of points per batch           ...       63
Average number of grid points per atom       ...     4627

--------------------
COSX GRID GENERATION
--------------------

GRIDX 1
-------
General Integration Accuracy     IntAcc      ... 3.816
Radial Grid Type                 RadialGrid  ... OptM3 with GC (2021)
Angular Grid (max. ang.)         AngularGrid ... 1 (Lebedev-50)
Angular grid pruning method      GridPruning ... 4 (adaptive)
Weight generation scheme         WeightScheme... mBecke (2022)
Basis function cutoff            BFCut       ... 1.0000e-10
Integration weight cutoff        WCut        ... 1.0000e-14
Partially contracted basis set               ... on
Rotationally invariant grid construction     ... off
Angular grids for H and He will be reduced by one unit

Total number of grid points                  ...    26277
Total number of batches                      ...      224
Average number of points per batch           ...      117
Average number of grid points per atom       ...      611
UseSFitting                                  ... on

GRIDX 2
-------
General Integration Accuracy     IntAcc      ... 4.020
Radial Grid Type                 RadialGrid  ... OptM3 with GC (2021)
Angular Grid (max. ang.)         AngularGrid ... 2 (Lebedev-110)
Angular grid pruning method      GridPruning ... 4 (adaptive)
Weight generation scheme         WeightScheme... mBecke (2022)
Basis function cutoff            BFCut       ... 1.0000e-10
Integration weight cutoff        WCut        ... 1.0000e-14
Partially contracted basis set               ... on
Rotationally invariant grid construction     ... off
Angular grids for H and He will be reduced by one unit

Total number of grid points                  ...    53985
Total number of batches                      ...      443
Average number of points per batch           ...      121
Average number of grid points per atom       ...     1255
UseSFitting                                  ... on

GRIDX 3
-------
General Integration Accuracy     IntAcc      ... 4.338
Radial Grid Type                 RadialGrid  ... OptM3 with GC (2021)
Angular Grid (max. ang.)         AngularGrid ... 3 (Lebedev-194)
Angular grid pruning method      GridPruning ... 4 (adaptive)
Weight generation scheme         WeightScheme... mBecke (2022)
Basis function cutoff            BFCut       ... 1.0000e-10
Integration weight cutoff        WCut        ... 1.0000e-14
Partially contracted basis set               ... on
Rotationally invariant grid construction     ... off
Angular grids for H and He will be reduced by one unit

Total number of grid points                  ...   118003
Total number of batches                      ...      944
Average number of points per batch           ...      125
Average number of grid points per atom       ...     2744
UseSFitting                                  ... on
Initializing property integral containers    ... done (  0.0 sec)

SHARK setup successfully completed in   4.8 seconds

Maximum memory used throughout the entire STARTUP-calculation: 84.2 MB


           ************************************************************
           *        Program running with 6 parallel MPI-processes     *
           *              working on a common directory               *
           ************************************************************
-------------------------------------------------------------------------------
                                 ORCA GUESS
                   Start orbitals & Density for SCF / CASSCF
-------------------------------------------------------------------------------

------------
SCF SETTINGS
------------
Hamiltonian:
 Density Functional     Method          .... DFT(GTOs)
 Exchange Functional    Exchange        .... M062X
 Correlation Functional Correlation     .... M062X
 Gradients option       PostSCFGGA      .... off
 Hybrid DFT is turned on
   Fraction HF Exchange ScalHFX         ....  0.540000
   Scaling of DF-GGA-X  ScalDFX         ....  0.460000
   Scaling of DF-GGA-C  ScalDFC         ....  1.000000
   Scaling of DF-LDA-C  ScalLDAC        ....  1.000000
   Perturbative correction              ....  0.000000
 RI-approximation to the Coulomb term is turned on
   Number of AuxJ basis functions       .... 1311
   RIJ-COSX (HFX calculated with COS-X)).... on


General Settings:
 Integral files         IntName         .... data/single_point_P_M06-2x/80271/80271
 Hartree-Fock type      HFTyp           .... RHF
 Total Charge           Charge          ....    0
 Multiplicity           Mult            ....    1
 Number of Electrons    NEL             ....  162
 Basis Dimension        Dim             ....  814
 Nuclear Repulsion      ENuc            ....   1869.7882335394 Eh

Convergence Acceleration:
 AO-DIIS                CNVDIIS         .... on
   Start iteration      DIISMaxIt       ....    12
   Startup error        DIISStart       ....  0.200000
   # of expansion vecs  DIISMaxEq       ....     5
   Bias factor          DIISBfac        ....   1.050
   Max. coefficient     DIISMaxC        ....  10.000
 MO-DIIS                CNVKDIIS        .... off
 Trust-Rad. Augm. Hess. CNVTRAH         .... auto
   Auto Start mean grad. ratio tolernc. ....  1.125000
   Auto Start start iteration           ....    50
   Auto Start num. interpolation iter.  ....    10
   Max. Number of Micro iterations      ....    24
   Max. Number of Macro iterations      .... Maxiter - #DIIS iter
   Number of Davidson start vectors     ....     2
   Converg. threshold    (grad. norm)   ....   5.000e-05
   Grad. Scal. Fac. for Micro threshold ....   0.100
   Minimum threshold for Micro iter.    ....   1.000e-02
   NR start threshold (gradient norm)   ....   1.000e-04
   Initial trust radius                 ....   0.400
   Minimum AH scaling param. (alpha)    ....   1.000
   Maximum AH scaling param. (alpha)    .... 1000.000
   Quad. conv. algorithm                .... NR
   White noise on init. David. guess    .... on
   Maximum white noise                  ....   0.010
   Pseudo random numbers                .... off
   Inactive MOs                         .... canonical
   Orbital update algorithm             .... Taylor
   Preconditioner                       .... Diag
   Full preconditioner red. dimension   ....   250
 SOSCF                  CNVSOSCF        .... on
   Start iteration      SOSCFMaxIt      ....   150
   Startup grad/error   SOSCFStart      ....  0.003300
   Hessian update       SOSCFHessUp     .... L-BFGS
 Level Shifting         CNVShift        .... on
   Level shift para.    LevelShift      ....    0.2500
   Turn off err/grad.   ShiftErr        ....    0.0010
 Zerner damping         CNVZerner       .... off
 Static damping         CNVDamp         .... on
   Fraction old density DampFac         ....    0.7000
   Max. Damping (<1)    DampMax         ....    0.9800
   Min. Damping (>=0)   DampMin         ....    0.0000
   Turn off err/grad.   DampErr         ....    0.1000

SCF Procedure:
 Maximum # iterations   MaxIter         ....   125
 SCF integral mode      SCFMode         .... Direct
   Integral package                     .... SHARK and LIBINT hybrid scheme
 Reset frequency        DirectResetFreq ....    20
 Integral Threshold     Thresh          ....  1.000e-10 Eh
 Primitive CutOff       TCut            ....  1.000e-11 Eh

Convergence Tolerance:
 Convergence Check Mode ConvCheckMode   .... Total+1el-Energy
 Convergence forced     ConvForced      .... 0
 Energy Change          TolE            ....  1.000e-06 Eh
 1-El. energy change                    ....  1.000e-03 Eh
 Orbital Gradient       TolG            ....  5.000e-05
 Orbital Rotation angle TolX            ....  5.000e-05
 DIIS Error             TolErr          ....  1.000e-05

------------------------------
INITIAL GUESS: MODEL POTENTIAL
------------------------------
Loading Hartree-Fock densities                     ... done
Calculating cut-offs                               ... done
Initializing the effective Hamiltonian             ... done
Setting up the integral package (SHARK)            ... done
Starting the Coulomb interaction                   ... done (   0.7 sec)
Making the grid                                    ... done (   0.4 sec)
Mapping shells                                     ... done
Starting the XC term evaluation                    ... done (   0.6 sec)
  promolecular density results
     # of electrons  =    161.984130128
     EX              =   -136.000333603
     EC              =     -5.445137513
     EX+EC           =   -141.445471116
Transforming the Hamiltonian                       ... done (   0.1 sec)
Diagonalizing the Hamiltonian                      ... done (   0.1 sec)
Back transforming the eigenvectors                 ... done (   0.1 sec)
Now organizing SCF variables                       ... done
                      ------------------
                      INITIAL GUESS DONE (   2.0 sec)
                      ------------------
             **** ENERGY FILE WAS UPDATED (data/single_point_P_M06-2x/80271/80271.en.tmp) ****
Finished Guess after   2.3 sec
Maximum memory used throughout the entire GUESS-calculation: 66.8 MB


           ************************************************************
           *        Program running with 6 parallel MPI-processes     *
           *              working on a common directory               *
           ************************************************************

-------------------------------------------------------------------------------------------
                                      ORCA LEAN-SCF
                              memory conserving SCF solver
-------------------------------------------------------------------------------------------

----------------------------------------D-I-I-S--------------------------------------------
Iteration    Energy (Eh)           Delta-E    RMSDP     MaxDP     DIISErr   Damp  Time(sec)
-------------------------------------------------------------------------------------------
               ***  Starting incremental Fock matrix formation  ***
    1    -1153.6307992694319182     0.00e+00  1.25e-03  4.52e-02  1.69e-01  0.700  22.3
    2    -1153.8564062667669532    -2.26e-01  1.01e-03  3.45e-02  9.77e-02  0.700  11.6
                               ***Turning on AO-DIIS***
    3    -1153.9686195058807243    -1.12e-01  7.31e-04  2.84e-02  4.65e-02  0.700  11.3
    4    -1154.0340650840726084    -6.54e-02  1.73e-03  7.07e-02  2.77e-02  0.000  11.1
                              *** Initializing SOSCF ***
---------------------------------------S-O-S-C-F--------------------------------------
Iteration    Energy (Eh)           Delta-E    RMSDP     MaxDP     MaxGrad    Time(sec)
--------------------------------------------------------------------------------------
    5    -1154.1723432957046498    -1.38e-01  1.36e-04  1.54e-02  3.24e-03    11.8
               *** Restarting incremental Fock matrix formation ***
    6    -1154.1725129565611496    -1.70e-04  3.22e-04  1.85e-02  6.31e-04    20.3
    7    -1154.1725344451674573    -2.15e-05  1.00e-04  5.79e-03  7.01e-04    15.1
    8    -1154.1725473462529408    -1.29e-05  8.45e-05  5.00e-03  1.62e-04    13.8
    9    -1154.1725479264605383    -5.80e-07  1.76e-05  1.01e-03  1.09e-04    13.3
                 **** Energy Check signals convergence ****

               *****************************************************
               *                     SUCCESS                       *
               *           SCF CONVERGED AFTER   9 CYCLES          *
               *****************************************************

Recomputing exchange energy using gridx3       ... done (   29.950 sec)
Old exchange energy                            :    -74.958586376 Eh
New exchange energy                            :    -74.958517105 Eh
Exchange energy change after final integration :      0.000069271 Eh
Total energy after final integration           :  -1154.172478655 Eh
             **** ENERGY FILE WAS UPDATED (data/single_point_P_M06-2x/80271/80271.en.tmp) ****

----------------
TOTAL SCF ENERGY
----------------

Total Energy       :      -1154.17247865531749 Eh          -31406.62983 eV

Components:
Nuclear Repulsion  :       1869.78823353941607 Eh           50879.52450 eV
Electronic Energy  :      -3023.96078146587661 Eh          -82286.15621 eV
One Electron Energy:      -5286.84073714554233 Eh         -143862.25027 eV
Two Electron Energy:       2262.87995567966573 Eh           61576.09406 eV

Virial components:
Potential Energy   :      -2302.33699633443575 Eh          -62649.77472 eV
Kinetic Energy     :       1148.16451767911826 Eh           31243.14490 eV
Virial Ratio       :          2.00523266560122

DFT components:
N(Alpha)           :       80.999883595023 electrons
N(Beta)            :       80.999883595023 electrons
N(Total)           :      161.999767190046 electrons
E(XC)              :      -69.651015503007 Eh       

---------------
SCF CONVERGENCE
---------------

  Last Energy change         ...    5.8021e-07  Tolerance :   1.0000e-06
  Last MAX-Density change    ...    1.0099e-03  Tolerance :   1.0000e-05
  Last RMS-Density change    ...    1.7577e-05  Tolerance :   1.0000e-06
  Last DIIS Error            ...    3.2367e-03  Tolerance :   1.0000e-05
  Last Orbital Gradient      ...    1.0913e-04  Tolerance :   5.0000e-05
  Last Orbital Rotation      ...    1.5086e-04  Tolerance :   5.0000e-05


----------------
ORBITAL ENERGIES
----------------

  NO   OCC          E(Eh)            E(eV) 
   0   2.0000     -78.027089     -2123.2250 
   1   2.0000     -10.559432      -287.3367 
   2   2.0000     -10.559320      -287.3337 
   3   2.0000     -10.559296      -287.3330 
   4   2.0000     -10.552026      -287.1352 
   5   2.0000     -10.551956      -287.1333 
   6   2.0000     -10.551942      -287.1329 
   7   2.0000     -10.548334      -287.0348 
   8   2.0000     -10.548239      -287.0322 
   9   2.0000     -10.548225      -287.0318 
  10   2.0000     -10.547390      -287.0091 
  11   2.0000     -10.547343      -287.0078 
  12   2.0000     -10.547314      -287.0070 
  13   2.0000     -10.545635      -286.9613 
  14   2.0000     -10.545562      -286.9593 
  15   2.0000     -10.545543      -286.9588 
  16   2.0000     -10.545268      -286.9513 
  17   2.0000     -10.545228      -286.9503 
  18   2.0000     -10.545200      -286.9495 
  19   2.0000     -10.534616      -286.6615 
  20   2.0000     -10.534551      -286.6597 
  21   2.0000     -10.534545      -286.6595 
  22   2.0000      -6.843779      -186.2287 
  23   2.0000      -4.958578      -134.9298 
  24   2.0000      -4.958044      -134.9152 
  25   2.0000      -4.958040      -134.9151 
  26   2.0000      -0.963811       -26.2266 
  27   2.0000      -0.954675       -25.9780 
  28   2.0000      -0.954595       -25.9759 
  29   2.0000      -0.872045       -23.7296 
  30   2.0000      -0.867868       -23.6159 
  31   2.0000      -0.867847       -23.6153 
  32   2.0000      -0.855812       -23.2878 
  33   2.0000      -0.832665       -22.6580 
  34   2.0000      -0.832640       -22.6573 
  35   2.0000      -0.775525       -21.1031 
  36   2.0000      -0.769964       -20.9518 
  37   2.0000      -0.769917       -20.9505 
  38   2.0000      -0.726919       -19.7805 
  39   2.0000      -0.684408       -18.6237 
  40   2.0000      -0.684389       -18.6232 
  41   2.0000      -0.667125       -18.1534 
  42   2.0000      -0.656914       -17.8755 
  43   2.0000      -0.656895       -17.8750 
  44   2.0000      -0.620872       -16.8948 
  45   2.0000      -0.574058       -15.6209 
  46   2.0000      -0.573978       -15.6187 
  47   2.0000      -0.555873       -15.1261 
  48   2.0000      -0.531289       -14.4571 
  49   2.0000      -0.531259       -14.4563 
  50   2.0000      -0.530371       -14.4321 
  51   2.0000      -0.513819       -13.9817 
  52   2.0000      -0.513755       -13.9800 
  53   2.0000      -0.500536       -13.6203 
  54   2.0000      -0.490431       -13.3453 
  55   2.0000      -0.490377       -13.3438 
  56   2.0000      -0.481759       -13.1093 
  57   2.0000      -0.471987       -12.8434 
  58   2.0000      -0.471904       -12.8411 
  59   2.0000      -0.470605       -12.8058 
  60   2.0000      -0.459884       -12.5141 
  61   2.0000      -0.459861       -12.5135 
  62   2.0000      -0.448436       -12.2026 
  63   2.0000      -0.441079       -12.0024 
  64   2.0000      -0.441062       -12.0019 
  65   2.0000      -0.432211       -11.7611 
  66   2.0000      -0.419131       -11.4051 
  67   2.0000      -0.418974       -11.4008 
  68   2.0000      -0.417602       -11.3635 
  69   2.0000      -0.399340       -10.8666 
  70   2.0000      -0.399312       -10.8658 
  71   2.0000      -0.398913       -10.8550 
  72   2.0000      -0.371720       -10.1150 
  73   2.0000      -0.371701       -10.1145 
  74   2.0000      -0.330676        -8.9982 
  75   2.0000      -0.306625        -8.3437 
  76   2.0000      -0.306497        -8.3402 
  77   2.0000      -0.299957        -8.1622 
  78   2.0000      -0.296590        -8.0706 
  79   2.0000      -0.296519        -8.0687 
  80   2.0000      -0.260268        -7.0823 
  81   0.0000      -0.000948        -0.0258 
  82   0.0000      -0.000841        -0.0229 
  83   0.0000       0.008337         0.2269 
  84   0.0000       0.020230         0.5505 
  85   0.0000       0.024790         0.6746 
  86   0.0000       0.024856         0.6764 
  87   0.0000       0.071247         1.9387 
  88   0.0000       0.079879         2.1736 
  89   0.0000       0.080000         2.1769 
  90   0.0000       0.085550         2.3279 
  91   0.0000       0.089822         2.4442 
*Only the first 10 virtual orbitals were printed.

                    ********************************
                    * MULLIKEN POPULATION ANALYSIS *
                    ********************************

-----------------------
MULLIKEN ATOMIC CHARGES
-----------------------
   0 C :   -0.503441
   1 C :    0.055746
   2 C :   -0.143715
   3 C :   -0.141143
   4 C :   -0.168450
   5 C :   -0.151549
   6 C :   -0.074497
   7 P :    0.037356
   8 C :   -0.079011
   9 C :   -0.151708
  10 C :   -0.169951
  11 C :   -0.139408
  12 C :   -0.146603
  13 C :    0.061645
  14 C :   -0.502911
  15 C :   -0.078683
  16 C :   -0.152178
  17 C :   -0.168006
  18 C :   -0.140381
  19 C :   -0.145621
  20 C :    0.059971
  21 C :   -0.503470
  22 H :    0.182550
  23 H :    0.175362
  24 H :    0.140390
  25 H :    0.135739
  26 H :    0.143142
  27 H :    0.144759
  28 H :    0.194180
  29 H :    0.193017
  30 H :    0.144725
  31 H :    0.143608
  32 H :    0.134770
  33 H :    0.174650
  34 H :    0.140506
  35 H :    0.182653
  36 H :    0.193973
  37 H :    0.144885
  38 H :    0.143495
  39 H :    0.135160
  40 H :    0.175154
  41 H :    0.182007
  42 H :    0.141281
Sum of atomic charges:   -0.0000000

--------------------------------
MULLIKEN REDUCED ORBITAL CHARGES
--------------------------------
  0 C s       :     3.394397  s :     3.394397
      pz      :     0.956921  p :     3.055010
      px      :     1.083047
      py      :     1.015041
      dz2     :     0.011471  d :     0.050881
      dxz     :     0.014991
      dyz     :     0.007189
      dx2y2   :     0.013212
      dxy     :     0.004018
      f0      :     0.000471  f :     0.003154
      f+1     :     0.000245
      f-1     :     0.000477
      f+2     :     0.000966
      f-2     :     0.000430
      f+3     :     0.000227
      f-3     :     0.000338

  1 C s       :     3.154939  s :     3.154939
      pz      :     0.877500  p :     2.686146
      px      :     0.927499
      py      :     0.881147
      dz2     :     0.016215  d :     0.094783
      dxz     :     0.023666
      dyz     :     0.011766
      dx2y2   :     0.026256
      dxy     :     0.016880
      f0      :     0.000780  f :     0.008385
      f+1     :     0.001489
      f-1     :     0.001038
      f+2     :     0.001152
      f-2     :     0.001506
      f+3     :     0.001151
      f-3     :     0.001268

  2 C s       :     3.195540  s :     3.195540
      pz      :     0.949635  p :     2.881936
      px      :     0.988598
      py      :     0.943703
      dz2     :     0.015321  d :     0.059787
      dxz     :     0.013936
      dyz     :     0.005405
      dx2y2   :     0.015310
      dxy     :     0.009816
      f0      :     0.000935  f :     0.006451
      f+1     :     0.000575
      f-1     :     0.001057
      f+2     :     0.001097
      f-2     :     0.001196
      f+3     :     0.000985
      f-3     :     0.000605

  3 C s       :     3.228548  s :     3.228548
      pz      :     0.929672  p :     2.843849
      px      :     0.952212
      py      :     0.961966
      dz2     :     0.018488  d :     0.062405
      dxz     :     0.010479
      dyz     :     0.008661
      dx2y2   :     0.009401
      dxy     :     0.015376
      f0      :     0.000836  f :     0.006341
      f+1     :     0.001018
      f-1     :     0.000780
      f+2     :     0.000977
      f-2     :     0.001236
      f+3     :     0.000519
      f-3     :     0.000975

  4 C s       :     3.234418  s :     3.234418
      pz      :     0.979701  p :     2.867341
      px      :     0.891471
      py      :     0.996169
      dz2     :     0.007645  d :     0.060392
      dxz     :     0.015492
      dyz     :     0.009752
      dx2y2   :     0.013372
      dxy     :     0.014131
      f0      :     0.000339  f :     0.006300
      f+1     :     0.001155
      f-1     :     0.000778
      f+2     :     0.000916
      f-2     :     0.001079
      f+3     :     0.000996
      f-3     :     0.001037

  5 C s       :     3.202490  s :     3.202490
      pz      :     0.926473  p :     2.876123
      px      :     1.025520
      py      :     0.924130
      dz2     :     0.015270  d :     0.066339
      dxz     :     0.014889
      dyz     :     0.008949
      dx2y2   :     0.018392
      dxy     :     0.008839
      f0      :     0.000937  f :     0.006597
      f+1     :     0.000576
      f-1     :     0.001006
      f+2     :     0.001120
      f-2     :     0.001267
      f+3     :     0.001073
      f-3     :     0.000617

  6 C s       :     3.240589  s :     3.240589
      pz      :     0.894103  p :     2.747915
      px      :     0.916842
      py      :     0.936971
      dz2     :     0.021532  d :     0.078988
      dxz     :     0.017148
      dyz     :     0.008186
      dx2y2   :     0.013395
      dxy     :     0.018726
      f0      :     0.000859  f :     0.007005
      f+1     :     0.001115
      f-1     :     0.000941
      f+2     :     0.001178
      f-2     :     0.001317
      f+3     :     0.000699
      f-3     :     0.000897

  7 P s       :     5.809529  s :     5.809529
      pz      :     3.346959  p :     8.866043
      px      :     2.764303
      py      :     2.754781
      dz2     :     0.027891  d :     0.261105
      dxz     :     0.054662
      dyz     :     0.050385
      dx2y2   :     0.062485
      dxy     :     0.065682
      f0      :     0.002420  f :     0.025968
      f+1     :     0.002975
      f-1     :     0.003012
      f+2     :     0.005151
      f-2     :     0.004989
      f+3     :     0.004195
      f-3     :     0.003226

  8 C s       :     3.240666  s :     3.240666
      pz      :     0.927504  p :     2.752597
      px      :     0.926188
      py      :     0.898905
      dz2     :     0.018754  d :     0.078746
      dxz     :     0.007053
      dyz     :     0.017641
      dx2y2   :     0.017871
      dxy     :     0.017427
      f0      :     0.000709  f :     0.007002
      f+1     :     0.001343
      f-1     :     0.000733
      f+2     :     0.000950
      f-2     :     0.001369
      f+3     :     0.000751
      f-3     :     0.001147

  9 C s       :     3.204168  s :     3.204168
      pz      :     0.927270  p :     2.874302
      px      :     0.918935
      py      :     1.028097
      dz2     :     0.016279  d :     0.066635
      dxz     :     0.007955
      dyz     :     0.012543
      dx2y2   :     0.011515
      dxy     :     0.018343
      f0      :     0.000654  f :     0.006603
      f+1     :     0.001097
      f-1     :     0.000812
      f+2     :     0.000989
      f-2     :     0.001236
      f+3     :     0.001042
      f-3     :     0.000774

 10 C s       :     3.233629  s :     3.233629
      pz      :     0.973567  p :     2.869462
      px      :     1.005534
      py      :     0.890361
      dz2     :     0.005858  d :     0.060563
      dxz     :     0.008358
      dyz     :     0.018090
      dx2y2   :     0.012249
      dxy     :     0.016007
      f0      :     0.000559  f :     0.006297
      f+1     :     0.000654
      f-1     :     0.001008
      f+2     :     0.001024
      f-2     :     0.000935
      f+3     :     0.000902
      f-3     :     0.001215

 11 C s       :     3.224401  s :     3.224401
      pz      :     0.946302  p :     2.846101
      px      :     0.922696
      py      :     0.977103
      dz2     :     0.015107  d :     0.062563
      dxz     :     0.008024
      dyz     :     0.011565
      dx2y2   :     0.016445
      dxy     :     0.011422
      f0      :     0.000748  f :     0.006343
      f+1     :     0.001237
      f-1     :     0.000502
      f+2     :     0.000866
      f-2     :     0.001190
      f+3     :     0.000634
      f-3     :     0.001167

 12 C s       :     3.200669  s :     3.200669
      pz      :     0.950709  p :     2.879704
      px      :     0.983256
      py      :     0.945739
      dz2     :     0.016061  d :     0.059776
      dxz     :     0.005962
      dyz     :     0.010837
      dx2y2   :     0.011987
      dxy     :     0.014928
      f0      :     0.000667  f :     0.006455
      f+1     :     0.001139
      f-1     :     0.000797
      f+2     :     0.000953
      f-2     :     0.001167
      f+3     :     0.000950
      f-3     :     0.000781

 13 C s       :     3.151976  s :     3.151976
      pz      :     0.893316  p :     2.682781
      px      :     0.848358
      py      :     0.941108
      dz2     :     0.015260  d :     0.095208
      dxz     :     0.010076
      dyz     :     0.023032
      dx2y2   :     0.020307
      dxy     :     0.026533
      f0      :     0.000818  f :     0.008389
      f+1     :     0.001088
      f-1     :     0.001188
      f+2     :     0.001166
      f-2     :     0.001421
      f+3     :     0.001088
      f-3     :     0.001619

 14 C s       :     3.393901  s :     3.393901
      pz      :     0.994292  p :     3.054709
      px      :     0.972996
      py      :     1.087422
      dz2     :     0.011484  d :     0.051129
      dxz     :     0.009067
      dyz     :     0.011286
      dx2y2   :     0.009091
      dxy     :     0.010201
      f0      :     0.000311  f :     0.003172
      f+1     :     0.000539
      f-1     :     0.000258
      f+2     :     0.000661
      f-2     :     0.000670
      f+3     :     0.000341
      f-3     :     0.000392

 15 C s       :     3.240693  s :     3.240693
      pz      :     0.895169  p :     2.751680
      px      :     0.921852
      py      :     0.934659
      dz2     :     0.021264  d :     0.079296
      dxz     :     0.015061
      dyz     :     0.010462
      dx2y2   :     0.018190
      dxy     :     0.014319
      f0      :     0.000964  f :     0.007014
      f+1     :     0.000910
      f-1     :     0.000982
      f+2     :     0.001081
      f-2     :     0.001285
      f+3     :     0.000689
      f-3     :     0.001103

 16 C s       :     3.203786  s :     3.203786
      pz      :     0.908669  p :     2.874984
      px      :     0.987120
      py      :     0.979195
      dz2     :     0.018945  d :     0.066805
      dxz     :     0.010888
      dyz     :     0.011089
      dx2y2   :     0.011410
      dxy     :     0.014474
      f0      :     0.000855  f :     0.006603
      f+1     :     0.001241
      f-1     :     0.000679
      f+2     :     0.001215
      f-2     :     0.001167
      f+3     :     0.000912
      f-3     :     0.000533

 17 C s       :     3.232805  s :     3.232805
      pz      :     0.979763  p :     2.868314
      px      :     0.939185
      py      :     0.949365
      dz2     :     0.008214  d :     0.060587
      dxz     :     0.011673
      dyz     :     0.013308
      dx2y2   :     0.018080
      dxy     :     0.009312
      f0      :     0.000379  f :     0.006300
      f+1     :     0.001084
      f-1     :     0.000807
      f+2     :     0.000834
      f-2     :     0.001178
      f+3     :     0.000846
      f-3     :     0.001172

 18 C s       :     3.226359  s :     3.226359
      pz      :     0.945290  p :     2.845007
      px      :     0.980430
      py      :     0.919287
      dz2     :     0.015360  d :     0.062665
      dxz     :     0.012289
      dyz     :     0.009440
      dx2y2   :     0.013113
      dxy     :     0.012463
      f0      :     0.001000  f :     0.006350
      f+1     :     0.000594
      f-1     :     0.000899
      f+2     :     0.001047
      f-2     :     0.001154
      f+3     :     0.000541
      f-3     :     0.001115

 19 C s       :     3.198052  s :     3.198052
      pz      :     0.935154  p :     2.881444
      px      :     0.931815
      py      :     1.014474
      dz2     :     0.017699  d :     0.059679
      dxz     :     0.008193
      dyz     :     0.010380
      dx2y2   :     0.010546
      dxy     :     0.012861
      f0      :     0.000877  f :     0.006445
      f+1     :     0.001224
      f-1     :     0.000674
      f+2     :     0.001138
      f-2     :     0.001173
      f+3     :     0.000842
      f-3     :     0.000517

 20 C s       :     3.151210  s :     3.151210
      pz      :     0.880384  p :     2.684785
      px      :     0.925135
      py      :     0.879266
      dz2     :     0.020037  d :     0.095646
      dxz     :     0.015248
      dyz     :     0.016507
      dx2y2   :     0.021128
      dxy     :     0.022726
      f0      :     0.000913  f :     0.008387
      f+1     :     0.001371
      f-1     :     0.001066
      f+2     :     0.001270
      f-2     :     0.001396
      f+3     :     0.000958
      f-3     :     0.001413

 21 C s       :     3.394001  s :     3.394001
      pz      :     0.956134  p :     3.055328
      px      :     1.071897
      py      :     1.027297
      dz2     :     0.014578  d :     0.050983
      dxz     :     0.007311
      dyz     :     0.011332
      dx2y2   :     0.004299
      dxy     :     0.013463
      f0      :     0.000412  f :     0.003157
      f+1     :     0.000303
      f-1     :     0.000694
      f+2     :     0.000451
      f-2     :     0.000649
      f+3     :     0.000200
      f-3     :     0.000447

 22 H s       :     0.798694  s :     0.798694
      pz      :     0.004312  p :     0.018756
      px      :     0.003470
      py      :     0.010974

 23 H s       :     0.805654  s :     0.805654
      pz      :     0.007163  p :     0.018983
      px      :     0.008290
      py      :     0.003531

 24 H s       :     0.840768  s :     0.840768
      pz      :     0.005617  p :     0.018843
      px      :     0.009548
      py      :     0.003677

 25 H s       :     0.844549  s :     0.844549
      pz      :     0.005247  p :     0.019712
      px      :     0.011168
      py      :     0.003297

 26 H s       :     0.837222  s :     0.837222
      pz      :     0.004135  p :     0.019636
      px      :     0.008495
      py      :     0.007007

 27 H s       :     0.835586  s :     0.835586
      pz      :     0.009276  p :     0.019654
      px      :     0.003039
      py      :     0.007340

 28 H s       :     0.785148  s :     0.785148
      pz      :     0.005262  p :     0.020672
      px      :     0.012114
      py      :     0.003296

 29 H s       :     0.786327  s :     0.786327
      pz      :     0.004114  p :     0.020656
      px      :     0.006079
      py      :     0.010462

 30 H s       :     0.835618  s :     0.835618
      pz      :     0.007621  p :     0.019657
      px      :     0.009250
      py      :     0.002786

 31 H s       :     0.836755  s :     0.836755
      pz      :     0.004656  p :     0.019636
      px      :     0.003631
      py      :     0.011349

 32 H s       :     0.845526  s :     0.845526
      pz      :     0.004160  p :     0.019704
      px      :     0.006207
      py      :     0.009338

 33 H s       :     0.806353  s :     0.806353
      pz      :     0.008535  p :     0.018997
      px      :     0.003868
      py      :     0.006594

 34 H s       :     0.840672  s :     0.840672
      pz      :     0.004651  p :     0.018821
      px      :     0.004512
      py      :     0.009658

 35 H s       :     0.798616  s :     0.798616
      pz      :     0.005154  p :     0.018731
      px      :     0.008305
      py      :     0.005272

 36 H s       :     0.785350  s :     0.785350
      pz      :     0.003828  p :     0.020677
      px      :     0.006136
      py      :     0.010713

 37 H s       :     0.835459  s :     0.835459
      pz      :     0.009361  p :     0.019656
      px      :     0.004145
      py      :     0.006150

 38 H s       :     0.836879  s :     0.836879
      pz      :     0.005727  p :     0.019627
      px      :     0.010009
      py      :     0.003890

 39 H s       :     0.845116  s :     0.845116
      pz      :     0.003842  p :     0.019724
      px      :     0.005538
      py      :     0.010344

 40 H s       :     0.805836  s :     0.805836
      pz      :     0.008789  p :     0.019009
      px      :     0.004095
      py      :     0.006125

 41 H s       :     0.799267  s :     0.799267
      pz      :     0.003936  p :     0.018726
      px      :     0.009494
      py      :     0.005297

 42 H s       :     0.839909  s :     0.839909
      pz      :     0.004295  p :     0.018810
      px      :     0.006966
      py      :     0.007548



                     *******************************
                     * LOEWDIN POPULATION ANALYSIS *
                     *******************************

----------------------
LOEWDIN ATOMIC CHARGES
----------------------
   0 C :   -0.274279
   1 C :   -0.168124
   2 C :   -0.121881
   3 C :   -0.141400
   4 C :   -0.149484
   5 C :   -0.139607
   6 C :   -0.247582
   7 P :    0.711338
   8 C :   -0.247756
   9 C :   -0.139895
  10 C :   -0.149571
  11 C :   -0.141442
  12 C :   -0.121769
  13 C :   -0.168047
  14 C :   -0.274192
  15 C :   -0.247735
  16 C :   -0.139632
  17 C :   -0.149520
  18 C :   -0.141302
  19 C :   -0.121780
  20 C :   -0.167968
  21 C :   -0.274408
  22 H :    0.138455
  23 H :    0.134295
  24 H :    0.129293
  25 H :    0.148801
  26 H :    0.147002
  27 H :    0.147176
  28 H :    0.160314
  29 H :    0.160367
  30 H :    0.147179
  31 H :    0.147002
  32 H :    0.148839
  33 H :    0.134117
  34 H :    0.129329
  35 H :    0.138563
  36 H :    0.160443
  37 H :    0.147204
  38 H :    0.147046
  39 H :    0.148809
  40 H :    0.134141
  41 H :    0.138277
  42 H :    0.129383

-------------------------------
LOEWDIN REDUCED ORBITAL CHARGES
-------------------------------
  0 C s       :     2.828188  s :     2.828188
      pz      :     1.047284  p :     3.172823
      px      :     1.070819
      py      :     1.054720
      dz2     :     0.044396  d :     0.249126
      dxz     :     0.075374
      dyz     :     0.044436
      dx2y2   :     0.066580
      dxy     :     0.018339
      f0      :     0.005244  f :     0.024143
      f+1     :     0.001980
      f-1     :     0.003828
      f+2     :     0.003890
      f-2     :     0.003689
      f+3     :     0.002645
      f-3     :     0.002867

  1 C s       :     2.725577  s :     2.725577
      pz      :     0.926594  p :     2.871196
      px      :     1.022701
      py      :     0.921902
      dz2     :     0.097125  d :     0.516836
      dxz     :     0.116164
      dyz     :     0.076125
      dx2y2   :     0.115533
      dxy     :     0.111889
      f0      :     0.005663  f :     0.054515
      f+1     :     0.010787
      f-1     :     0.004906
      f+2     :     0.006769
      f-2     :     0.009425
      f+3     :     0.007573
      f-3     :     0.009391

  2 C s       :     2.770639  s :     2.770639
      pz      :     0.980700  p :     2.937626
      px      :     0.981889
      py      :     0.975037
      dz2     :     0.065780  d :     0.373673
      dxz     :     0.089590
      dyz     :     0.065037
      dx2y2   :     0.094198
      dxy     :     0.059068
      f0      :     0.005582  f :     0.039942
      f+1     :     0.005204
      f-1     :     0.005242
      f+2     :     0.005182
      f-2     :     0.007449
      f+3     :     0.006163
      f-3     :     0.005120

  3 C s       :     2.777554  s :     2.777554
      pz      :     0.985048  p :     2.945480
      px      :     1.011497
      py      :     0.948935
      dz2     :     0.082754  d :     0.377573
      dxz     :     0.092290
      dyz     :     0.051192
      dx2y2   :     0.054422
      dxy     :     0.096914
      f0      :     0.004910  f :     0.040793
      f+1     :     0.007298
      f-1     :     0.004653
      f+2     :     0.006160
      f-2     :     0.006964
      f+3     :     0.004364
      f-3     :     0.006445

  4 C s       :     2.776981  s :     2.776981
      pz      :     0.952889  p :     2.955257
      px      :     1.049965
      py      :     0.952402
      dz2     :     0.052560  d :     0.376438
      dxz     :     0.081782
      dyz     :     0.058405
      dx2y2   :     0.095929
      dxy     :     0.087763
      f0      :     0.002663  f :     0.040808
      f+1     :     0.008927
      f-1     :     0.002884
      f+2     :     0.005150
      f-2     :     0.006934
      f+3     :     0.006376
      f-3     :     0.007875

  5 C s       :     2.775071  s :     2.775071
      pz      :     0.968225  p :     2.938115
      px      :     0.997275
      py      :     0.972614
      dz2     :     0.069477  d :     0.385740
      dxz     :     0.092095
      dyz     :     0.065971
      dx2y2   :     0.096562
      dxy     :     0.061635
      f0      :     0.005802  f :     0.040681
      f+1     :     0.005316
      f-1     :     0.005297
      f+2     :     0.005072
      f-2     :     0.007388
      f+3     :     0.006584
      f-3     :     0.005224

  6 C s       :     2.772684  s :     2.772684
      pz      :     0.995651  p :     2.981875
      px      :     1.016663
      py      :     0.969561
      dz2     :     0.088320  d :     0.449401
      dxz     :     0.120564
      dyz     :     0.068523
      dx2y2   :     0.070677
      dxy     :     0.101317
      f0      :     0.005143  f :     0.043622
      f+1     :     0.008097
      f-1     :     0.004935
      f+2     :     0.006204
      f-2     :     0.007833
      f+3     :     0.005225
      f-3     :     0.006186

  7 P s       :     4.905551  s :     4.905551
      pz      :     3.287005  p :     8.779329
      px      :     2.750507
      py      :     2.741817
      dz2     :     0.075699  d :     0.508790
      dxz     :     0.094454
      dyz     :     0.086344
      dx2y2   :     0.123839
      dxy     :     0.128454
      f0      :     0.006737  f :     0.094993
      f+1     :     0.010655
      f-1     :     0.009374
      f+2     :     0.018373
      f-2     :     0.019328
      f+3     :     0.014852
      f-3     :     0.015674

  8 C s       :     2.772701  s :     2.772701
      pz      :     0.966275  p :     2.982016
      px      :     0.992708
      py      :     1.023034
      dz2     :     0.070039  d :     0.449415
      dxz     :     0.064780
      dyz     :     0.107194
      dx2y2   :     0.112406
      dxy     :     0.094995
      f0      :     0.004674  f :     0.043625
      f+1     :     0.004545
      f-1     :     0.005495
      f+2     :     0.005382
      f-2     :     0.008677
      f+3     :     0.006194
      f-3     :     0.008659

  9 C s       :     2.775044  s :     2.775044
      pz      :     0.944308  p :     2.938340
      px      :     0.972598
      py      :     1.021434
      dz2     :     0.066809  d :     0.385828
      dxz     :     0.048345
      dyz     :     0.080880
      dx2y2   :     0.074772
      dxy     :     0.115022
      f0      :     0.004351  f :     0.040682
      f+1     :     0.004418
      f-1     :     0.005061
      f+2     :     0.005729
      f-2     :     0.007364
      f+3     :     0.006846
      f-3     :     0.006913

 10 C s       :     2.776955  s :     2.776955
      pz      :     0.934976  p :     2.955302
      px      :     0.957556
      py      :     1.062770
      dz2     :     0.035565  d :     0.376504
      dxz     :     0.052351
      dyz     :     0.082543
      dx2y2   :     0.112942
      dxy     :     0.093104
      f0      :     0.003201  f :     0.040810
      f+1     :     0.001641
      f-1     :     0.007780
      f+2     :     0.004364
      f-2     :     0.007276
      f+3     :     0.006830
      f-3     :     0.009719

 11 C s       :     2.777527  s :     2.777527
      pz      :     0.948606  p :     2.945535
      px      :     0.993925
      py      :     1.003004
      dz2     :     0.058770  d :     0.377582
      dxz     :     0.058406
      dyz     :     0.071448
      dx2y2   :     0.106279
      dxy     :     0.082679
      f0      :     0.004809  f :     0.040797
      f+1     :     0.004695
      f-1     :     0.004116
      f+2     :     0.004767
      f-2     :     0.008080
      f+3     :     0.005547
      f-3     :     0.008783

 12 C s       :     2.770617  s :     2.770617
      pz      :     0.958949  p :     2.937524
      px      :     0.978251
      py      :     1.000324
      dz2     :     0.062479  d :     0.373685
      dxz     :     0.049781
      dyz     :     0.076269
      dx2y2   :     0.073291
      dxy     :     0.111865
      f0      :     0.004187  f :     0.039943
      f+1     :     0.004463
      f-1     :     0.004808
      f+2     :     0.005692
      f-2     :     0.007491
      f+3     :     0.006476
      f-3     :     0.006826

 13 C s       :     2.725557  s :     2.725557
      pz      :     0.897327  p :     2.871132
      px      :     0.935520
      py      :     1.038286
      dz2     :     0.077284  d :     0.516839
[...]
      f-3     :     0.003296

 22 H s       :     0.802575  s :     0.802575
      pz      :     0.014683  p :     0.058970
      px      :     0.012391
      py      :     0.031896

 23 H s       :     0.806297  s :     0.806297
      pz      :     0.021161  p :     0.059408
      px      :     0.026327
      py      :     0.011920

 24 H s       :     0.813235  s :     0.813235
      pz      :     0.016170  p :     0.057472
      px      :     0.028467
      py      :     0.012834

 25 H s       :     0.795535  s :     0.795535
      pz      :     0.015556  p :     0.055664
      px      :     0.029036
      py      :     0.011073

 26 H s       :     0.797320  s :     0.797320
      pz      :     0.012995  p :     0.055677
      px      :     0.023202
      py      :     0.019480

 27 H s       :     0.796950  s :     0.796950
      pz      :     0.024851  p :     0.055874
      px      :     0.010709
      py      :     0.020314

 28 H s       :     0.780883  s :     0.780883
      pz      :     0.015662  p :     0.058802
      px      :     0.032102
      py      :     0.011039

 29 H s       :     0.780841  s :     0.780841
      pz      :     0.013005  p :     0.058793
      px      :     0.017662
      py      :     0.028125

 30 H s       :     0.796945  s :     0.796945
      pz      :     0.021000  p :     0.055876
      px      :     0.024722
      py      :     0.010155

 31 H s       :     0.797317  s :     0.797317
      pz      :     0.014077  p :     0.055681
      px      :     0.011844
      py      :     0.029760

 32 H s       :     0.795506  s :     0.795506
      pz      :     0.013049  p :     0.055655
      px      :     0.017763
      py      :     0.024843

 33 H s       :     0.806466  s :     0.806466
      pz      :     0.025333  p :     0.059417
      px      :     0.013136
      py      :     0.020948

 34 H s       :     0.813208  s :     0.813208
      pz      :     0.014219  p :     0.057464
      px      :     0.013461
      py      :     0.029784

 35 H s       :     0.802513  s :     0.802513
      pz      :     0.017337  p :     0.058924
      px      :     0.024694
      py      :     0.016894

 36 H s       :     0.780757  s :     0.780757
      pz      :     0.012272  p :     0.058800
      px      :     0.017863
      py      :     0.028666

 37 H s       :     0.796922  s :     0.796922
      pz      :     0.025068  p :     0.055874
      px      :     0.013081
      py      :     0.017725

 38 H s       :     0.797283  s :     0.797283
      pz      :     0.016665  p :     0.055671
      px      :     0.026466
      py      :     0.012540

 39 H s       :     0.795528  s :     0.795528
      pz      :     0.012324  p :     0.055663
      px      :     0.016188
      py      :     0.027151

 40 H s       :     0.806414  s :     0.806414
      pz      :     0.025496  p :     0.059444
      px      :     0.013674
      py      :     0.020274

 41 H s       :     0.802845  s :     0.802845
      pz      :     0.013474  p :     0.058878
      px      :     0.028142
      py      :     0.017262

 42 H s       :     0.813137  s :     0.813137
      pz      :     0.012986  p :     0.057480
      px      :     0.022764
      py      :     0.021730



                      *****************************
                      * MAYER POPULATION ANALYSIS *
                      *****************************

  NA   - Mulliken gross atomic population
  ZA   - Total nuclear charge
  QA   - Mulliken gross atomic charge
  VA   - Mayer's total valence
  BVA  - Mayer's bonded valence
  FA   - Mayer's free valence

  ATOM       NA         ZA         QA         VA         BVA        FA
  0 C      6.5034     6.0000    -0.5034     3.8147     3.8147    -0.0000
  1 C      5.9443     6.0000     0.0557     3.7885     3.7885    -0.0000
  2 C      6.1437     6.0000    -0.1437     3.9410     3.9410    -0.0000
  3 C      6.1411     6.0000    -0.1411     3.9435     3.9435     0.0000
  4 C      6.1685     6.0000    -0.1685     3.9856     3.9856     0.0000
  5 C      6.1515     6.0000    -0.1515     3.8525     3.8525     0.0000
  6 C      6.0745     6.0000    -0.0745     3.6320     3.6320     0.0000
  7 P     14.9626    15.0000     0.0374     3.0117     3.0117     0.0000
  8 C      6.0790     6.0000    -0.0790     3.6318     3.6318    -0.0000
  9 C      6.1517     6.0000    -0.1517     3.8524     3.8524    -0.0000
 10 C      6.1700     6.0000    -0.1700     3.9892     3.9892    -0.0000
 11 C      6.1394     6.0000    -0.1394     3.9435     3.9435     0.0000
 12 C      6.1466     6.0000    -0.1466     3.9418     3.9418     0.0000
 13 C      5.9384     6.0000     0.0616     3.7812     3.7812    -0.0000
 14 C      6.5029     6.0000    -0.5029     3.8147     3.8147    -0.0000
 15 C      6.0787     6.0000    -0.0787     3.6363     3.6363    -0.0000
 16 C      6.1522     6.0000    -0.1522     3.8513     3.8513    -0.0000
 17 C      6.1680     6.0000    -0.1680     3.9881     3.9881    -0.0000
 18 C      6.1404     6.0000    -0.1404     3.9448     3.9448     0.0000
 19 C      6.1456     6.0000    -0.1456     3.9421     3.9421    -0.0000
 20 C      5.9400     6.0000     0.0600     3.7854     3.7854     0.0000
 21 C      6.5035     6.0000    -0.5035     3.8153     3.8153     0.0000
 22 H      0.8174     1.0000     0.1826     0.9333     0.9333     0.0000
 23 H      0.8246     1.0000     0.1754     0.9507     0.9507     0.0000
 24 H      0.8596     1.0000     0.1404     0.9642     0.9642    -0.0000
 25 H      0.8643     1.0000     0.1357     0.9676     0.9676    -0.0000
 26 H      0.8569     1.0000     0.1431     0.9654     0.9654    -0.0000
 27 H      0.8552     1.0000     0.1448     0.9655     0.9655     0.0000
 28 H      0.8058     1.0000     0.1942     0.9434     0.9434    -0.0000
 29 H      0.8070     1.0000     0.1930     0.9445     0.9445    -0.0000
 30 H      0.8553     1.0000     0.1447     0.9657     0.9657    -0.0000
 31 H      0.8564     1.0000     0.1436     0.9650     0.9650     0.0000
 32 H      0.8652     1.0000     0.1348     0.9681     0.9681     0.0000
 33 H      0.8254     1.0000     0.1746     0.9513     0.9513    -0.0000
 34 H      0.8595     1.0000     0.1405     0.9640     0.9640    -0.0000
 35 H      0.8173     1.0000     0.1827     0.9333     0.9333     0.0000
 36 H      0.8060     1.0000     0.1940     0.9436     0.9436     0.0000
 37 H      0.8551     1.0000     0.1449     0.9656     0.9656    -0.0000
 38 H      0.8565     1.0000     0.1435     0.9651     0.9651     0.0000
 39 H      0.8648     1.0000     0.1352     0.9679     0.9679    -0.0000
 40 H      0.8248     1.0000     0.1752     0.9509     0.9509     0.0000
 41 H      0.8180     1.0000     0.1820     0.9338     0.9338     0.0000
 42 H      0.8587     1.0000     0.1413     0.9636     0.9636    -0.0000

  Mayer bond orders larger than 0.100000
B(  0-C ,  1-C ) :   0.9323 B(  0-C , 22-H ) :   0.9474 B(  0-C , 23-H ) :   0.9768 
B(  0-C , 24-H ) :   0.9719 B(  1-C ,  2-C ) :   1.4494 B(  1-C ,  6-C ) :   1.3170 
B(  2-C ,  3-C ) :   1.4511 B(  2-C , 25-H ) :   0.9319 B(  3-C ,  4-C ) :   1.4397 
B(  3-C , 26-H ) :   0.9511 B(  4-C ,  5-C ) :   1.4643 B(  4-C , 27-H ) :   0.9444 
B(  5-C ,  6-C ) :   1.3563 B(  5-C , 28-H ) :   0.9308 B(  6-C ,  7-P ) :   0.9178 
B(  7-P ,  8-C ) :   0.9213 B(  7-P , 15-C ) :   0.9184 B(  8-C ,  9-C ) :   1.3538 
B(  8-C , 13-C ) :   1.3166 B(  9-C , 10-C ) :   1.4651 B(  9-C , 29-H ) :   0.9323 
B( 10-C , 11-C ) :   1.4416 B( 10-C , 30-H ) :   0.9440 B( 11-C , 12-C ) :   1.4509 
B( 11-C , 31-H ) :   0.9501 B( 12-C , 13-C ) :   1.4472 B( 12-C , 32-H ) :   0.9335 
B( 13-C , 14-C ) :   0.9313 B( 14-C , 33-H ) :   0.9770 B( 14-C , 34-H ) :   0.9724 
B( 14-C , 35-H ) :   0.9470 B( 15-C , 16-C ) :   1.3535 B( 15-C , 20-C ) :   1.3205 
B( 16-C , 17-C ) :   1.4648 B( 16-C , 36-H ) :   0.9319 B( 17-C , 18-C ) :   1.4412 
B( 17-C , 37-H ) :   0.9441 B( 18-C , 19-C ) :   1.4517 B( 18-C , 38-H ) :   0.9502 
B( 19-C , 20-C ) :   1.4468 B( 19-C , 39-H ) :   0.9326 B( 20-C , 21-C ) :   0.9301 
B( 21-C , 40-H ) :   0.9768 B( 21-C , 41-H ) :   0.9476 B( 21-C , 42-H ) :   0.9720 


-------
TIMINGS
-------

Total SCF time: 0 days 0 hours 2 min 41 sec 

Total time                  ....     161.624 sec
Sum of individual times     ....     161.730 sec  (100.1%)

SCF preparation             ....       0.366 sec  (  0.2%)
Fock matrix formation       ....     156.772 sec  ( 97.0%)
  Startup                   ....       0.149 sec  (  0.1% of F)
  Split-RI-J                ....      11.012 sec  (  7.0% of F)
  Chain of spheres X        ....     113.799 sec  ( 72.6% of F)
  XC integration            ....      31.439 sec  ( 20.1% of F)
    Basis function eval.    ....       4.237 sec  ( 13.5% of XC)
    Density eval.           ....      13.030 sec  ( 41.4% of XC)
    XC-Functional eval.     ....       0.481 sec  (  1.5% of XC)
    XC-Potential eval.      ....      11.382 sec  ( 36.2% of XC)
Diagonalization             ....       0.000 sec  (  0.0%)
Density matrix formation    ....       0.390 sec  (  0.2%)
Total Energy calculation    ....       0.127 sec  (  0.1%)
Population analysis         ....       0.254 sec  (  0.2%)
Orbital Transformation      ....       0.601 sec  (  0.4%)
Orbital Orthonormalization  ....       0.000 sec  (  0.0%)
DIIS solution               ....       2.072 sec  (  1.3%)
SOSCF solution              ....       1.148 sec  (  0.7%)
Finished LeanSCF after 161.7 sec

Maximum memory used throughout the entire LEANSCF-calculation: 128.9 MB


-------------------------------------------------------------------------------
                          DFT DISPERSION CORRECTION                            
                                                                               
                              DFTD3 V3.1  Rev 1                                
                              USING zero damping                               
-------------------------------------------------------------------------------
The M062X functional is recognized
Active option DFTDOPT                   ...         3   

molecular C6(AA) [au] = 23140.359557 


            DFT-D V3
 parameters
 s6 scaling factor         :     1.0000 
 rs6 scaling factor        :     1.6190 
 s8 scaling factor         :     0.0000 
 rs8 scaling factor        :     1.0000 
 Damping factor alpha6     :    14.0000 
 Damping factor alpha8     :    16.0000 
 ad hoc parameters k1-k3   :    16.0000     1.3333    -4.0000 

 Edisp/kcal,au: -2.112161647420  -0.003365943479 
 E6   /kcal   :  -2.112161647 
 E8   /kcal   :  -0.000000000 
 % E8         :   0.000000000 

-------------------------   ----------------
Dispersion correction           -0.003365943
-------------------------   ----------------


-------------------------   --------------------
FINAL SINGLE POINT ENERGY     -1154.175844598796
-------------------------   --------------------



           ************************************************************
           *        Program running with 6 parallel MPI-processes     *
           *              working on a common directory               *
           ************************************************************

------------------------------------------------------------------------------
                              ORCA PROPERTY CALCULATIONS
------------------------------------------------------------------------------

GBWName                                 ... data/single_point_P_M06-2x/80271/80271.gbw
Number of atoms                         ...     43
Number of basis functions               ...    814
Max core memory                         ...   1024 MB

Electric properties:
Dipole moment                           ... YES
Quadrupole moment                       ...  NO
Static polarizability (Dipole/Dipole)   ...  NO
Static polarizability (Dipole/Quad.)    ...  NO
Static polarizability (Quad./Quad.)     ...  NO
Static polarizability (Velocity)        ...  NO

Atomic electric properties:
Dipole moment                           ...  NO
Quadrupole moment                       ...  NO
Static polarizability                   ...  NO

Choice of electric origin               ... Center of mass
Position of electric origin             ...     0.013922     0.000408     0.094470

General magnetic properties:
Magnetizability                         ...  NO

EPR properties:
g-Tensor (aka g-matrix)                 ...  NO
Zero-Field splitting spin-orbit         ...  NO
Zero-field splitting spin-spin          ...  NO
Hyperfine couplings                     ...  NO (   0 nuclei)
Quadrupole couplings                    ...  NO (   0 nuclei)
Contact density                         ...  NO (   0 nuclei)

NMR properties:
Chemical shifts                         ...  NO (   0 nuclei)
Spin-rotation constants                 ...  NO (   0 nuclei)
Spin-spin couplings                     ...  NO (   0 nuclei,    0 pairs)

Choice of magnetic origin               ... GIAO
Position of magnetic origin             ...     0.000000     0.000000     0.000000

Properties with geometric perturbations:
SCF Hessian                             ...  NO
IR spectrum                             ...  NO
VCD spectrum                            ...  NO
X-ray spectroscopy properties:
SCF XES/XAS/RIXS spectra                ...  NO


-------------
DIPOLE MOMENT
-------------

Method             : SCF
Type of density    : Electron Density
Multiplicity       :   1
Irrep              :   0
Energy             : -1154.1724786553174908 Eh
Relativity type    : 
Basis              : AO
                                X                 Y                 Z
Electronic contribution:      0.424742437       0.023576457       3.047618702
Nuclear contribution   :     -0.409317339      -0.020356268      -2.876230201
                        -----------------------------------------
Total Dipole Moment    :      0.015425098       0.003220189       0.171388502
                        -----------------------------------------
Magnitude (a.u.)       :      0.172111364
Magnitude (Debye)      :      0.437472322



--------------------
Rotational spectrum 
--------------------
 
Rotational constants in cm-1:             0.009519             0.009502             0.005929 
Rotational constants in MHz :           285.360231           284.874082           177.752827 

Dipole components along the rotational axes: 
x,y,z [a.u.] :    -0.006318    -0.000062     0.171995 
x,y,z [Debye]:    -0.016060    -0.000157     0.437177 

 

Dipole moment calculation done in   0.0 sec 

Maximum memory used throughout the entire PROP-calculation: 69.6 MB

--------------------------------
SUGGESTED CITATIONS FOR THIS RUN
--------------------------------

Below you find a list of papers that are relevant to this ORCA run
We neither can nor want to force you to cite these papers, but we appreciate if you do
You receive ORCA, which is the product of decades of hard work by many enthusiastic individuals, for free
The only thing we kindly ask in return is that you cite our papers,
We deeply appreciate it, if you show your appreciation for ORCA by not just citing the generic ORCA reference.

Please note that relegating all ORCA citations to the supporting information does *not* help us.
SI sections are not indexed - citations you put there will not count into any citation statistics
But we need these citations in order to attract the funding resources that allow us to do what we are doing

Therefore, if you are a happy ORCA user, please consider citing a few of the papers listed below in the main body of your paper

In addition to the list printed below, the program has created the file data/single_point_P_M06-2x/80271/80271.bibtex that contains the list in bibtex format
You can import this file easily into all common literature databanks and citation aid programs


List of essential papers. We consider these as the minimum necessary citations

  1. Neese,F.
     Software update: the ORCA program system, version 5.0
     WIRES Comput. Molec. Sci., 2022 12(1)e1606
     doi.org/10.1002/wcms.1606

List of papers to cite with high priority. The work reported in these papers was absolutely
necessary for this run to complete.
Our perspective: the developers of density functionals and basis sets usually get cited in chemistry papers
Good! But without the algorithms to do something with them, the functionals or basis sets would not do anything.
Hence, in our opinion, the algorithm design and method developments papers are equally worthy of getting cited

  1. Neese,F.
     An improvement of the resolution of the identity approximation for the formation of the Coulomb matrix
     J. Comp. Chem., 2003 24(14)1740-1747
     doi.org/10.1002/jcc.10318
  2. Neese,F.; Wennmohs,F.; Hansen,A.; Becker,U.
     Efficient, approximate and parallel Hartree-Fock and hybrid DFT calculations. A 'chain-of-spheres' algorithm for the Hartree-Fock exchange
     Chem. Phys., 2009 356(1-3)98-109
     doi.org/10.1016/j.chemphys.2008.10.036
  3. Helmich-Paris,B.; de Souza,B.; Neese,F.; Izsák,R.
     An improved chain of spheres for exchange algorithm
     J. Chem. Phys., 2021 155 104109
     doi.org/doi: 10.1063/5.0058766.
  4. Neese,F.
     The SHARK Integral Generation and Digestion System
     J. Comp. Chem., 2022  1-16
     doi.org/10.1002/jcc.26942
  5. Grimme,S.; Antony,J.; Ehrlich,S.; Krieg,H.
     A consistent and accurate ab initio parametrization of density functional dispersion correction (DFT-D) for the 94 elements H-Pu
     J. Chem. Phys., 2010 132 154104-XXXX
     doi.org/10.1063/1.3382344

List of suggested additional citations. These are papers that are important in the 'surrounding' of 
of this run, or papers that preceded the highly important papers. If you like your results we are grateful for a citation.

  1. Izsak,R.; Neese,F.
     An overlap fitted chain of spheres exchange method
     J. Chem. Phys., 2011 135 144105
     doi.org/10.1063/1.3646921
  2. Izsak,R.; Hansen,A.; Neese,F.
     The resolution of identity and chain of spheres approximations for the LPNO-CCSD singles Fock term
     Molec. Phys., 2012 110 2413-2417
     doi.org/10.1080/00268976.2012.687466
  3. Neese,F.
     The ORCA program system
     WIRES Comput. Molec. Sci., 2012 2(1)73-78
     doi.org/10.1002/wcms.81
  4. Izsak,R.; Neese,F.; Klopper,W.
     Robust fitting techniques in the chain of spheres approximation to the Fock exchange: The role of the complementary space
     J. Chem. Phys., 2013 139 
     doi.org/10.1063/1.4819264
  5. Neese,F.
     Software update: the ORCA program system, version 4.0
     WIRES Comput. Molec. Sci., 2018 8(1)1-6
     doi.org/10.1002/wcms.1327
  6. Neese,F.; Wennmohs,F.; Becker,U.; Riplinger,C.
     The ORCA quantum chemistry program package
     J. Chem. Phys., 2020 152 Art. No. L224108
     doi.org/10.1063/5.0004608

List of optional additional citations

  1. Neese,F.
     Approximate second-order SCF convergence for spin unrestricted wavefunctions
     Chem. Phys. Lett., 2000 325(1-3)93-98
     doi.org/10.1016/s0009-2614(00)00662-x

Timings for individual modules:

Sum of individual times          ...      169.538 sec (=   2.826 min)
Startup calculation              ...        4.972 sec (=   0.083 min)   2.9 %
SCF iterations                   ...      164.216 sec (=   2.737 min)  96.9 %
Property calculations            ...        0.350 sec (=   0.006 min)   0.2 %
                             ****ORCA TERMINATED NORMALLY****
TOTAL RUN TIME: 0 days 0 hours 2 minutes 49 seconds 789 msec
