
                                 *****************
                                 * O   R   C   A *
                                 *****************

                                            #,                                       
                                            ###                                      
                                            ####                                     
                                            #####                                    
                                            ######                                   
                                           ########,                                 
                                     ,,################,,,,,                         
                               ,,#################################,,                 
                          ,,##########################################,,             
                       ,#########################################, ''#####,          
                    ,#############################################,,   '####,        
                  ,##################################################,,,,####,       
                ,###########''''           ''''###############################       
              ,#####''   ,,,,##########,,,,          '''####'''          '####       
            ,##' ,,,,###########################,,,                        '##       
           ' ,,###''''                  '''############,,,                           
         ,,##''                                '''############,,,,        ,,,,,,###''
      ,#''                                            '''#######################'''  
     '                                                          ''''####''''         
             ,#######,   #######,   ,#######,      ##                                
            ,#'     '#,  ##    ##  ,#'     '#,    #''#        ,####,   ,####,        
            ##       ##  ##   ,#'  ##            #'  '#       #'       #'  '#        
            ##       ##  #######   ##           ,######,      #####,   #    #        
            '#,     ,#'  ##    ##  '#,     ,#' ,#      #,     #,   #   #,  ,#        
             '#######'   ##     ##  '#######'  #'      '#     '####' # '####'        



                #########################################################
                #                        -***-                          #
                #          Department of theory and spectroscopy        #
                #                                                       #
                #                      Frank Neese                      #
                #                                                       #
                #     Directorship, Architecture, Infrastructure        #
                #                    SHARK, DRIVERS                     #
                #        Core code/Algorithms in most modules           #
                #                                                       #
                #        Max Planck Institute fuer Kohlenforschung      #
                #                Kaiser Wilhelm Platz 1                 #
                #                 D-45470 Muelheim/Ruhr                 #
                #                      Germany                          #
                #                                                       #
                #                  All rights reserved                  #
                #                        -***-                          #
                #########################################################


                         Program Version 6.0.0  -   RELEASE   -


 With contributions from (in alphabetic order):
   Daniel Aravena         : Magnetic Suceptibility
   Michael Atanasov       : Ab Initio Ligand Field Theory (pilot matlab implementation)
   Alexander A. Auer      : GIAO ZORA, VPT2 properties, NMR spectrum
   Ute Becker             : All parallelization in ORCA, NUMFREQ, NUMCALC
   Giovanni Bistoni       : ED, misc. LED, open-shell LED, HFLD
   Martin Brehm           : Molecular dynamics
   Dmytro Bykov           : pre 5.0 version of the SCF Hessian
   Marcos Casanova-Páez   : Triplet and SCS-CIS(D). UHF-(DLPNO)-IP/EA/STEOM-CCSD. UHF-CVS-IP/STEOM-CCSD
   Vijay G. Chilkuri      : MRCI spin determinant printing, contributions to CSF-ICE
   Pauline Colinet        : FMM embedding
   Dipayan Datta          : RHF DLPNO-CCSD density
   Achintya Kumar Dutta   : EOM-CC, STEOM-CC
   Nicolas Foglia         : Exact transition moments, OPA infrastructure, MCD improvements
   Dmitry Ganyushin       : Spin-Orbit,Spin-Spin,Magnetic field MRCI
   Miquel Garcia          : C-PCM and meta-GGA Hessian, CCSD/C-PCM, Gaussian charge scheme
   Tiago L. C. Gouveia    : GS-ROHF, GS-ROCIS
   Yang Guo               : DLPNO-NEVPT2, F12-NEVPT2, CIM, IAO-localization
   Andreas Hansen         : Spin unrestricted coupled pair/coupled cluster methods
   Ingolf Harden          : AUTO-CI MPn and infrastructure 
   Benjamin Helmich-Paris : MC-RPA, TRAH-(SCF,CASSCF), AVAS, COSX integrals, SCF dyn. polar.
   Lee Huntington         : MR-EOM, pCC
   Robert Izsak           : Overlap fitted RIJCOSX, COSX-SCS-MP3, EOM
   Riya Kayal             : Wick's Theorem for AUTO-CI, AUTO-CI UHF-CCSDT
   Emily Kempfer          : AUTO-CI, RHF CISDT and CCSDT
   Christian Kollmar      : KDIIS, OOCD, Brueckner-CCSD(T), CCSD density, CASPT2, CASPT2-K, improved NEVPT2
   Axel Koslowski         : Symmetry handling
   Simone Kossmann        : Meta GGA functionals, TD-DFT gradient, OOMP2, (MP2 Hessian; deprecated post 5.0)
   Lucas Lang             : DCDCAS
   Marvin Lechner         : AUTO-CI (C++ implementation), FIC-MRCC
   Spencer Leger          : CASSCF response
   Dagmar Lenk            : GEPOL surface, SMD, ORCA-2-JSON
   Dimitrios Liakos       : Extrapolation schemes; Compound Job, initial MDCI parallelization
   Dimitrios Manganas     : Further ROCIS development; embedding schemes. LFT, Crystal Embedding
   Dimitrios Pantazis     : SARC Basis sets
   Anastasios Papadopoulos: AUTO-CI, single reference methods and gradients
   Taras Petrenko         : pre 6.0 DFT Hessian and TD-DFT gradient, (ASA, deprecated), ECA, 1-Electron XAS/XES, NRVS
   Peter Pinski           : DLPNO-MP2, DLPNO-MP2 Gradient
   Christoph Reimann      : Effective Core Potentials
   Marius Retegan         : Local ZFS, SOC
   Christoph Riplinger    : Optimizer, TS searches, QM/MM, DLPNO-CCSD(T), (RO)-DLPNO pert. Triples
   Michael Roemelt        : Original ROCIS implementation
   Masaaki Saitow         : Open-shell DLPNO-CCSD energy and density
   Barbara Sandhoefer     : DKH picture change effects
   Kantharuban Sivalingam : CASSCF convergence/infrastructure, NEVPT2 and variants, FIC-MRCI
   Bernardo de Souza      : ESD, SOC TD-DFT
   Georgi Stoychev        : AutoAux, RI-MP2 NMR, DLPNO-MP2 response, X2C
   Van Anh Tran           : RI-MP2 g-tensors
   Willem Van den Heuvel  : Paramagnetic NMR
   Zikuan Wang            : NOTCH, Electric field optimization 
   Frank Wennmohs         : Technical directorship and infrastructure
   Hang Xu                : AUTO-CI-Response properties 


 We gratefully acknowledge several colleagues who have allowed us to
 interface, adapt or use parts of their codes:
   Stefan Grimme, W. Hujo, H. Kruse, P. Pracht,  : VdW corrections, initial TS optimization,
                  C. Bannwarth, S. Ehlert,         DFT functionals, gCP, sTDA/sTD-DF
                  L. Wittmann, M. Mueller
   Ed Valeev, F. Pavosevic, A. Kumar             : LibInt (2-el integral package), F12 methods
   Garnet Chan, S. Sharma, J. Yang, R. Olivares  : DMRG
   Ulf Ekstrom                                   : XCFun DFT Library
   Mihaly Kallay                                 : mrcc  (arbitrary order and MRCC methods)
   Frank Weinhold                                : gennbo (NPA and NBO analysis)
   Simon Mueller                                 : openCOSMO-RS
   Christopher J. Cramer and Donald G. Truhlar   : smd solvation model
   Lars Goerigk                                  : TD-DFT with DH, B97 family of functionals
   V. Asgeirsson, H. Jonsson                     : NEB implementation
   FAccTs GmbH                                   : IRC, NEB, NEB-TS, DLPNO-Multilevel, CI-OPT
                                                   MM, QMMM, 2- and 3-layer-ONIOM, Crystal-QMMM,
                                                   LR-CPCM, SF, NACMEs, symmetry and pop. for TD-DFT,
                                                   nearIR, NL-DFT gradient (VV10), updates on ESD,
                                                   ML-optimized integration grids, MBIS, APM,
                                                   GOAT, DOCKER, SOLVATOR, interface openCOSMO-RS
   S Lehtola, MJT Oliveira, MAL Marques          : LibXC Library
   Liviu Ungur et al                             : ANISO software


 Your calculation uses the libint2 library for the computation of 2-el integrals
 For citations please refer to: http://libint.valeyev.net

 Your ORCA version has been built with support for libXC version: 6.2.2
 For citations please refer to: https://libxc.gitlab.io

 This ORCA versions uses:
   CBLAS   interface :  Fast vector & matrix operations
   LAPACKE interface :  Fast linear algebra routines
   Shared memory     :  Shared parallel matrices


Your calculation utilizes the atom-pairwise dispersion correction
with the zero-damping scheme (D30)


XCFun DFT library Copyright 2009-2010 Ulf Ekstrom and contributors.
See http://admol.org/xcfun for more information.
This is free software; see the source code for copying conditions.
There is ABSOLUTELY NO WARRANTY; not even for MERCHANTABILITY or FITNESS FOR A PARTICULAR PURPOSE.
For details see the documentation.
Scientific users of this library should cite U. Ekstrom, L. Visscher, R. Bast, A. J. Thorvaldsen and K. Ruud;
J.Chem.Theor.Comp. 2010, DOI: 10.1021/ct100117s
XCFun Version 0.99 

Warning: RI is on but no J-basis has been assigned. Assigning Def2/J (nothing to worry about!)
================================================================================

----- Orbital basis set information -----
Your calculation utilizes the basis: def2-TZVP
   F. Weigend and R. Ahlrichs, Phys. Chem. Chem. Phys. 7, 3297 (2005).

----- AuxJ basis set information -----
Your calculation utilizes the auxiliary basis: def2/J
   F. Weigend, Phys. Chem. Chem. Phys. 8, 1057 (2006).

================================================================================
                                        WARNINGS
                       Please study these warnings very carefully!
================================================================================

WARNING: Functional chosen is sensitive to the integration grid.
         DEFGRID3 seems to be a minimum grid for robust results!

================================================================================
                                       INPUT FILE
================================================================================
NAME = data/single_point_P_M06-2x/83681/83681.inp
|  1> ! RIJCOSX M062X def2-TZVP D3ZERO NormalSCF
|  2> %pal
|  3> nprocs 6
|  4> end
|  5> 
|  6> * xyz 0 1
|  7>   C          -0.68534807616171     -1.71785284704540      1.57115005651116
|  8>   C          -1.25509167063904     -1.28508804240616      0.20828981106010
|  9>   C          -2.68476701257476     -0.74303232740760      0.41917749748109
| 10>   C          -1.40895315782917     -2.52096225643627     -0.71082879727316
| 11>   P          -0.23480500664742      0.02183942860476     -0.81253407681937
| 12>   C          -0.48501197456287      1.74238195701970      0.06096763858436
| 13>   C          -1.83206215194661      2.29622928534607     -0.46415228452597
| 14>   C          -0.48246476246831      1.76268763064782      1.59960864037469
| 15>   C           0.59564200071743      2.71762316936434     -0.45125988365717
| 16>   C           1.64376136455093     -0.44789050800511     -0.60832150299755
| 17>   C           2.30462714827996     -0.14378809728174      0.74793924479041
| 18>   C           2.39923058813910      0.29804026875416     -1.73486612774917
| 19>   C           1.81326255841383     -1.95044523245195     -0.91696628514520
| 20>   H           0.28792051212777     -2.23607207448696      1.47765602344538
| 21>   H          -1.38621273577186     -2.43271394231153      2.05714997082017
| 22>   H          -0.55296208098370     -0.86345642151426      2.26063618836832
| 23>   H          -2.73094080452503      0.08172005212177      1.15457386160881
| 24>   H          -3.13730899101023     -0.39347011983603     -0.53078996649570
| 25>   H          -3.32433385890634     -1.56427669373593      0.80955092508163
| 26>   H          -0.46029352883805     -3.05754394102738     -0.88400603559870
| 27>   H          -1.82032920767921     -2.23257215592125     -1.69924293307912
| 28>   H          -2.11528162021572     -3.24090631708712     -0.24215813449609
| 29>   H          -2.70722979849280      1.73375408075367     -0.09577852853602
| 30>   H          -1.86233636506025      2.28439161765965     -1.57243246932823
| 31>   H          -1.95134033606298      3.34987816075452     -0.12883677613326
| 32>   H           0.46894238907411      1.39322924820085      2.02586384962606
| 33>   H          -1.30573496521873      1.16161091608504      2.02962306746412
| 34>   H          -0.62363732013590      2.80691683480718      1.95756608667242
| 35>   H           0.65201050676720      2.72434787728167     -1.55858724116307
| 36>   H           1.60220120103233      2.49661741415158     -0.05002947203354
| 37>   H           0.33217878450574      3.74706415857033     -0.12491210018007
| 38>   H           3.36352230593776     -0.48546362757414      0.73045266694647
| 39>   H           1.80308630299835     -0.66169018637162      1.58642694993401
| 40>   H           2.31972466040493      0.93879068081426      0.97603015816774
| 41>   H           2.43177432974580      1.39144181524483     -1.58832879792332
| 42>   H           1.93578898280999      0.10100038566400     -2.72266594908542
| 43>   H           3.45067572570648     -0.06255151383135     -1.77104250326894
| 44>   H           1.40517024550854     -2.60259941932802     -0.12270171908753
| 45>   H           2.89798240005327     -2.17854321830340     -1.00243129786992
| 46>   H           1.33894141895718     -2.22864803948299     -1.87978875449042
| 47> **                         ****END OF INPUT****
================================================================================

                       ****************************
                       * Single Point Calculation *
                       ****************************

---------------------------------
CARTESIAN COORDINATES (ANGSTROEM)
---------------------------------
  C     -0.685348   -1.717853    1.571150
  C     -1.255092   -1.285088    0.208290
  C     -2.684767   -0.743032    0.419177
  C     -1.408953   -2.520962   -0.710829
  P     -0.234805    0.021839   -0.812534
  C     -0.485012    1.742382    0.060968
  C     -1.832062    2.296229   -0.464152
  C     -0.482465    1.762688    1.599609
  C      0.595642    2.717623   -0.451260
  C      1.643761   -0.447891   -0.608322
  C      2.304627   -0.143788    0.747939
  C      2.399231    0.298040   -1.734866
  C      1.813263   -1.950445   -0.916966
  H      0.287921   -2.236072    1.477656
  H     -1.386213   -2.432714    2.057150
  H     -0.552962   -0.863456    2.260636
  H     -2.730941    0.081720    1.154574
  H     -3.137309   -0.393470   -0.530790
  H     -3.324334   -1.564277    0.809551
  H     -0.460294   -3.057544   -0.884006
  H     -1.820329   -2.232572   -1.699243
  H     -2.115282   -3.240906   -0.242158
  H     -2.707230    1.733754   -0.095779
  H     -1.862336    2.284392   -1.572432
  H     -1.951340    3.349878   -0.128837
  H      0.468942    1.393229    2.025864
  H     -1.305735    1.161611    2.029623
  H     -0.623637    2.806917    1.957566
  H      0.652011    2.724348   -1.558587
  H      1.602201    2.496617   -0.050029
  H      0.332179    3.747064   -0.124912
  H      3.363522   -0.485464    0.730453
  H      1.803086   -0.661690    1.586427
  H      2.319725    0.938791    0.976030
  H      2.431774    1.391442   -1.588329
  H      1.935789    0.101000   -2.722666
  H      3.450676   -0.062552   -1.771043
  H      1.405170   -2.602599   -0.122702
  H      2.897982   -2.178543   -1.002431
  H      1.338941   -2.228648   -1.879789

----------------------------
CARTESIAN COORDINATES (A.U.)
----------------------------
  NO LB      ZA    FRAG     MASS         X           Y           Z
   0 C     6.0000    0    12.011   -1.295120   -3.246271    2.969043
   1 C     6.0000    0    12.011   -2.371780   -2.428464    0.393611
   2 C     6.0000    0    12.011   -5.073474   -1.404128    0.792131
   3 C     6.0000    0    12.011   -2.662536   -4.763928   -1.343272
   4 P    15.0000    0    30.974   -0.443717    0.041271   -1.535467
   5 C     6.0000    0    12.011   -0.916540    3.292625    0.115212
   6 C     6.0000    0    12.011   -3.462096    4.339244   -0.877121
   7 C     6.0000    0    12.011   -0.911726    3.330997    3.022822
   8 C     6.0000    0    12.011    1.125600    5.135564   -0.852758
   9 C     6.0000    0    12.011    3.106259   -0.846390   -1.149561
  10 C     6.0000    0    12.011    4.355114   -0.271720    1.413400
  11 C     6.0000    0    12.011    4.533889    0.563214   -3.278422
  12 C     6.0000    0    12.011    3.426570   -3.685807   -1.732815
  13 H     1.0000    0     1.008    0.544091   -4.225564    2.792365
  14 H     1.0000    0     1.008   -2.619562   -4.597163    3.887450
  15 H     1.0000    0     1.008   -1.044947   -1.631696    4.271983
  16 H     1.0000    0     1.008   -5.160730    0.154429    2.181828
  17 H     1.0000    0     1.008   -5.928655   -0.743551   -1.003048
  18 H     1.0000    0     1.008   -6.282081   -2.956055    1.529830
  19 H     1.0000    0     1.008   -0.869829   -5.777921   -1.670529
  20 H     1.0000    0     1.008   -3.439924   -4.218950   -3.211104
  21 H     1.0000    0     1.008   -3.997303   -6.124425   -0.457613
  22 H     1.0000    0     1.008   -5.115923    3.276320   -0.180995
  23 H     1.0000    0     1.008   -3.519306    4.316875   -2.971467
  24 H     1.0000    0     1.008   -3.687499    6.330352   -0.243466
  25 H     1.0000    0     1.008    0.886173    2.632822    3.828328
  26 H     1.0000    0     1.008   -2.467481    2.195127    3.835432
  27 H     1.0000    0     1.008   -1.178504    5.304304    3.699264
  28 H     1.0000    0     1.008    1.232121    5.148271   -2.945303
  29 H     1.0000    0     1.008    3.027721    4.717923   -0.094542
  30 H     1.0000    0     1.008    0.627727    7.080925   -0.236050
  31 H     1.0000    0     1.008    6.356136   -0.917393    1.380355
  32 H     1.0000    0     1.008    3.407339   -1.250413    2.997912
  33 H     1.0000    0     1.008    4.383644    1.774057    1.844430
  34 H     1.0000    0     1.008    4.595388    2.629444   -3.001506
  35 H     1.0000    0     1.008    3.658111    0.190863   -5.145093
  36 H     1.0000    0     1.008    6.520832   -0.118205   -3.346785
  37 H     1.0000    0     1.008    2.655387   -4.918200   -0.231873
  38 H     1.0000    0     1.008    5.476393   -4.116850   -1.894321
  39 H     1.0000    0     1.008    2.530233   -4.211534   -3.552286

--------------------------------
INTERNAL COORDINATES (ANGSTROEM)
--------------------------------
 C      0   0   0     0.000000000000     0.00000000     0.00000000
 C      1   0   0     1.539246954914     0.00000000     0.00000000
 C      2   1   0     1.543460267641   108.70048253     0.00000000
 C      2   1   3     1.547849297034   109.75906651   244.92047166
 P      2   1   3     1.947081328879   117.32022710   123.82325470
 C      5   2   1     1.945732603852   106.90513542   286.02997723
 C      6   5   2     1.548238346357   106.01820718   277.38571162
 C      6   5   2     1.538777092714   117.40957940    40.23909108
 C      6   5   2     1.543141429386   108.64907248   164.17858149
 C      5   2   1     1.947141648584   106.77661169    40.14215964
 C     10   5   2     1.539046807703   117.32464446   286.16942021
 C     10   5   2     1.547982320010   106.15724739   163.20756842
 C     10   5   2     1.543263735149   108.65487580    49.97184580
 H      1   2   3     1.106591183256   112.48289046   172.68070655
 H      1   2   3     1.112849303960   109.52161495    54.01376128
 H      1   2   3     1.105852806527   112.27976296   294.76750642
 H      3   2   1     1.105963977250   113.04299012    55.86435663
 H      3   2   1     1.108794914230   111.82098871   178.68613434
 H      3   2   1     1.111701161792   108.74966369   297.10875338
 H      4   2   1     1.103569368817   113.32560612   301.36492960
 H      4   2   1     1.108765804093   111.01140595   179.89664264
 H      4   2   1     1.112147264256   109.25464157    60.94219373
 H      7   6   5     1.103628555921   113.22949059    69.61292473
 H      7   6   5     1.108756793161   111.03658266   308.11390150
 H      7   6   5     1.112132963285   109.26680087   189.12462955
 H      8   6   5     1.106059929561   112.48016646    60.09238123
 H      8   6   5     1.106336047967   112.34903011   297.98617048
 H      8   6   5     1.112869199510   109.49936399   179.38927342
 H      9   6   5     1.108781541536   111.77344880    49.78333653
 H      9   6   5     1.105889149412   112.99589338   287.05472095
 H      9   6   5     1.111604467576   108.77437767   168.24428111
 H     11  10   5     1.112792390033   109.51689531   178.59140135
 H     11  10   5     1.105815276186   112.38970527    59.25690580
 H     11  10   5     1.106449370926   112.38642182   297.24582451
 H     12  10   5     1.103657204941   113.27591457    69.66699258
 H     12  10   5     1.108761166397   111.02232822   308.13534067
 H     12  10   5     1.112147490726   109.19790186   189.19801811
 H     13  10   5     1.105757939247   112.95646537   287.55961099
 H     13  10   5     1.111732924041   108.80208222   168.75321187
 H     13  10   5     1.108785124653   111.77554399    50.30852347

---------------------------
INTERNAL COORDINATES (A.U.)
---------------------------
 C      0   0   0     0.000000000000     0.00000000     0.00000000
 C      1   0   0     2.908755197260     0.00000000     0.00000000
 C      2   1   0     2.916717204430   108.70048253     0.00000000
 C      2   1   3     2.925011267977   109.75906651   244.92047166
 P      2   1   3     3.679450472052   117.32022710   123.82325470
 C      5   2   1     3.676901751121   106.90513542   286.02997723
 C      6   5   2     2.925746464650   106.01820718   277.38571162
 C      6   5   2     2.907867286381   117.40957940    40.23909108
 C      6   5   2     2.916114687447   108.64907248   164.17858149
 C      5   2   1     3.679564459776   106.77661169    40.14215964
 C     10   5   2     2.908376973845   117.32464446   286.16942021
 C     10   5   2     2.925262644970   106.15724739   163.20756842
 C     10   5   2     2.916345811844   108.65487580    49.97184580
 H      1   2   3     2.091154278566   112.48289046   172.68070655
 H      1   2   3     2.102980412809   109.52161495    54.01376128
 H      1   2   3     2.089758948764   112.27976296   294.76750642
 H      3   2   1     2.089969030985   113.04299012    55.86435663
 H      3   2   1     2.095318726580   111.82098871   178.68613434
 H      3   2   1     2.100810738548   108.74966369   297.10875338
 H      4   2   1     2.085443876848   113.32560612   301.36492960
 H      4   2   1     2.095263716393   111.01140595   179.89664264
 H      4   2   1     2.101653750033   109.25464157    60.94219373
 H      7   6   5     2.085555724266   113.22949059    69.61292473
 H      7   6   5     2.095246688200   111.03658266   308.11390150
 H      7   6   5     2.101626725114   109.26680087   189.12462955
 H      8   6   5     2.090150354574   112.48016646    60.09238123
 H      8   6   5     2.090672142742   112.34903011   297.98617048
 H      8   6   5     2.103018009950   109.49936399   179.38927342
 H      9   6   5     2.095293455851   111.77344880    49.78333653
 H      9   6   5     2.089827626864   112.99589338   287.05472095
 H      9   6   5     2.100628012962   108.77437767   168.24428111
 H     11  10   5     2.102872861075   109.51689531   178.59140135
 H     11  10   5     2.089688026698   112.38970527    59.25690580
 H     11  10   5     2.090886292099   112.38642182   297.24582451
 H     12  10   5     2.085609863068   113.27591457    69.66699258
 H     12  10   5     2.095254952418   111.02232822   308.13534067
 H     12  10   5     2.101654178000   109.19790186   189.19801811
 H     13  10   5     2.089579675585   112.95646537   287.55961099
 H     13  10   5     2.100870760500   108.80208222   168.75321187
 H     13  10   5     2.095300226960   111.77554399    50.30852347

---------------------
BASIS SET INFORMATION
---------------------
There are 3 groups of distinct atoms

 Group   1 Type C   : 11s6p2d1f contracted to 5s3p2d1f pattern {62111/411/11/1}
 Group   2 Type P   : 14s9p3d1f contracted to 5s5p2d1f pattern {73211/51111/21/1}
 Group   3 Type H   : 5s1p contracted to 3s1p pattern {311/1}

Atom   0C    basis set group =>   1
Atom   1C    basis set group =>   1
Atom   2C    basis set group =>   1
Atom   3C    basis set group =>   1
Atom   4P    basis set group =>   2
Atom   5C    basis set group =>   1
Atom   6C    basis set group =>   1
Atom   7C    basis set group =>   1
Atom   8C    basis set group =>   1
Atom   9C    basis set group =>   1
Atom  10C    basis set group =>   1
Atom  11C    basis set group =>   1
Atom  12C    basis set group =>   1
Atom  13H    basis set group =>   3
Atom  14H    basis set group =>   3
Atom  15H    basis set group =>   3
Atom  16H    basis set group =>   3
Atom  17H    basis set group =>   3
Atom  18H    basis set group =>   3
Atom  19H    basis set group =>   3
Atom  20H    basis set group =>   3
Atom  21H    basis set group =>   3
Atom  22H    basis set group =>   3
Atom  23H    basis set group =>   3
Atom  24H    basis set group =>   3
Atom  25H    basis set group =>   3
Atom  26H    basis set group =>   3
Atom  27H    basis set group =>   3
Atom  28H    basis set group =>   3
Atom  29H    basis set group =>   3
Atom  30H    basis set group =>   3
Atom  31H    basis set group =>   3
Atom  32H    basis set group =>   3
Atom  33H    basis set group =>   3
Atom  34H    basis set group =>   3
Atom  35H    basis set group =>   3
Atom  36H    basis set group =>   3
Atom  37H    basis set group =>   3
Atom  38H    basis set group =>   3
Atom  39H    basis set group =>   3
---------------------------------
AUXILIARY/J BASIS SET INFORMATION
---------------------------------
There are 3 groups of distinct atoms

 Group   1 Type C   : 12s5p4d2f1g contracted to 6s4p3d1f1g pattern {711111/2111/211/2/1}
 Group   2 Type P   : 14s5p5d2f1g contracted to 8s4p3d1f1g pattern {71111111/2111/311/2/1}
 Group   3 Type H   : 5s2p1d contracted to 3s1p1d pattern {311/2/1}

Atom   0C    basis set group =>   1
Atom   1C    basis set group =>   1
Atom   2C    basis set group =>   1
Atom   3C    basis set group =>   1
Atom   4P    basis set group =>   2
Atom   5C    basis set group =>   1
Atom   6C    basis set group =>   1
Atom   7C    basis set group =>   1
Atom   8C    basis set group =>   1
Atom   9C    basis set group =>   1
Atom  10C    basis set group =>   1
Atom  11C    basis set group =>   1
Atom  12C    basis set group =>   1
Atom  13H    basis set group =>   3
Atom  14H    basis set group =>   3
Atom  15H    basis set group =>   3
Atom  16H    basis set group =>   3
Atom  17H    basis set group =>   3
Atom  18H    basis set group =>   3
Atom  19H    basis set group =>   3
Atom  20H    basis set group =>   3
Atom  21H    basis set group =>   3
Atom  22H    basis set group =>   3
Atom  23H    basis set group =>   3
Atom  24H    basis set group =>   3
Atom  25H    basis set group =>   3
Atom  26H    basis set group =>   3
Atom  27H    basis set group =>   3
Atom  28H    basis set group =>   3
Atom  29H    basis set group =>   3
Atom  30H    basis set group =>   3
Atom  31H    basis set group =>   3
Atom  32H    basis set group =>   3
Atom  33H    basis set group =>   3
Atom  34H    basis set group =>   3
Atom  35H    basis set group =>   3
Atom  36H    basis set group =>   3
Atom  37H    basis set group =>   3
Atom  38H    basis set group =>   3
Atom  39H    basis set group =>   3


           ************************************************************
           *        Program running with 6 parallel MPI-processes     *
           *              working on a common directory               *
           ************************************************************
------------------------------------------------------------------------------
                             ORCA STARTUP CALCULATIONS
                           -- RI-GTO INTEGRALS CHOSEN --
------------------------------------------------------------------------------
------------------------------------------------------------------------------
                   ___                                                        
                  /   \      - P O W E R E D   B Y -                         
                 /     \                                                     
                 |  |  |   _    _      __       _____    __    __             
                 |  |  |  | |  | |    /  \     |  _  \  |  |  /  |          
                  \  \/   | |  | |   /    \    | | | |  |  | /  /          
                 / \  \   | |__| |  /  /\  \   | |_| |  |  |/  /          
                |  |  |   |  __  | /  /__\  \  |    /   |      \           
                |  |  |   | |  | | |   __   |  |    \   |  |\   \          
                \     /   | |  | | |  |  |  |  | |\  \  |  | \   \       
                 \___/    |_|  |_| |__|  |__|  |_| \__\ |__|  \__/        
                                                                              
                      - O R C A' S   B I G   F R I E N D -                    
                                      &                                       
                       - I N T E G R A L  F E E D E R -                       
                                                                              
 v1 FN, 2020, v2 2021, v3 2022-2024                                           
------------------------------------------------------------------------------


----------------------
SHARK INTEGRAL PACKAGE
----------------------

Number of atoms                             ...     40
Number of basis functions                   ...    571
Number of shells                            ...    253
Maximum angular momentum                    ...      3
Integral batch strategy                     ... SHARK/LIBINT Hybrid
RI-J (if used) integral strategy            ... SPLIT-RIJ (Revised 2003 algorithm where possible)
Printlevel                                  ...      1
Contraction scheme used                     ... SEGMENTED contraction
Prescreening option                         ... SCHWARTZ
   Thresh                                   ... 1.000e-10
   Tcut                                     ... 1.000e-11
   Tpresel                                  ... 1.000e-11 
Coulomb Range Separation                    ... NOT USED
Exchange Range Separation                   ... NOT USED
Multipole approximations                    ... NOT USED
Finite Nucleus Model                        ... NOT USED
CABS basis                                  ... NOT available
Auxiliary Coulomb fitting basis             ... AVAILABLE
   # of basis functions in Aux-J            ...    936
   # of shells in Aux-J                     ...    332
   Maximum angular momentum in Aux-J        ...      4
Auxiliary J/K fitting basis                 ... NOT available
Auxiliary Correlation fitting basis         ... NOT available
Auxiliary 'external' fitting basis          ... NOT available

Checking pre-screening integrals            ... done (  0.0 sec) Dimension = 253
Check shell pair data                       ... done (  0.0 sec)
Shell pair information
Shell pair cut-off parameter TPreSel        ...   1.0e-11
Total number of shell pairs                 ...     32131
Shell pairs after pre-screening             ...     27007
Total number of primitive shell pairs       ...     92616
Primitive shell pairs kept                  ...     54600
          la=0 lb=0:   8813 shell pairs
          la=1 lb=0:   8295 shell pairs
          la=1 lb=1:   1987 shell pairs
          la=2 lb=0:   3300 shell pairs
          la=2 lb=1:   1560 shell pairs
          la=2 lb=2:    327 shell pairs
          la=3 lb=0:   1581 shell pairs
          la=3 lb=1:    756 shell pairs
          la=3 lb=2:    302 shell pairs
          la=3 lb=3:     86 shell pairs

Calculating one electron integrals          ... done (  0.0 sec)
Calculating RI/J V-Matrix + Cholesky decomp.... done (  0.0 sec)
Calculating Nuclear repulsion               ... done (  0.0 sec) ENN=   1072.666108030226 Eh

Diagonalization of the overlap matrix:
Smallest eigenvalue                        ... 1.433e-04
Time for diagonalization                   ...    0.052 sec
Threshold for overlap eigenvalues          ... 1.000e-07
Number of eigenvalues below threshold      ... 0
Time for construction of square roots      ...    0.027 sec
Total time needed                          ...    0.083 sec

-------------------
DFT GRID GENERATION
-------------------

General Integration Accuracy     IntAcc      ... 4.388
Radial Grid Type                 RadialGrid  ... OptM3 with GC (2021)
Angular Grid (max. ang.)         AngularGrid ... 4 (Lebedev-302)
Angular grid pruning method      GridPruning ... 4 (adaptive)
Weight generation scheme         WeightScheme... mBecke (2022)
Basis function cutoff            BFCut       ... 1.0000e-10
Integration weight cutoff        WCut        ... 1.0000e-14
Partially contracted basis set               ... off
Rotationally invariant grid construction     ... off
Angular grids for H and He will be reduced by one unit

Total number of grid points                  ...   163259
Total number of batches                      ...     2571
Average number of points per batch           ...       63
Average number of grid points per atom       ...     4081

--------------------
COSX GRID GENERATION
--------------------

GRIDX 1
-------
General Integration Accuracy     IntAcc      ... 3.816
Radial Grid Type                 RadialGrid  ... OptM3 with GC (2021)
Angular Grid (max. ang.)         AngularGrid ... 1 (Lebedev-50)
Angular grid pruning method      GridPruning ... 4 (adaptive)
Weight generation scheme         WeightScheme... mBecke (2022)
Basis function cutoff            BFCut       ... 1.0000e-10
Integration weight cutoff        WCut        ... 1.0000e-14
Partially contracted basis set               ... on
Rotationally invariant grid construction     ... off
Angular grids for H and He will be reduced by one unit

Total number of grid points                  ...    21794
Total number of batches                      ...      187
Average number of points per batch           ...      116
Average number of grid points per atom       ...      545
UseSFitting                                  ... on

GRIDX 2
-------
General Integration Accuracy     IntAcc      ... 4.020
Radial Grid Type                 RadialGrid  ... OptM3 with GC (2021)
Angular Grid (max. ang.)         AngularGrid ... 2 (Lebedev-110)
Angular grid pruning method      GridPruning ... 4 (adaptive)
Weight generation scheme         WeightScheme... mBecke (2022)
Basis function cutoff            BFCut       ... 1.0000e-10
Integration weight cutoff        WCut        ... 1.0000e-14
Partially contracted basis set               ... on
Rotationally invariant grid construction     ... off
Angular grids for H and He will be reduced by one unit

Total number of grid points                  ...    42298
Total number of batches                      ...      348
Average number of points per batch           ...      121
Average number of grid points per atom       ...     1057
UseSFitting                                  ... on

GRIDX 3
-------
General Integration Accuracy     IntAcc      ... 4.338
Radial Grid Type                 RadialGrid  ... OptM3 with GC (2021)
Angular Grid (max. ang.)         AngularGrid ... 3 (Lebedev-194)
Angular grid pruning method      GridPruning ... 4 (adaptive)
Weight generation scheme         WeightScheme... mBecke (2022)
Basis function cutoff            BFCut       ... 1.0000e-10
Integration weight cutoff        WCut        ... 1.0000e-14
Partially contracted basis set               ... on
Rotationally invariant grid construction     ... off
Angular grids for H and He will be reduced by one unit

Total number of grid points                  ...    91797
Total number of batches                      ...      736
Average number of points per batch           ...      124
Average number of grid points per atom       ...     2295
UseSFitting                                  ... on
Initializing property integral containers    ... done (  0.0 sec)

SHARK setup successfully completed in   3.4 seconds

Maximum memory used throughout the entire STARTUP-calculation: 64.8 MB


           ************************************************************
           *        Program running with 6 parallel MPI-processes     *
           *              working on a common directory               *
           ************************************************************
-------------------------------------------------------------------------------
                                 ORCA GUESS
                   Start orbitals & Density for SCF / CASSCF
-------------------------------------------------------------------------------

------------
SCF SETTINGS
------------
Hamiltonian:
 Density Functional     Method          .... DFT(GTOs)
 Exchange Functional    Exchange        .... M062X
 Correlation Functional Correlation     .... M062X
 Gradients option       PostSCFGGA      .... off
 Hybrid DFT is turned on
   Fraction HF Exchange ScalHFX         ....  0.540000
   Scaling of DF-GGA-X  ScalDFX         ....  0.460000
   Scaling of DF-GGA-C  ScalDFC         ....  1.000000
   Scaling of DF-LDA-C  ScalLDAC        ....  1.000000
   Perturbative correction              ....  0.000000
 RI-approximation to the Coulomb term is turned on
   Number of AuxJ basis functions       .... 936
   RIJ-COSX (HFX calculated with COS-X)).... on


General Settings:
 Integral files         IntName         .... data/single_point_P_M06-2x/83681/83681
 Hartree-Fock type      HFTyp           .... RHF
 Total Charge           Charge          ....    0
 Multiplicity           Mult            ....    1
 Number of Electrons    NEL             ....  114
 Basis Dimension        Dim             ....  571
 Nuclear Repulsion      ENuc            ....   1072.6661080302 Eh

Convergence Acceleration:
 AO-DIIS                CNVDIIS         .... on
   Start iteration      DIISMaxIt       ....    12
   Startup error        DIISStart       ....  0.200000
   # of expansion vecs  DIISMaxEq       ....     5
   Bias factor          DIISBfac        ....   1.050
   Max. coefficient     DIISMaxC        ....  10.000
 MO-DIIS                CNVKDIIS        .... off
 Trust-Rad. Augm. Hess. CNVTRAH         .... auto
   Auto Start mean grad. ratio tolernc. ....  1.125000
   Auto Start start iteration           ....    50
   Auto Start num. interpolation iter.  ....    10
   Max. Number of Micro iterations      ....    24
   Max. Number of Macro iterations      .... Maxiter - #DIIS iter
   Number of Davidson start vectors     ....     2
   Converg. threshold    (grad. norm)   ....   5.000e-05
   Grad. Scal. Fac. for Micro threshold ....   0.100
   Minimum threshold for Micro iter.    ....   1.000e-02
   NR start threshold (gradient norm)   ....   1.000e-04
   Initial trust radius                 ....   0.400
   Minimum AH scaling param. (alpha)    ....   1.000
   Maximum AH scaling param. (alpha)    .... 1000.000
   Quad. conv. algorithm                .... NR
   White noise on init. David. guess    .... on
   Maximum white noise                  ....   0.010
   Pseudo random numbers                .... off
   Inactive MOs                         .... canonical
   Orbital update algorithm             .... Taylor
   Preconditioner                       .... Diag
   Full preconditioner red. dimension   ....   250
 SOSCF                  CNVSOSCF        .... on
   Start iteration      SOSCFMaxIt      ....   150
   Startup grad/error   SOSCFStart      ....  0.003300
   Hessian update       SOSCFHessUp     .... L-BFGS
 Level Shifting         CNVShift        .... on
   Level shift para.    LevelShift      ....    0.2500
   Turn off err/grad.   ShiftErr        ....    0.0010
 Zerner damping         CNVZerner       .... off
 Static damping         CNVDamp         .... on
   Fraction old density DampFac         ....    0.7000
   Max. Damping (<1)    DampMax         ....    0.9800
   Min. Damping (>=0)   DampMin         ....    0.0000
   Turn off err/grad.   DampErr         ....    0.1000

SCF Procedure:
 Maximum # iterations   MaxIter         ....   125
 SCF integral mode      SCFMode         .... Direct
   Integral package                     .... SHARK and LIBINT hybrid scheme
 Reset frequency        DirectResetFreq ....    20
 Integral Threshold     Thresh          ....  1.000e-10 Eh
 Primitive CutOff       TCut            ....  1.000e-11 Eh

Convergence Tolerance:
 Convergence Check Mode ConvCheckMode   .... Total+1el-Energy
 Convergence forced     ConvForced      .... 0
 Energy Change          TolE            ....  1.000e-06 Eh
 1-El. energy change                    ....  1.000e-03 Eh
 Orbital Gradient       TolG            ....  5.000e-05
 Orbital Rotation angle TolX            ....  5.000e-05
 DIIS Error             TolErr          ....  1.000e-05

------------------------------
INITIAL GUESS: MODEL POTENTIAL
------------------------------
Loading Hartree-Fock densities                     ... done
Calculating cut-offs                               ... done
Initializing the effective Hamiltonian             ... done
Setting up the integral package (SHARK)            ... done
Starting the Coulomb interaction                   ... done (   0.4 sec)
Making the grid                                    ... done (   0.3 sec)
Mapping shells                                     ... done
Starting the XC term evaluation                    ... done (   0.4 sec)
  promolecular density results
     # of electrons  =    114.001011973
     EX              =    -91.797615988
     EC              =     -3.825356419
     EX+EC           =    -95.622972407
Transforming the Hamiltonian                       ... done (   0.0 sec)
Diagonalizing the Hamiltonian                      ... done (   0.1 sec)
Back transforming the eigenvectors                 ... done (   0.0 sec)
Now organizing SCF variables                       ... done
                      ------------------
                      INITIAL GUESS DONE (   1.2 sec)
                      ------------------
             **** ENERGY FILE WAS UPDATED (data/single_point_P_M06-2x/83681/83681.en.tmp) ****
Finished Guess after   1.3 sec
Maximum memory used throughout the entire GUESS-calculation: 45.0 MB


           ************************************************************
           *        Program running with 6 parallel MPI-processes     *
           *              working on a common directory               *
           ************************************************************

-------------------------------------------------------------------------------------------
                                      ORCA LEAN-SCF
                              memory conserving SCF solver
-------------------------------------------------------------------------------------------

----------------------------------------D-I-I-S--------------------------------------------
Iteration    Energy (Eh)           Delta-E    RMSDP     MaxDP     DIISErr   Damp  Time(sec)
-------------------------------------------------------------------------------------------
               ***  Starting incremental Fock matrix formation  ***
    1    -814.2837105184669326     0.00e+00  1.11e-03  4.84e-02  1.79e-01  0.700  12.4
    2    -814.5078711301503063    -2.24e-01  8.66e-04  3.54e-02  1.00e-01  0.700   7.0
                               ***Turning on AO-DIIS***
    3    -814.6111655001170675    -1.03e-01  4.81e-04  2.38e-02  4.48e-02  0.700   6.8
    4    -814.6704913277512787    -5.93e-02  1.03e-03  5.43e-02  2.58e-02  0.000   6.9
    5    -814.7961952103678414    -1.26e-01  1.28e-04  9.45e-03  3.52e-03  0.000   7.3
                              *** Initializing SOSCF ***
---------------------------------------S-O-S-C-F--------------------------------------
Iteration    Energy (Eh)           Delta-E    RMSDP     MaxDP     MaxGrad    Time(sec)
--------------------------------------------------------------------------------------
    6    -814.7964896485495956    -2.94e-04  5.09e-05  2.01e-03  1.29e-03     5.9
               *** Restarting incremental Fock matrix formation ***
    7    -814.7965311576845124    -4.15e-05  4.12e-05  3.24e-03  3.10e-04    11.2
    8    -814.7965357331688665    -4.58e-06  1.85e-05  1.07e-03  9.80e-05     8.3
    9    -814.7965370882022853    -1.36e-06  8.84e-06  3.37e-04  3.41e-05     7.4
   10    -814.7965372882399606    -2.00e-07  1.49e-06  7.17e-05  9.24e-06     7.0
                 **** Energy Check signals convergence ****

               *****************************************************
               *                     SUCCESS                       *
               *           SCF CONVERGED AFTER  10 CYCLES          *
               *****************************************************

Recomputing exchange energy using gridx3       ... done (   17.187 sec)
Old exchange energy                            :    -50.929730624 Eh
New exchange energy                            :    -50.929727293 Eh
Exchange energy change after final integration :      0.000003331 Eh
Total energy after final integration           :   -814.796533957 Eh
             **** ENERGY FILE WAS UPDATED (data/single_point_P_M06-2x/83681/83681.en.tmp) ****

----------------
TOTAL SCF ENERGY
----------------

Total Energy       :       -814.79653395745140 Eh          -22171.74088 eV

Components:
Nuclear Repulsion  :       1072.66610803022604 Eh           29188.72873 eV
Electronic Energy  :      -1887.46264531846600 Eh          -51360.46969 eV
One Electron Energy:      -3240.92072241290771 Eh          -88189.93635 eV
Two Electron Energy:       1353.45807709444171 Eh           36829.46665 eV

Virial components:
Potential Energy   :      -1625.55745497353564 Eh          -44233.66715 eV
Kinetic Energy     :        810.76092101608424 Eh           22061.92627 eV
Virial Ratio       :          2.00497756223414

DFT components:
N(Alpha)           :       56.999841197928 electrons
N(Beta)            :       56.999841197928 electrons
N(Total)           :      113.999682395856 electrons
E(XC)              :      -47.252915830090 Eh       

---------------
SCF CONVERGENCE
---------------

  Last Energy change         ...    2.0004e-07  Tolerance :   1.0000e-06
  Last MAX-Density change    ...    7.1736e-05  Tolerance :   1.0000e-05
  Last RMS-Density change    ...    1.4882e-06  Tolerance :   1.0000e-06
  Last DIIS Error            ...    1.2893e-03  Tolerance :   1.0000e-05
  Last Orbital Gradient      ...    9.2382e-06  Tolerance :   5.0000e-05
  Last Orbital Rotation      ...    1.6117e-05  Tolerance :   5.0000e-05


----------------
ORBITAL ENERGIES
----------------

  NO   OCC          E(Eh)            E(eV) 
   0   2.0000     -78.013155     -2122.8459 
   1   2.0000     -10.557035      -287.2715 
   2   2.0000     -10.556931      -287.2687 
   3   2.0000     -10.556909      -287.2681 
   4   2.0000     -10.530636      -286.5532 
   5   2.0000     -10.530578      -286.5516 
   6   2.0000     -10.530532      -286.5504 
   7   2.0000     -10.529834      -286.5314 
   8   2.0000     -10.529826      -286.5311 
   9   2.0000     -10.529719      -286.5282 
  10   2.0000     -10.525524      -286.4141 
  11   2.0000     -10.525501      -286.4135 
  12   2.0000     -10.525488      -286.4131 
  13   2.0000      -6.828216      -185.8052 
  14   2.0000      -4.942520      -134.4928 
  15   2.0000      -4.942030      -134.4795 
  16   2.0000      -4.942019      -134.4792 
  17   2.0000      -0.919684       -25.0259 
  18   2.0000      -0.897058       -24.4102 
  19   2.0000      -0.896968       -24.4077 
  20   2.0000      -0.781396       -21.2629 
  21   2.0000      -0.775441       -21.1008 
  22   2.0000      -0.775400       -21.0997 
  23   2.0000      -0.768504       -20.9121 
  24   2.0000      -0.768419       -20.9097 
  25   2.0000      -0.758616       -20.6430 
  26   2.0000      -0.703830       -19.1522 
  27   2.0000      -0.619306       -16.8522 
  28   2.0000      -0.619181       -16.8488 
  29   2.0000      -0.583973       -15.8907 
  30   2.0000      -0.528806       -14.3895 
  31   2.0000      -0.528734       -14.3876 
  32   2.0000      -0.516239       -14.0476 
  33   2.0000      -0.509446       -13.8627 
  34   2.0000      -0.509271       -13.8580 
  35   2.0000      -0.491121       -13.3641 
  36   2.0000      -0.487842       -13.2749 
  37   2.0000      -0.487706       -13.2712 
  38   2.0000      -0.465259       -12.6603 
  39   2.0000      -0.454362       -12.3638 
  40   2.0000      -0.448799       -12.2125 
  41   2.0000      -0.448725       -12.2104 
  42   2.0000      -0.438535       -11.9331 
  43   2.0000      -0.438490       -11.9319 
  44   2.0000      -0.433447       -11.7947 
  45   2.0000      -0.426270       -11.5994 
  46   2.0000      -0.421299       -11.4641 
  47   2.0000      -0.421088       -11.4584 
  48   2.0000      -0.398775       -10.8512 
  49   2.0000      -0.398723       -10.8498 
  50   2.0000      -0.398398       -10.8410 
  51   2.0000      -0.384520       -10.4633 
  52   2.0000      -0.384439       -10.4611 
  53   2.0000      -0.366083        -9.9616 
  54   2.0000      -0.325726        -8.8635 
  55   2.0000      -0.325666        -8.8618 
  56   2.0000      -0.257993        -7.0203 
  57   0.0000       0.057967         1.5774 
  58   0.0000       0.071524         1.9463 
  59   0.0000       0.071713         1.9514 
  60   0.0000       0.087715         2.3868 
  61   0.0000       0.089618         2.4386 
  62   0.0000       0.089728         2.4416 
  63   0.0000       0.103372         2.8129 
  64   0.0000       0.111587         3.0364 
  65   0.0000       0.111786         3.0419 
  66   0.0000       0.114258         3.1091 
  67   0.0000       0.118346         3.2204 
*Only the first 10 virtual orbitals were printed.

                    ********************************
                    * MULLIKEN POPULATION ANALYSIS *
                    ********************************

-----------------------
MULLIKEN ATOMIC CHARGES
-----------------------
   0 C :   -0.464748
   1 C :   -0.021885
   2 C :   -0.521858
   3 C :   -0.447701
   4 P :    0.102958
   5 C :   -0.020438
   6 C :   -0.447065
   7 C :   -0.464992
   8 C :   -0.520063
   9 C :   -0.020909
  10 C :   -0.462829
  11 C :   -0.447518
  12 C :   -0.518949
  13 H :    0.140156
  14 H :    0.152080
  15 H :    0.170141
  16 H :    0.147550
  17 H :    0.182618
  18 H :    0.156015
  19 H :    0.159822
  20 H :    0.169340
  21 H :    0.143131
  22 H :    0.159501
  23 H :    0.169431
  24 H :    0.142669
  25 H :    0.169835
  26 H :    0.140173
  27 H :    0.152451
  28 H :    0.182495
  29 H :    0.146478
  30 H :    0.155886
  31 H :    0.152134
  32 H :    0.170278
  33 H :    0.139092
  34 H :    0.159233
  35 H :    0.169287
  36 H :    0.142686
  37 H :    0.146202
  38 H :    0.155503
  39 H :    0.181813
Sum of atomic charges:   -0.0000000

--------------------------------
MULLIKEN REDUCED ORBITAL CHARGES
--------------------------------
  0 C s       :     3.352127  s :     3.352127
      pz      :     0.932170  p :     3.051743
      px      :     1.058596
      py      :     1.060978
      dz2     :     0.010069  d :     0.057643
      dxz     :     0.009878
      dyz     :     0.020130
      dx2y2   :     0.004974
      dxy     :     0.012591
      f0      :     0.000702  f :     0.003235
      f+1     :     0.000495
      f-1     :     0.000551
      f+2     :     0.000493
      f-2     :     0.000499
      f+3     :     0.000105
      f-3     :     0.000390

  1 C s       :     3.080196  s :     3.080196
      pz      :     0.921301  p :     2.823084
      px      :     0.946037
      py      :     0.955746
      dz2     :     0.024069  d :     0.112062
      dxz     :     0.022962
      dyz     :     0.024048
      dx2y2   :     0.017224
      dxy     :     0.023758
      f0      :     0.001015  f :     0.006544
      f+1     :     0.000652
      f-1     :     0.001297
      f+2     :     0.000856
      f-2     :     0.001077
      f+3     :     0.000973
      f-3     :     0.000674

  2 C s       :     3.382191  s :     3.382191
      pz      :     1.067276  p :     3.078724
      px      :     0.920664
      py      :     1.090783
      dz2     :     0.005815  d :     0.057637
      dxz     :     0.015379
      dyz     :     0.012427
      dx2y2   :     0.008621
      dxy     :     0.015395
      f0      :     0.000404  f :     0.003306
      f+1     :     0.000371
      f-1     :     0.000367
      f+2     :     0.000458
      f-2     :     0.000439
      f+3     :     0.000760
      f-3     :     0.000507

  3 C s       :     3.349725  s :     3.349725
      pz      :     1.018723  p :     3.038162
      px      :     1.071829
      py      :     0.947610
      dz2     :     0.015897  d :     0.056545
      dxz     :     0.008814
      dyz     :     0.008867
      dx2y2   :     0.004661
      dxy     :     0.018305
      f0      :     0.000326  f :     0.003269
      f+1     :     0.000300
      f-1     :     0.000752
      f+2     :     0.000356
      f-2     :     0.000704
      f+3     :     0.000349
      f-3     :     0.000482

  4 P s       :     5.711608  s :     5.711608
      pz      :     3.379754  p :     8.961941
      px      :     2.816653
      py      :     2.765534
      dz2     :     0.020815  d :     0.202256
      dxz     :     0.027473
      dyz     :     0.049688
      dx2y2   :     0.059634
      dxy     :     0.044647
      f0      :     0.002222  f :     0.021236
      f+1     :     0.002072
      f-1     :     0.002862
      f+2     :     0.003818
      f-2     :     0.002990
      f+3     :     0.004195
      f-3     :     0.003078

  5 C s       :     3.079568  s :     3.079568
      pz      :     0.909572  p :     2.822209
      px      :     0.951921
      py      :     0.960716
      dz2     :     0.022905  d :     0.112117
      dxz     :     0.025713
      dyz     :     0.023854
      dx2y2   :     0.023173
      dxy     :     0.016473
      f0      :     0.000857  f :     0.006545
      f+1     :     0.001488
      f-1     :     0.001317
      f+2     :     0.000486
      f-2     :     0.000507
      f+3     :     0.001113
      f-3     :     0.000777

  6 C s       :     3.349002  s :     3.349002
      pz      :     1.062389  p :     3.038382
      px      :     0.930344
      py      :     1.045649
      dz2     :     0.018552  d :     0.056419
      dxz     :     0.007489
      dyz     :     0.004028
      dx2y2   :     0.014923
      dxy     :     0.011428
      f0      :     0.000740  f :     0.003262
      f+1     :     0.000453
      f-1     :     0.000134
      f+2     :     0.000378
      f-2     :     0.000291
      f+3     :     0.000549
      f-3     :     0.000717

  7 C s       :     3.352468  s :     3.352468
      pz      :     0.891200  p :     3.051608
      px      :     1.054383
      py      :     1.106026
      dz2     :     0.007755  d :     0.057677
      dxz     :     0.016434
      dyz     :     0.018648
      dx2y2   :     0.009643
      dxy     :     0.005197
      f0      :     0.000880  f :     0.003238
      f+1     :     0.000719
      f-1     :     0.000797
      f+2     :     0.000184
      f-2     :     0.000123
      f+3     :     0.000088
      f-3     :     0.000448

  8 C s       :     3.381436  s :     3.381436
      pz      :     1.065504  p :     3.077787
      px      :     0.983374
      py      :     1.028909
      dz2     :     0.017698  d :     0.057534
      dxz     :     0.006697
      dyz     :     0.005605
      dx2y2   :     0.022114
      dxy     :     0.005419
      f0      :     0.000771  f :     0.003306
      f+1     :     0.000313
      f-1     :     0.000260
      f+2     :     0.000314
      f-2     :     0.000378
      f+3     :     0.000722
      f-3     :     0.000548

  9 C s       :     3.080194  s :     3.080194
      pz      :     0.910321  p :     2.821911
      px      :     0.958296
      py      :     0.953293
      dz2     :     0.025922  d :     0.112259
      dxz     :     0.020287
      dyz     :     0.024685
      dx2y2   :     0.022453
      dxy     :     0.018912
      f0      :     0.001373  f :     0.006546
      f+1     :     0.000778
      f-1     :     0.000973
      f+2     :     0.001372
      f-2     :     0.000518
      f+3     :     0.000933
      f-3     :     0.000599

 10 C s       :     3.351422  s :     3.351422
      pz      :     0.935770  p :     3.050504
      px      :     1.067381
      py      :     1.047353
      dz2     :     0.014402  d :     0.057662
      dxz     :     0.010079
      dyz     :     0.012157
      dx2y2   :     0.016155
      dxy     :     0.004868
      f0      :     0.000650  f :     0.003241
      f+1     :     0.000685
      f-1     :     0.000608
      f+2     :     0.000387
      f-2     :     0.000378
      f+3     :     0.000136
      f-3     :     0.000398

 11 C s       :     3.349787  s :     3.349787
      pz      :     0.979948  p :     3.037965
      px      :     1.025543
      py      :     1.032474
      dz2     :     0.019131  d :     0.056497
      dxz     :     0.008999
      dyz     :     0.005024
      dx2y2   :     0.018611
      dxy     :     0.004731
      f0      :     0.000469  f :     0.003268
      f+1     :     0.000672
      f-1     :     0.000483
      f+2     :     0.000516
      f-2     :     0.000341
      f+3     :     0.000221
      f-3     :     0.000566

 12 C s       :     3.380897  s :     3.380897
      pz      :     1.056222  p :     3.077190
      px      :     1.125003
      py      :     0.895965
      dz2     :     0.010366  d :     0.057566
      dxz     :     0.005442
      dyz     :     0.015189
      dx2y2   :     0.011586
      dxy     :     0.014983
      f0      :     0.000278  f :     0.003296
      f+1     :     0.000496
      f-1     :     0.000546
      f+2     :     0.000491
      f-2     :     0.000145
      f+3     :     0.000837
      f-3     :     0.000503

 13 H s       :     0.840455  s :     0.840455
      pz      :     0.003587  p :     0.019389
      px      :     0.010370
      py      :     0.005433

 14 H s       :     0.829721  s :     0.829721
      pz      :     0.005182  p :     0.018199
      px      :     0.006320
      py      :     0.006697

 15 H s       :     0.810721  s :     0.810721
      pz      :     0.006821  p :     0.019138
      px      :     0.003705
      py      :     0.008612

 16 H s       :     0.833196  s :     0.833196
      pz      :     0.007168  p :     0.019254
      px      :     0.003571
      py      :     0.008515

 17 H s       :     0.798991  s :     0.798991
      pz      :     0.009152  p :     0.018391
      px      :     0.004911
      py      :     0.004329

 18 H s       :     0.825548  s :     0.825548
      pz      :     0.004434  p :     0.018437
      px      :     0.006416
      py      :     0.007587

 19 H s       :     0.820526  s :     0.820526
      pz      :     0.003956  p :     0.019651
      px      :     0.010130
      py      :     0.005565

 20 H s       :     0.812064  s :     0.812064
      pz      :     0.010193  p :     0.018596
      px      :     0.004490
      py      :     0.003913

 21 H s       :     0.838586  s :     0.838586
      pz      :     0.004586  p :     0.018283
      px      :     0.006646
      py      :     0.007051

 22 H s       :     0.820858  s :     0.820858
      pz      :     0.004512  p :     0.019641
      px      :     0.009123
      py      :     0.006006

 23 H s       :     0.811971  s :     0.811971
      pz      :     0.011639  p :     0.018598
      px      :     0.003477
      py      :     0.003483

 24 H s       :     0.839046  s :     0.839046
      pz      :     0.004083  p :     0.018285
      px      :     0.003592
      py      :     0.010611

 25 H s       :     0.811049  s :     0.811049
      pz      :     0.004803  p :     0.019116
      px      :     0.009716
      py      :     0.004597

 26 H s       :     0.840390  s :     0.840390
      pz      :     0.005066  p :     0.019437
      px      :     0.008128
      py      :     0.006243

 27 H s       :     0.829354  s :     0.829354
      pz      :     0.004461  p :     0.018195
      px      :     0.003600
      py      :     0.010135

 28 H s       :     0.799099  s :     0.799099
      pz      :     0.011535  p :     0.018406
      px      :     0.003403
      py      :     0.003468

 29 H s       :     0.834232  s :     0.834232
      pz      :     0.004494  p :     0.019290
      px      :     0.010922
      py      :     0.003874

 30 H s       :     0.825696  s :     0.825696
      pz      :     0.004068  p :     0.018418
      px      :     0.003842
      py      :     0.010508

 31 H s       :     0.829691  s :     0.829691
      pz      :     0.003434  p :     0.018176
      px      :     0.010568
      py      :     0.004173

 32 H s       :     0.810592  s :     0.810592
      pz      :     0.008538  p :     0.019130
      px      :     0.005338
      py      :     0.005254

 33 H s       :     0.841452  s :     0.841452
      pz      :     0.004058  p :     0.019456
      px      :     0.003660
      py      :     0.011739

 34 H s       :     0.821139  s :     0.821139
      pz      :     0.003727  p :     0.019628
      px      :     0.003620
      py      :     0.012280

 35 H s       :     0.812114  s :     0.812114
      pz      :     0.010096  p :     0.018599
      px      :     0.004859
      py      :     0.003645

 36 H s       :     0.839027  s :     0.839027
      pz      :     0.003486  p :     0.018287
      px      :     0.010648
      py      :     0.004154

 37 H s       :     0.834469  s :     0.834469
      pz      :     0.007753  p :     0.019329
      px      :     0.004798
      py      :     0.006777

 38 H s       :     0.826072  s :     0.826072
      pz      :     0.003578  p :     0.018425
      px      :     0.010914
      py      :     0.003934

 39 H s       :     0.799762  s :     0.799762
      pz      :     0.009328  p :     0.018425
      px      :     0.005025
      py      :     0.004073



                     *******************************
                     * LOEWDIN POPULATION ANALYSIS *
                     *******************************

----------------------
LOEWDIN ATOMIC CHARGES
----------------------
   0 C :   -0.299422
   1 C :   -0.446391
   2 C :   -0.302621
   3 C :   -0.307002
   4 P :    0.700489
   5 C :   -0.447046
   6 C :   -0.306754
   7 C :   -0.299425
   8 C :   -0.302230
   9 C :   -0.446428
  10 C :   -0.299115
  11 C :   -0.306736
  12 C :   -0.302388
  13 H :    0.119114
  14 H :    0.128639
  15 H :    0.124038
  16 H :    0.117940
  17 H :    0.128812
  18 H :    0.128015
  19 H :    0.122374
  20 H :    0.127555
  21 H :    0.125361
  22 H :    0.122458
  23 H :    0.127457
  24 H :    0.125209
  25 H :    0.124101
  26 H :    0.119139
  27 H :    0.128722
  28 H :    0.128896
  29 H :    0.117833
  30 H :    0.128035
  31 H :    0.128603
  32 H :    0.124178
  33 H :    0.118974
  34 H :    0.122320
  35 H :    0.127453
  36 H :    0.125330
  37 H :    0.117799
  38 H :    0.127963
  39 H :    0.128750

-------------------------------
LOEWDIN REDUCED ORBITAL CHARGES
-------------------------------
  0 C s       :     2.838045  s :     2.838045
      pz      :     1.035721  p :     3.166039
      px      :     1.063295
      py      :     1.067023
      dz2     :     0.058367  d :     0.271211
      dxz     :     0.048072
      dyz     :     0.086369
      dx2y2   :     0.025876
      dxy     :     0.052526
      f0      :     0.005721  f :     0.024127
      f+1     :     0.004279
      f-1     :     0.003142
      f+2     :     0.004178
      f-2     :     0.002968
      f+3     :     0.001254
      f-3     :     0.002585

  1 C s       :     2.759857  s :     2.759857
      pz      :     1.034867  p :     3.062189
      px      :     1.011954
      py      :     1.015368
      dz2     :     0.112719  d :     0.568834
      dxz     :     0.111325
      dyz     :     0.139253
      dx2y2   :     0.090490
      dxy     :     0.115047
      f0      :     0.009069  f :     0.055511
      f+1     :     0.006357
      f-1     :     0.009829
      f+2     :     0.007678
      f-2     :     0.008011
      f+3     :     0.008620
      f-3     :     0.005947

  2 C s       :     2.841273  s :     2.841273
      pz      :     1.067599  p :     3.162328
      px      :     1.027352
      py      :     1.067377
      dz2     :     0.027376  d :     0.274664
      dxz     :     0.065778
      dyz     :     0.059736
      dx2y2   :     0.050512
      dxy     :     0.071261
      f0      :     0.002941  f :     0.024357
      f+1     :     0.003810
      f-1     :     0.001818
      f+2     :     0.003531
      f-2     :     0.002642
      f+3     :     0.005960
      f-3     :     0.003656

  3 C s       :     2.843713  s :     2.843713
      pz      :     1.057104  p :     3.168596
      px      :     1.071982
      py      :     1.039509
      dz2     :     0.065997  d :     0.270733
      dxz     :     0.038721
      dyz     :     0.051953
      dx2y2   :     0.029487
      dxy     :     0.084576
      f0      :     0.002715  f :     0.023960
      f+1     :     0.002430
      f-1     :     0.004952
      f+2     :     0.003012
      f-2     :     0.004496
      f+3     :     0.002532
      f-3     :     0.003823

  4 P s       :     4.999587  s :     4.999587
      pz      :     3.287223  p :     8.804710
      px      :     2.781675
      py      :     2.735812
      dz2     :     0.066522  d :     0.422599
      dxz     :     0.059613
      dyz     :     0.081556
      dx2y2   :     0.116717
      dxy     :     0.098192
      f0      :     0.005665  f :     0.072615
      f+1     :     0.005599
      f-1     :     0.009656
      f+2     :     0.013542
      f-2     :     0.010275
      f+3     :     0.015540
      f-3     :     0.012338

  5 C s       :     2.759651  s :     2.759651
      pz      :     1.033505  p :     3.062410
      px      :     1.007446
      py      :     1.021458
      dz2     :     0.131652  d :     0.569430
      dxz     :     0.109471
      dyz     :     0.118207
      dx2y2   :     0.115044
      dxy     :     0.095056
      f0      :     0.006503  f :     0.055556
      f+1     :     0.011519
      f-1     :     0.009660
      f+2     :     0.006206
      f-2     :     0.006689
      f+3     :     0.008418
      f-3     :     0.006560

  6 C s       :     2.843805  s :     2.843805
      pz      :     1.071405  p :     3.168471
      px      :     1.030152
      py      :     1.066914
      dz2     :     0.075955  d :     0.270529
      dxz     :     0.041474
      dyz     :     0.018995
      dx2y2   :     0.071715
      dxy     :     0.062390
      f0      :     0.003639  f :     0.023948
      f+1     :     0.003015
      f-1     :     0.001058
      f+2     :     0.004169
      f-2     :     0.004089
      f+3     :     0.003445
      f-3     :     0.004532

  7 C s       :     2.837877  s :     2.837877
      pz      :     1.026217  p :     3.166026
      px      :     1.067744
      py      :     1.072064
      dz2     :     0.056395  d :     0.271386
      dxz     :     0.078560
      dyz     :     0.074332
      dx2y2   :     0.034133
      dxy     :     0.027966
      f0      :     0.004872  f :     0.024136
      f+1     :     0.005401
      f-1     :     0.005796
      f+2     :     0.002524
      f-2     :     0.002704
      f+3     :     0.000443
      f-3     :     0.002396

  8 C s       :     2.841114  s :     2.841114
      pz      :     1.066930  p :     3.162181
      px      :     1.044909
      py      :     1.050342
      dz2     :     0.077117  d :     0.274557
      dxz     :     0.035613
      dyz     :     0.027544
      dx2y2   :     0.096130
      dxy     :     0.038154
      f0      :     0.003665  f :     0.024378
      f+1     :     0.002052
      f-1     :     0.002009
      f+2     :     0.004262
      f-2     :     0.004189
      f+3     :     0.004578
      f-3     :     0.003622

  9 C s       :     2.759811  s :     2.759811
      pz      :     1.023485  p :     3.062083
      px      :     1.029657
      py      :     1.008940
      dz2     :     0.129263  d :     0.569009
      dxz     :     0.110223
      dyz     :     0.113917
      dx2y2   :     0.130521
      dxy     :     0.085086
      f0      :     0.009730  f :     0.055525
      f+1     :     0.007000
      f-1     :     0.008172
      f+2     :     0.010668
      f-2     :     0.007489
      f+3     :     0.007460
      f-3     :     0.005006

 10 C s       :     2.837876  s :     2.837876
      pz      :     1.036708  p :     3.165788
      px      :     1.064415
      py      :     1.064665
      dz2     :     0.073266  d :     0.271312
      dxz     :     0.052830
      dyz     :     0.060140
      dx2y2   :     0.065255
      dxy     :     0.019820
      f0      :     0.004309  f :     0.024140
      f+1     :     0.004551
      f-1     :     0.004787
      f+2     :     0.002339
      f-2     :     0.004249
      f+3     :     0.000998
      f-3     :     0.002906

 11 C s       :     2.843761  s :     2.843761
      pz      :     1.045131  p :     3.168432
      px      :     1.063980
      py      :     1.059321
      dz2     :     0.085979  d :     0.270578
      dxz     :     0.045390
      dyz     :     0.029323
      dx2y2   :     0.084603
      dxy     :     0.025283
      f0      :     0.002797  f :     0.023964
      f+1     :     0.004615
      f-1     :     0.003896
      f+2     :     0.003732
      f-2     :     0.003697
      f+3     :     0.001507
      f-3     :     0.003720

 12 C s       :     2.841150  s :     2.841150
      pz      :     1.065452  p :     3.162165
      px      :     1.073379
      py      :     1.023333
      dz2     :     0.042834  d :     0.274704
      dxz     :     0.025148
      dyz     :     0.080164
      dx2y2   :     0.064357
      dxy     :     0.062200
      f0      :     0.002145  f :     0.024370
      f+1     :     0.002861
      f-1     :     0.003937
      f+2     :     0.002846
      f-2     :     0.003058
      f+3     :     0.006188
      f-3     :     0.003334

 13 H s       :     0.821474  s :     0.821474
      pz      :     0.012327  p :     0.059413
      px      :     0.029854
      py      :     0.017232

 14 H s       :     0.813741  s :     0.813741
      pz      :     0.015757  p :     0.057621
      px      :     0.020813
      py      :     0.021051

 15 H s       :     0.816348  s :     0.816348
      pz      :     0.020261  p :     0.059614
      px      :     0.012656
      py      :     0.026697

 16 H s       :     0.822294  s :     0.822294
      pz      :     0.022565  p :     0.059766
      px      :     0.011983
      py      :     0.025218

 17 H s       :     0.812733  s :     0.812733
      pz      :     0.029248  p :     0.058455
      px      :     0.015024
      py      :     0.014184

 18 H s       :     0.814268  s :     0.814268
      pz      :     0.014690  p :     0.057717
      px      :     0.018699
      py      :     0.024328

 19 H s       :     0.816355  s :     0.816355
      pz      :     0.013011  p :     0.061271
      px      :     0.030955
      py      :     0.017305

 20 H s       :     0.813804  s :     0.813804
      pz      :     0.030136  p :     0.058641
      px      :     0.015380
      py      :     0.013125

 21 H s       :     0.816979  s :     0.816979
      pz      :     0.015753  p :     0.057659
      px      :     0.021243
      py      :     0.020664

 22 H s       :     0.816294  s :     0.816294
      pz      :     0.015385  p :     0.061247
      px      :     0.026371
      py      :     0.019491

 23 H s       :     0.813873  s :     0.813873
      pz      :     0.035127  p :     0.058669
      px      :     0.011519
      py      :     0.012023

 24 H s       :     0.817125  s :     0.817125
      pz      :     0.014118  p :     0.057666
      px      :     0.011681
      py      :     0.031868

 25 H s       :     0.816358  s :     0.816358
      pz      :     0.014746  p :     0.059541
      px      :     0.029741
      py      :     0.015053

 26 H s       :     0.821373  s :     0.821373
      pz      :     0.014802  p :     0.059488
      px      :     0.025251
      py      :     0.019435

 27 H s       :     0.813656  s :     0.813656
      pz      :     0.013664  p :     0.057622
      px      :     0.012511
      py      :     0.031447

 28 H s       :     0.812652  s :     0.812652
      pz      :     0.034961  p :     0.058452
      px      :     0.011655
      py      :     0.011836

 29 H s       :     0.822421  s :     0.822421
      pz      :     0.015495  p :     0.059746
      px      :     0.030781
      py      :     0.013470

 30 H s       :     0.814246  s :     0.814246
      pz      :     0.013990  p :     0.057719
      px      :     0.012994
      py      :     0.030735

 31 H s       :     0.813783  s :     0.813783
      pz      :     0.011647  p :     0.057615
      px      :     0.031745
      py      :     0.014222

 32 H s       :     0.816215  s :     0.816215
      pz      :     0.024512  p :     0.059606
      px      :     0.017405
      py      :     0.017690

 33 H s       :     0.821627  s :     0.821627
      pz      :     0.012738  p :     0.059398
      px      :     0.012398
      py      :     0.034263

 34 H s       :     0.816487  s :     0.816487
      pz      :     0.012855  p :     0.061193
      px      :     0.012622
      py      :     0.035717

 35 H s       :     0.813894  s :     0.813894
      pz      :     0.029661  p :     0.058652
      px      :     0.016060
      py      :     0.012931

 36 H s       :     0.817023  s :     0.817023
      pz      :     0.011823  p :     0.057647
      px      :     0.031471
      py      :     0.014353

 37 H s       :     0.822361  s :     0.822361
      pz      :     0.024712  p :     0.059841
      px      :     0.015848
      py      :     0.019280

 38 H s       :     0.814332  s :     0.814332
      pz      :     0.012236  p :     0.057704
      px      :     0.033275
      py      :     0.012193

 39 H s       :     0.812800  s :     0.812800
      pz      :     0.029477  p :     0.058451
      px      :     0.016404
      py      :     0.012569



                      *****************************
                      * MAYER POPULATION ANALYSIS *
                      *****************************

  NA   - Mulliken gross atomic population
  ZA   - Total nuclear charge
  QA   - Mulliken gross atomic charge
  VA   - Mayer's total valence
  BVA  - Mayer's bonded valence
  FA   - Mayer's free valence

  ATOM       NA         ZA         QA         VA         BVA        FA
  0 C      6.4647     6.0000    -0.4647     3.7347     3.7347     0.0000
  1 C      6.0219     6.0000    -0.0219     3.7313     3.7313    -0.0000
  2 C      6.5219     6.0000    -0.5219     3.7452     3.7452    -0.0000
  3 C      6.4477     6.0000    -0.4477     3.7518     3.7518    -0.0000
  4 P     14.8970    15.0000     0.1030     2.9419     2.9419    -0.0000
  5 C      6.0204     6.0000    -0.0204     3.7329     3.7329    -0.0000
  6 C      6.4471     6.0000    -0.4471     3.7503     3.7503     0.0000
  7 C      6.4650     6.0000    -0.4650     3.7338     3.7338    -0.0000
  8 C      6.5201     6.0000    -0.5201     3.7453     3.7453    -0.0000
  9 C      6.0209     6.0000    -0.0209     3.7314     3.7314    -0.0000
 10 C      6.4628     6.0000    -0.4628     3.7325     3.7325    -0.0000
 11 C      6.4475     6.0000    -0.4475     3.7520     3.7520     0.0000
 12 C      6.5189     6.0000    -0.5189     3.7468     3.7468    -0.0000
 13 H      0.8598     1.0000     0.1402     0.9590     0.9590     0.0000
 14 H      0.8479     1.0000     0.1521     0.9661     0.9661     0.0000
 15 H      0.8299     1.0000     0.1701     0.9426     0.9426    -0.0000
 16 H      0.8525     1.0000     0.1475     0.9512     0.9512    -0.0000
 17 H      0.8174     1.0000     0.1826     0.9449     0.9449     0.0000
 18 H      0.8440     1.0000     0.1560     0.9698     0.9698    -0.0000
 19 H      0.8402     1.0000     0.1598     0.9476     0.9476    -0.0000
 20 H      0.8307     1.0000     0.1693     0.9613     0.9613    -0.0000
 21 H      0.8569     1.0000     0.1431     0.9645     0.9645    -0.0000
 22 H      0.8405     1.0000     0.1595     0.9476     0.9476    -0.0000
 23 H      0.8306     1.0000     0.1694     0.9615     0.9615     0.0000
 24 H      0.8573     1.0000     0.1427     0.9649     0.9649     0.0000
 25 H      0.8302     1.0000     0.1698     0.9433     0.9433    -0.0000
 26 H      0.8598     1.0000     0.1402     0.9587     0.9587    -0.0000
 27 H      0.8475     1.0000     0.1525     0.9660     0.9660    -0.0000
 28 H      0.8175     1.0000     0.1825     0.9451     0.9451     0.0000
 29 H      0.8535     1.0000     0.1465     0.9518     0.9518     0.0000
 30 H      0.8441     1.0000     0.1559     0.9699     0.9699     0.0000
 31 H      0.8479     1.0000     0.1521     0.9659     0.9659     0.0000
 32 H      0.8297     1.0000     0.1703     0.9428     0.9428     0.0000
 33 H      0.8609     1.0000     0.1391     0.9594     0.9594    -0.0000
 34 H      0.8408     1.0000     0.1592     0.9475     0.9475     0.0000
 35 H      0.8307     1.0000     0.1693     0.9615     0.9615     0.0000
 36 H      0.8573     1.0000     0.1427     0.9648     0.9648     0.0000
 37 H      0.8538     1.0000     0.1462     0.9516     0.9516    -0.0000
 38 H      0.8445     1.0000     0.1555     0.9703     0.9703    -0.0000
 39 H      0.8182     1.0000     0.1818     0.9456     0.9456    -0.0000

  Mayer bond orders larger than 0.100000
B(  0-C ,  1-C ) :   0.9230 B(  0-C , 13-H ) :   0.9733 B(  0-C , 14-H ) :   0.9559 
B(  0-C , 15-H ) :   0.9692 B(  1-C ,  2-C ) :   0.9150 B(  1-C ,  3-C ) :   0.9542 
B(  1-C ,  4-P ) :   0.9398 B(  2-C , 16-H ) :   0.9722 B(  2-C , 17-H ) :   0.9678 
B(  2-C , 18-H ) :   0.9609 B(  3-C , 19-H ) :   0.9646 B(  3-C , 20-H ) :   0.9663 
B(  3-C , 21-H ) :   0.9602 B(  4-P ,  5-C ) :   0.9412 B(  4-P ,  9-C ) :   0.9408 
B(  5-C ,  6-C ) :   0.9526 B(  5-C ,  7-C ) :   0.9243 B(  5-C ,  8-C ) :   0.9157 
B(  6-C , 22-H ) :   0.9649 B(  6-C , 23-H ) :   0.9663 B(  6-C , 24-H ) :   0.9600 
B(  7-C , 25-H ) :   0.9690 B(  7-C , 26-H ) :   0.9731 B(  7-C , 27-H ) :   0.9558 
B(  8-C , 28-H ) :   0.9678 B(  8-C , 29-H ) :   0.9727 B(  8-C , 30-H ) :   0.9606 
B(  9-C , 10-C ) :   0.9225 B(  9-C , 11-C ) :   0.9537 B(  9-C , 12-C ) :   0.9162 
B( 10-C , 31-H ) :   0.9555 B( 10-C , 32-H ) :   0.9691 B( 10-C , 33-H ) :   0.9735 
B( 11-C , 34-H ) :   0.9646 B( 11-C , 35-H ) :   0.9664 B( 11-C , 36-H ) :   0.9604 
B( 12-C , 37-H ) :   0.9723 B( 12-C , 38-H ) :   0.9609 B( 12-C , 39-H ) :   0.9685 


-------
TIMINGS
-------

Total SCF time: 0 days 0 hours 1 min 37 sec 

Total time                  ....      97.961 sec
Sum of individual times     ....      97.953 sec  (100.0%)

SCF preparation             ....       0.299 sec  (  0.3%)
Fock matrix formation       ....      95.395 sec  ( 97.4%)
  Startup                   ....       0.079 sec  (  0.1% of F)
  Split-RI-J                ....       6.090 sec  (  6.4% of F)
  Chain of spheres X        ....      65.647 sec  ( 68.8% of F)
  XC integration            ....      23.342 sec  ( 24.5% of F)
    Basis function eval.    ....       3.633 sec  ( 15.6% of XC)
    Density eval.           ....       9.797 sec  ( 42.0% of XC)
    XC-Functional eval.     ....       0.386 sec  (  1.7% of XC)
    XC-Potential eval.      ....       8.694 sec  ( 37.2% of XC)
Diagonalization             ....       0.000 sec  (  0.0%)
Density matrix formation    ....       0.212 sec  (  0.2%)
Total Energy calculation    ....       0.078 sec  (  0.1%)
Population analysis         ....       0.136 sec  (  0.1%)
Orbital Transformation      ....       0.263 sec  (  0.3%)
Orbital Orthonormalization  ....       0.000 sec  (  0.0%)
DIIS solution               ....       1.060 sec  (  1.1%)
SOSCF solution              ....       0.510 sec  (  0.5%)
Finished LeanSCF after  98.0 sec

Maximum memory used throughout the entire LEANSCF-calculation: 85.5 MB


-------------------------------------------------------------------------------
                          DFT DISPERSION CORRECTION                            
                                                                               
                              DFTD3 V3.1  Rev 1                                
                              USING zero damping                               
-------------------------------------------------------------------------------
The M062X functional is recognized
Active option DFTDOPT                   ...         3   

molecular C6(AA) [au] = 12253.131936 


            DFT-D V3
 parameters
 s6 scaling factor         :     1.0000 
 rs6 scaling factor        :     1.6190 
 s8 scaling factor         :     0.0000 
 rs8 scaling factor        :     1.0000 
 Damping factor alpha6     :    14.0000 
 Damping factor alpha8     :    16.0000 
 ad hoc parameters k1-k3   :    16.0000     1.3333    -4.0000 

 Edisp/kcal,au: -1.645535332343  -0.002622327192 
 E6   /kcal   :  -1.645535332 
 E8   /kcal   :  -0.000000000 
 % E8         :   0.000000000 

-------------------------   ----------------
Dispersion correction           -0.002622327
-------------------------   ----------------


-------------------------   --------------------
FINAL SINGLE POINT ENERGY      -814.799156284643
-------------------------   --------------------



           ************************************************************
           *        Program running with 6 parallel MPI-processes     *
           *              working on a common directory               *
           ************************************************************

------------------------------------------------------------------------------
                              ORCA PROPERTY CALCULATIONS
------------------------------------------------------------------------------

GBWName                                 ... data/single_point_P_M06-2x/83681/83681.gbw
Number of atoms                         ...     40
Number of basis functions               ...    571
Max core memory                         ...   1024 MB

Electric properties:
Dipole moment                           ... YES
Quadrupole moment                       ...  NO
Static polarizability (Dipole/Dipole)   ...  NO
Static polarizability (Dipole/Quad.)    ...  NO
Static polarizability (Quad./Quad.)     ...  NO
Static polarizability (Velocity)        ...  NO

Atomic electric properties:
Dipole moment                           ...  NO
Quadrupole moment                       ...  NO
Static polarizability                   ...  NO

Choice of electric origin               ... Center of mass
Position of electric origin             ...    -0.073650     0.006925    -0.256118

General magnetic properties:
Magnetizability                         ...  NO

EPR properties:
g-Tensor (aka g-matrix)                 ...  NO
Zero-Field splitting spin-orbit         ...  NO
Zero-field splitting spin-spin          ...  NO
Hyperfine couplings                     ...  NO (   0 nuclei)
Quadrupole couplings                    ...  NO (   0 nuclei)
Contact density                         ...  NO (   0 nuclei)

NMR properties:
Chemical shifts                         ...  NO (   0 nuclei)
Spin-rotation constants                 ...  NO (   0 nuclei)
Spin-spin couplings                     ...  NO (   0 nuclei,    0 pairs)

Choice of magnetic origin               ... GIAO
Position of magnetic origin             ...     0.000000     0.000000     0.000000

Properties with geometric perturbations:
SCF Hessian                             ...  NO
IR spectrum                             ...  NO
VCD spectrum                            ...  NO
X-ray spectroscopy properties:
SCF XES/XAS/RIXS spectra                ...  NO


-------------
DIPOLE MOMENT
-------------

Method             : SCF
Type of density    : Electron Density
Multiplicity       :   1
Irrep              :   0
Energy             :  -814.7965339574514019 Eh
Relativity type    : 
Basis              : AO
                                X                 Y                 Z
Electronic contribution:     -1.341171071       0.126971373      -4.662394216
Nuclear contribution   :      1.454909058      -0.136967605       5.062325614
                        -----------------------------------------
Total Dipole Moment    :      0.113737987      -0.009996232       0.399931398
                        -----------------------------------------
Magnitude (a.u.)       :      0.415910300
Magnitude (Debye)      :      1.057159968



--------------------
Rotational spectrum 
--------------------
 
Rotational constants in cm-1:             0.023764             0.023760             0.015843 
Rotational constants in MHz :           712.431138           712.292817           474.954866 

Dipole components along the rotational axes: 
x,y,z [a.u.] :     0.000981     0.001418     0.415907 
x,y,z [Debye]:     0.002494     0.003605     1.057151 

 

Dipole moment calculation done in   0.0 sec 

Maximum memory used throughout the entire PROP-calculation: 43.1 MB

--------------------------------
SUGGESTED CITATIONS FOR THIS RUN
--------------------------------

Below you find a list of papers that are relevant to this ORCA run
We neither can nor want to force you to cite these papers, but we appreciate if you do
You receive ORCA, which is the product of decades of hard work by many enthusiastic individuals, for free
The only thing we kindly ask in return is that you cite our papers,
We deeply appreciate it, if you show your appreciation for ORCA by not just citing the generic ORCA reference.

Please note that relegating all ORCA citations to the supporting information does *not* help us.
SI sections are not indexed - citations you put there will not count into any citation statistics
But we need these citations in order to attract the funding resources that allow us to do what we are doing

Therefore, if you are a happy ORCA user, please consider citing a few of the papers listed below in the main body of your paper

In addition to the list printed below, the program has created the file data/single_point_P_M06-2x/83681/83681.bibtex that contains the list in bibtex format
You can import this file easily into all common literature databanks and citation aid programs


List of essential papers. We consider these as the minimum necessary citations

  1. Neese,F.
     Software update: the ORCA program system, version 5.0
     WIRES Comput. Molec. Sci., 2022 12(1)e1606
     doi.org/10.1002/wcms.1606

List of papers to cite with high priority. The work reported in these papers was absolutely
necessary for this run to complete.
Our perspective: the developers of density functionals and basis sets usually get cited in chemistry papers
Good! But without the algorithms to do something with them, the functionals or basis sets would not do anything.
Hence, in our opinion, the algorithm design and method developments papers are equally worthy of getting cited

  1. Neese,F.
     An improvement of the resolution of the identity approximation for the formation of the Coulomb matrix
     J. Comp. Chem., 2003 24(14)1740-1747
     doi.org/10.1002/jcc.10318
  2. Neese,F.; Wennmohs,F.; Hansen,A.; Becker,U.
     Efficient, approximate and parallel Hartree-Fock and hybrid DFT calculations. A 'chain-of-spheres' algorithm for the Hartree-Fock exchange
     Chem. Phys., 2009 356(1-3)98-109
     doi.org/10.1016/j.chemphys.2008.10.036
  3. Helmich-Paris,B.; de Souza,B.; Neese,F.; Izsák,R.
     An improved chain of spheres for exchange algorithm
     J. Chem. Phys., 2021 155 104109
     doi.org/doi: 10.1063/5.0058766.
  4. Neese,F.
     The SHARK Integral Generation and Digestion System
     J. Comp. Chem., 2022  1-16
     doi.org/10.1002/jcc.26942
  5. Grimme,S.; Antony,J.; Ehrlich,S.; Krieg,H.
     A consistent and accurate ab initio parametrization of density functional dispersion correction (DFT-D) for the 94 elements H-Pu
     J. Chem. Phys., 2010 132 154104-XXXX
     doi.org/10.1063/1.3382344

List of suggested additional citations. These are papers that are important in the 'surrounding' of 
of this run, or papers that preceded the highly important papers. If you like your results we are grateful for a citation.

  1. Izsak,R.; Neese,F.
     An overlap fitted chain of spheres exchange method
     J. Chem. Phys., 2011 135 144105
     doi.org/10.1063/1.3646921
  2. Izsak,R.; Hansen,A.; Neese,F.
     The resolution of identity and chain of spheres approximations for the LPNO-CCSD singles Fock term
     Molec. Phys., 2012 110 2413-2417
     doi.org/10.1080/00268976.2012.687466
  3. Neese,F.
     The ORCA program system
     WIRES Comput. Molec. Sci., 2012 2(1)73-78
     doi.org/10.1002/wcms.81
  4. Izsak,R.; Neese,F.; Klopper,W.
     Robust fitting techniques in the chain of spheres approximation to the Fock exchange: The role of the complementary space
     J. Chem. Phys., 2013 139 
     doi.org/10.1063/1.4819264
  5. Neese,F.
     Software update: the ORCA program system, version 4.0
     WIRES Comput. Molec. Sci., 2018 8(1)1-6
     doi.org/10.1002/wcms.1327
  6. Neese,F.; Wennmohs,F.; Becker,U.; Riplinger,C.
     The ORCA quantum chemistry program package
     J. Chem. Phys., 2020 152 Art. No. L224108
     doi.org/10.1063/5.0004608

List of optional additional citations

  1. Neese,F.
     Approximate second-order SCF convergence for spin unrestricted wavefunctions
     Chem. Phys. Lett., 2000 325(1-3)93-98
     doi.org/10.1016/s0009-2614(00)00662-x

Timings for individual modules:

Sum of individual times          ...      103.371 sec (=   1.723 min)
Startup calculation              ...        3.533 sec (=   0.059 min)   3.4 %
SCF iterations                   ...       99.568 sec (=   1.659 min)  96.3 %
Property calculations            ...        0.270 sec (=   0.004 min)   0.3 %
                             ****ORCA TERMINATED NORMALLY****
TOTAL RUN TIME: 0 days 0 hours 1 minutes 43 seconds 603 msec
