
                                 *****************
                                 * O   R   C   A *
                                 *****************

                                            #,                                       
                                            ###                                      
                                            ####                                     
                                            #####                                    
                                            ######                                   
                                           ########,                                 
                                     ,,################,,,,,                         
                               ,,#################################,,                 
                          ,,##########################################,,             
                       ,#########################################, ''#####,          
                    ,#############################################,,   '####,        
                  ,##################################################,,,,####,       
                ,###########''''           ''''###############################       
              ,#####''   ,,,,##########,,,,          '''####'''          '####       
            ,##' ,,,,###########################,,,                        '##       
           ' ,,###''''                  '''############,,,                           
         ,,##''                                '''############,,,,        ,,,,,,###''
      ,#''                                            '''#######################'''  
     '                                                          ''''####''''         
             ,#######,   #######,   ,#######,      ##                                
            ,#'     '#,  ##    ##  ,#'     '#,    #''#        ,####,   ,####,        
            ##       ##  ##   ,#'  ##            #'  '#       #'       #'  '#        
            ##       ##  #######   ##           ,######,      #####,   #    #        
            '#,     ,#'  ##    ##  '#,     ,#' ,#      #,     #,   #   #,  ,#        
             '#######'   ##     ##  '#######'  #'      '#     '####' # '####'        



                #########################################################
                #                        -***-                          #
                #          Department of theory and spectroscopy        #
                #                                                       #
                #                      Frank Neese                      #
                #                                                       #
                #     Directorship, Architecture, Infrastructure        #
                #                    SHARK, DRIVERS                     #
                #        Core code/Algorithms in most modules           #
                #                                                       #
                #        Max Planck Institute fuer Kohlenforschung      #
                #                Kaiser Wilhelm Platz 1                 #
                #                 D-45470 Muelheim/Ruhr                 #
                #                      Germany                          #
                #                                                       #
                #                  All rights reserved                  #
                #                        -***-                          #
                #########################################################


                         Program Version 6.0.0  -   RELEASE   -


 With contributions from (in alphabetic order):
   Daniel Aravena         : Magnetic Suceptibility
   Michael Atanasov       : Ab Initio Ligand Field Theory (pilot matlab implementation)
   Alexander A. Auer      : GIAO ZORA, VPT2 properties, NMR spectrum
   Ute Becker             : All parallelization in ORCA, NUMFREQ, NUMCALC
   Giovanni Bistoni       : ED, misc. LED, open-shell LED, HFLD
   Martin Brehm           : Molecular dynamics
   Dmytro Bykov           : pre 5.0 version of the SCF Hessian
   Marcos Casanova-Páez   : Triplet and SCS-CIS(D). UHF-(DLPNO)-IP/EA/STEOM-CCSD. UHF-CVS-IP/STEOM-CCSD
   Vijay G. Chilkuri      : MRCI spin determinant printing, contributions to CSF-ICE
   Pauline Colinet        : FMM embedding
   Dipayan Datta          : RHF DLPNO-CCSD density
   Achintya Kumar Dutta   : EOM-CC, STEOM-CC
   Nicolas Foglia         : Exact transition moments, OPA infrastructure, MCD improvements
   Dmitry Ganyushin       : Spin-Orbit,Spin-Spin,Magnetic field MRCI
   Miquel Garcia          : C-PCM and meta-GGA Hessian, CCSD/C-PCM, Gaussian charge scheme
   Tiago L. C. Gouveia    : GS-ROHF, GS-ROCIS
   Yang Guo               : DLPNO-NEVPT2, F12-NEVPT2, CIM, IAO-localization
   Andreas Hansen         : Spin unrestricted coupled pair/coupled cluster methods
   Ingolf Harden          : AUTO-CI MPn and infrastructure 
   Benjamin Helmich-Paris : MC-RPA, TRAH-(SCF,CASSCF), AVAS, COSX integrals, SCF dyn. polar.
   Lee Huntington         : MR-EOM, pCC
   Robert Izsak           : Overlap fitted RIJCOSX, COSX-SCS-MP3, EOM
   Riya Kayal             : Wick's Theorem for AUTO-CI, AUTO-CI UHF-CCSDT
   Emily Kempfer          : AUTO-CI, RHF CISDT and CCSDT
   Christian Kollmar      : KDIIS, OOCD, Brueckner-CCSD(T), CCSD density, CASPT2, CASPT2-K, improved NEVPT2
   Axel Koslowski         : Symmetry handling
   Simone Kossmann        : Meta GGA functionals, TD-DFT gradient, OOMP2, (MP2 Hessian; deprecated post 5.0)
   Lucas Lang             : DCDCAS
   Marvin Lechner         : AUTO-CI (C++ implementation), FIC-MRCC
   Spencer Leger          : CASSCF response
   Dagmar Lenk            : GEPOL surface, SMD, ORCA-2-JSON
   Dimitrios Liakos       : Extrapolation schemes; Compound Job, initial MDCI parallelization
   Dimitrios Manganas     : Further ROCIS development; embedding schemes. LFT, Crystal Embedding
   Dimitrios Pantazis     : SARC Basis sets
   Anastasios Papadopoulos: AUTO-CI, single reference methods and gradients
   Taras Petrenko         : pre 6.0 DFT Hessian and TD-DFT gradient, (ASA, deprecated), ECA, 1-Electron XAS/XES, NRVS
   Peter Pinski           : DLPNO-MP2, DLPNO-MP2 Gradient
   Christoph Reimann      : Effective Core Potentials
   Marius Retegan         : Local ZFS, SOC
   Christoph Riplinger    : Optimizer, TS searches, QM/MM, DLPNO-CCSD(T), (RO)-DLPNO pert. Triples
   Michael Roemelt        : Original ROCIS implementation
   Masaaki Saitow         : Open-shell DLPNO-CCSD energy and density
   Barbara Sandhoefer     : DKH picture change effects
   Kantharuban Sivalingam : CASSCF convergence/infrastructure, NEVPT2 and variants, FIC-MRCI
   Bernardo de Souza      : ESD, SOC TD-DFT
   Georgi Stoychev        : AutoAux, RI-MP2 NMR, DLPNO-MP2 response, X2C
   Van Anh Tran           : RI-MP2 g-tensors
   Willem Van den Heuvel  : Paramagnetic NMR
   Zikuan Wang            : NOTCH, Electric field optimization 
   Frank Wennmohs         : Technical directorship and infrastructure
   Hang Xu                : AUTO-CI-Response properties 


 We gratefully acknowledge several colleagues who have allowed us to
 interface, adapt or use parts of their codes:
   Stefan Grimme, W. Hujo, H. Kruse, P. Pracht,  : VdW corrections, initial TS optimization,
                  C. Bannwarth, S. Ehlert,         DFT functionals, gCP, sTDA/sTD-DF
                  L. Wittmann, M. Mueller
   Ed Valeev, F. Pavosevic, A. Kumar             : LibInt (2-el integral package), F12 methods
   Garnet Chan, S. Sharma, J. Yang, R. Olivares  : DMRG
   Ulf Ekstrom                                   : XCFun DFT Library
   Mihaly Kallay                                 : mrcc  (arbitrary order and MRCC methods)
   Frank Weinhold                                : gennbo (NPA and NBO analysis)
   Simon Mueller                                 : openCOSMO-RS
   Christopher J. Cramer and Donald G. Truhlar   : smd solvation model
   Lars Goerigk                                  : TD-DFT with DH, B97 family of functionals
   V. Asgeirsson, H. Jonsson                     : NEB implementation
   FAccTs GmbH                                   : IRC, NEB, NEB-TS, DLPNO-Multilevel, CI-OPT
                                                   MM, QMMM, 2- and 3-layer-ONIOM, Crystal-QMMM,
                                                   LR-CPCM, SF, NACMEs, symmetry and pop. for TD-DFT,
                                                   nearIR, NL-DFT gradient (VV10), updates on ESD,
                                                   ML-optimized integration grids, MBIS, APM,
                                                   GOAT, DOCKER, SOLVATOR, interface openCOSMO-RS
   S Lehtola, MJT Oliveira, MAL Marques          : LibXC Library
   Liviu Ungur et al                             : ANISO software


 Your calculation uses the libint2 library for the computation of 2-el integrals
 For citations please refer to: http://libint.valeyev.net

 Your ORCA version has been built with support for libXC version: 6.2.2
 For citations please refer to: https://libxc.gitlab.io

 This ORCA versions uses:
   CBLAS   interface :  Fast vector & matrix operations
   LAPACKE interface :  Fast linear algebra routines
   Shared memory     :  Shared parallel matrices


Your calculation utilizes the atom-pairwise dispersion correction
with the zero-damping scheme (D30)


XCFun DFT library Copyright 2009-2010 Ulf Ekstrom and contributors.
See http://admol.org/xcfun for more information.
This is free software; see the source code for copying conditions.
There is ABSOLUTELY NO WARRANTY; not even for MERCHANTABILITY or FITNESS FOR A PARTICULAR PURPOSE.
For details see the documentation.
Scientific users of this library should cite U. Ekstrom, L. Visscher, R. Bast, A. J. Thorvaldsen and K. Ruud;
J.Chem.Theor.Comp. 2010, DOI: 10.1021/ct100117s
XCFun Version 0.99 

Warning: RI is on but no J-basis has been assigned. Assigning Def2/J (nothing to worry about!)
================================================================================

----- Orbital basis set information -----
Your calculation utilizes the basis: def2-TZVP
   F. Weigend and R. Ahlrichs, Phys. Chem. Chem. Phys. 7, 3297 (2005).

----- AuxJ basis set information -----
Your calculation utilizes the auxiliary basis: def2/J
   F. Weigend, Phys. Chem. Chem. Phys. 8, 1057 (2006).

================================================================================
                                        WARNINGS
                       Please study these warnings very carefully!
================================================================================

WARNING: Functional chosen is sensitive to the integration grid.
         DEFGRID3 seems to be a minimum grid for robust results!

================================================================================
                                       INPUT FILE
================================================================================
NAME = data/single_point_P_M06-2x/201037/201037.inp
|  1> ! RIJCOSX M062X def2-TZVP D3ZERO NormalSCF
|  2> %pal
|  3> nprocs 6
|  4> end
|  5> 
|  6> * xyz 0 1
|  7>   C           2.78849434195004      0.06125349288119      1.02309971386045
|  8>   C           1.88068397026187      0.19342351998354      2.08682829530240
|  9>   C           0.49846708424966      0.19998457578109      1.83517748806602
| 10>   C           0.00113517580230      0.07309962056268      0.51961835251110
| 11>   C           0.92806793748017     -0.06080128732498     -0.54174697744419
| 12>   C           2.31010515530372     -0.06570959672487     -0.29274149793919
| 13>   P          -1.84849375009681      0.08624677639377      0.27303262002537
| 14>   C          -1.87113463421533      1.36350714113686     -1.14238182158268
| 15>   O          -1.24796032570117      2.56978168288304     -0.76555445142450
| 16>   C          -1.93691892426925     -1.51836590616666     -0.75442251094331
| 17>   O          -1.37272296235174     -2.60982904113329     -0.06498485604590
| 18>   H           3.87183534206172      0.05684999253703      1.21827453028989
| 19>   H           2.25075204815254      0.29265872403297      3.11887986903374
| 20>   H          -0.21691105444346      0.30477082418138      2.66631359521041
| 21>   H           0.56932696000521     -0.16347650303749     -1.57905942899760
| 22>   H           3.01789749708464     -0.16982917842229     -1.12972732502175
| 23>   H          -2.93147220689186      1.59616421939405     -1.37432991370100
| 24>   H          -1.42569975152313      0.91077402710390     -2.06693620130634
| 25>   H          -0.33688575805079      2.34344993640098     -0.48925853456893
| 26>   H          -3.00769005174993     -1.75370089504129     -0.92881562319706
| 27>   H          -1.47061915056461     -1.34724010997223     -1.76003703705071
| 28>   H          -0.45025694249380     -2.36301401544937      0.14877371492376
| 29> **                         ****END OF INPUT****
================================================================================

                       ****************************
                       * Single Point Calculation *
                       ****************************

---------------------------------
CARTESIAN COORDINATES (ANGSTROEM)
---------------------------------
  C      2.788494    0.061253    1.023100
  C      1.880684    0.193424    2.086828
  C      0.498467    0.199985    1.835177
  C      0.001135    0.073100    0.519618
  C      0.928068   -0.060801   -0.541747
  C      2.310105   -0.065710   -0.292741
  P     -1.848494    0.086247    0.273033
  C     -1.871135    1.363507   -1.142382
  O     -1.247960    2.569782   -0.765554
  C     -1.936919   -1.518366   -0.754423
  O     -1.372723   -2.609829   -0.064985
  H      3.871835    0.056850    1.218275
  H      2.250752    0.292659    3.118880
  H     -0.216911    0.304771    2.666314
  H      0.569327   -0.163477   -1.579059
  H      3.017897   -0.169829   -1.129727
  H     -2.931472    1.596164   -1.374330
  H     -1.425700    0.910774   -2.066936
  H     -0.336886    2.343450   -0.489259
  H     -3.007690   -1.753701   -0.928816
  H     -1.470619   -1.347240   -1.760037
  H     -0.450257   -2.363014    0.148774

----------------------------
CARTESIAN COORDINATES (A.U.)
----------------------------
  NO LB      ZA    FRAG     MASS         X           Y           Z
   0 C     6.0000    0    12.011    5.269491    0.115752    1.933378
   1 C     6.0000    0    12.011    3.553978    0.365517    3.943534
   2 C     6.0000    0    12.011    0.941966    0.377916    3.467983
   3 C     6.0000    0    12.011    0.002145    0.138138    0.981936
   4 C     6.0000    0    12.011    1.753794   -0.114898   -1.023753
   5 C     6.0000    0    12.011    4.365466   -0.124173   -0.553201
   6 P    15.0000    0    30.974   -3.493147    0.162983    0.515957
   7 C     6.0000    0    12.011   -3.535932    2.576655   -2.158789
   8 O     8.0000    0    15.999   -2.358303    4.856184   -1.446688
   9 C     6.0000    0    12.011   -3.660246   -2.869296   -1.425652
  10 O     8.0000    0    15.999   -2.594070   -4.931862   -0.122804
  11 H     1.0000    0     1.008    7.316708    0.107431    2.302205
  12 H     1.0000    0     1.008    4.253305    0.553045    5.893829
  13 H     1.0000    0     1.008   -0.409902    0.575933    5.038602
  14 H     1.0000    0     1.008    1.075872   -0.308926   -2.983990
  15 H     1.0000    0     1.008    5.703000   -0.320931   -2.134875
  16 H     1.0000    0     1.008   -5.539680    3.016313   -2.597107
  17 H     1.0000    0     1.008   -2.694182    1.721113   -3.905943
  18 H     1.0000    0     1.008   -0.636622    4.428479   -0.924565
  19 H     1.0000    0     1.008   -5.683710   -3.314014   -1.755207
  20 H     1.0000    0     1.008   -2.779067   -2.545915   -3.325988
  21 H     1.0000    0     1.008   -0.850862   -4.465449    0.281142

--------------------------------
INTERNAL COORDINATES (ANGSTROEM)
--------------------------------
 C      0   0   0     0.000000000000     0.00000000     0.00000000
 C      1   0   0     1.404673300802     0.00000000     0.00000000
 C      2   1   0     1.404953627780   120.04088812     0.00000000
 C      3   2   1     1.412138328268   120.85926646     0.08461289
 C      4   3   2     1.415496436391   118.45121903     0.00000000
 C      5   4   3     1.404298647644   120.78653091   359.92199215
 P      4   3   2     1.866039799869   118.13557476   179.82188375
 C      7   4   3     1.906647500324    96.57986558   131.59338669
 O      8   7   4     1.409057612647   111.69765220   303.54414387
 C      7   4   3     1.907423633757    96.38475608   231.85444010
 O     10   7   4     1.408876551876   111.68831388    56.61357360
 H      1   2   3     1.100790771358   120.14178945   179.94294351
 H      2   1   3     1.100876223214   120.07709698   180.03773275
 H      3   2   1     1.101604860090   120.27770161   180.08219402
 H      5   4   3     1.102385781380   120.08379091   179.89047961
 H      6   5   4     1.101070461466   119.87926155   180.05652387
 H      8   7   4     1.110065314083   107.87019018   185.75005363
 H      8   7   4     1.121686368076   109.68156731    69.59417481
 H      9   8   7     0.978581811069   106.81372837    57.14438180
 H     10   7   4     1.110110950327   107.91913473   174.43302246
 H     10   7   4     1.121597116704   109.59285278   290.62698607
 H     11  10   7     0.978546851898   106.79831246   302.68335602

---------------------------
INTERNAL COORDINATES (A.U.)
---------------------------
 C      0   0   0     0.000000000000     0.00000000     0.00000000
 C      1   0   0     2.654447846147     0.00000000     0.00000000
 C      2   1   0     2.654977587364   120.04088812     0.00000000
 C      3   2   1     2.668554703639   120.85926646     0.08461289
 C      4   3   2     2.674900608321   118.45121903     0.00000000
 C      5   4   3     2.653739854283   120.78653091   359.92199215
 P      4   3   2     3.526304176749   118.13557476   179.82188375
 C      7   4   3     3.603041609537    96.57986558   131.59338669
 O      8   7   4     2.662732994819   111.69765220   303.54414387
 C      7   4   3     3.604508289170    96.38475608   231.85444010
 O     10   7   4     2.662390839549   111.68831388    56.61357360
 H      1   2   3     2.080193088614   120.14178945   179.94294351
 H      2   1   3     2.080354569220   120.07709698   180.03773275
 H      3   2   1     2.081731493366   120.27770161   180.08219402
 H      5   4   3     2.083207220737   120.08379091   179.89047961
 H      6   5   4     2.080721626322   119.87926155   180.05652387
 H      8   7   4     2.097719434382   107.87019018   185.75005363
 H      8   7   4     2.119680043816   109.68156731    69.59417481
 H      9   8   7     1.849251622558   106.81372837    57.14438180
 H     10   7   4     2.097805674386   107.91913473   174.43302246
 H     10   7   4     2.119511383166   109.59285278   290.62698607
 H     11  10   7     1.849185559297   106.79831246   302.68335602

---------------------
BASIS SET INFORMATION
---------------------
There are 4 groups of distinct atoms

 Group   1 Type C   : 11s6p2d1f contracted to 5s3p2d1f pattern {62111/411/11/1}
 Group   2 Type P   : 14s9p3d1f contracted to 5s5p2d1f pattern {73211/51111/21/1}
 Group   3 Type O   : 11s6p2d1f contracted to 5s3p2d1f pattern {62111/411/11/1}
 Group   4 Type H   : 5s1p contracted to 3s1p pattern {311/1}

Atom   0C    basis set group =>   1
Atom   1C    basis set group =>   1
Atom   2C    basis set group =>   1
Atom   3C    basis set group =>   1
Atom   4C    basis set group =>   1
Atom   5C    basis set group =>   1
Atom   6P    basis set group =>   2
Atom   7C    basis set group =>   1
Atom   8O    basis set group =>   3
Atom   9C    basis set group =>   1
Atom  10O    basis set group =>   3
Atom  11H    basis set group =>   4
Atom  12H    basis set group =>   4
Atom  13H    basis set group =>   4
Atom  14H    basis set group =>   4
Atom  15H    basis set group =>   4
Atom  16H    basis set group =>   4
Atom  17H    basis set group =>   4
Atom  18H    basis set group =>   4
Atom  19H    basis set group =>   4
Atom  20H    basis set group =>   4
Atom  21H    basis set group =>   4
---------------------------------
AUXILIARY/J BASIS SET INFORMATION
---------------------------------
There are 4 groups of distinct atoms

 Group   1 Type C   : 12s5p4d2f1g contracted to 6s4p3d1f1g pattern {711111/2111/211/2/1}
 Group   2 Type P   : 14s5p5d2f1g contracted to 8s4p3d1f1g pattern {71111111/2111/311/2/1}
 Group   3 Type O   : 12s5p4d2f1g contracted to 6s4p3d1f1g pattern {711111/2111/211/2/1}
 Group   4 Type H   : 5s2p1d contracted to 3s1p1d pattern {311/2/1}

Atom   0C    basis set group =>   1
Atom   1C    basis set group =>   1
Atom   2C    basis set group =>   1
Atom   3C    basis set group =>   1
Atom   4C    basis set group =>   1
Atom   5C    basis set group =>   1
Atom   6P    basis set group =>   2
Atom   7C    basis set group =>   1
Atom   8O    basis set group =>   3
Atom   9C    basis set group =>   1
Atom  10O    basis set group =>   3
Atom  11H    basis set group =>   4
Atom  12H    basis set group =>   4
Atom  13H    basis set group =>   4
Atom  14H    basis set group =>   4
Atom  15H    basis set group =>   4
Atom  16H    basis set group =>   4
Atom  17H    basis set group =>   4
Atom  18H    basis set group =>   4
Atom  19H    basis set group =>   4
Atom  20H    basis set group =>   4
Atom  21H    basis set group =>   4


           ************************************************************
           *        Program running with 6 parallel MPI-processes     *
           *              working on a common directory               *
           ************************************************************
------------------------------------------------------------------------------
                             ORCA STARTUP CALCULATIONS
                           -- RI-GTO INTEGRALS CHOSEN --
------------------------------------------------------------------------------
------------------------------------------------------------------------------
                   ___                                                        
                  /   \      - P O W E R E D   B Y -                         
                 /     \                                                     
                 |  |  |   _    _      __       _____    __    __             
                 |  |  |  | |  | |    /  \     |  _  \  |  |  /  |          
                  \  \/   | |  | |   /    \    | | | |  |  | /  /          
                 / \  \   | |__| |  /  /\  \   | |_| |  |  |/  /          
                |  |  |   |  __  | /  /__\  \  |    /   |      \           
                |  |  |   | |  | | |   __   |  |    \   |  |\   \          
                \     /   | |  | | |  |  |  |  | |\  \  |  | \   \       
                 \___/    |_|  |_| |__|  |__|  |_| \__\ |__|  \__/        
                                                                              
                      - O R C A' S   B I G   F R I E N D -                    
                                      &                                       
                       - I N T E G R A L  F E E D E R -                       
                                                                              
 v1 FN, 2020, v2 2021, v3 2022-2024                                           
------------------------------------------------------------------------------


----------------------
SHARK INTEGRAL PACKAGE
----------------------

Number of atoms                             ...     22
Number of basis functions                   ...    413
Number of shells                            ...    167
Maximum angular momentum                    ...      3
Integral batch strategy                     ... SHARK/LIBINT Hybrid
RI-J (if used) integral strategy            ... SPLIT-RIJ (Revised 2003 algorithm where possible)
Printlevel                                  ...      1
Contraction scheme used                     ... SEGMENTED contraction
Prescreening option                         ... SCHWARTZ
   Thresh                                   ... 1.000e-10
   Tcut                                     ... 1.000e-11
   Tpresel                                  ... 1.000e-11 
Coulomb Range Separation                    ... NOT USED
Exchange Range Separation                   ... NOT USED
Multipole approximations                    ... NOT USED
Finite Nucleus Model                        ... NOT USED
CABS basis                                  ... NOT available
Auxiliary Coulomb fitting basis             ... AVAILABLE
   # of basis functions in Aux-J            ...    662
   # of shells in Aux-J                     ...    222
   Maximum angular momentum in Aux-J        ...      4
Auxiliary J/K fitting basis                 ... NOT available
Auxiliary Correlation fitting basis         ... NOT available
Auxiliary 'external' fitting basis          ... NOT available

Checking pre-screening integrals            ... done (  0.0 sec) Dimension = 167
Check shell pair data                       ... done (  0.0 sec)
Shell pair information
Shell pair cut-off parameter TPreSel        ...   1.0e-11
Total number of shell pairs                 ...     14028
Shell pairs after pre-screening             ...     11934
Total number of primitive shell pairs       ...     43360
Primitive shell pairs kept                  ...     26050
          la=0 lb=0:   3205 shell pairs
          la=1 lb=0:   3477 shell pairs
          la=1 lb=1:    974 shell pairs
          la=2 lb=0:   1639 shell pairs
          la=2 lb=1:    908 shell pairs
          la=2 lb=2:    229 shell pairs
          la=3 lb=0:    792 shell pairs
          la=3 lb=1:    443 shell pairs
          la=3 lb=2:    212 shell pairs
          la=3 lb=3:     55 shell pairs

Calculating one electron integrals          ... done (  0.0 sec)
Calculating RI/J V-Matrix + Cholesky decomp.... done (  0.0 sec)
Calculating Nuclear repulsion               ... done (  0.0 sec) ENN=    697.681077920274 Eh

Diagonalization of the overlap matrix:
Smallest eigenvalue                        ... 8.673e-06
Time for diagonalization                   ...    0.022 sec
Threshold for overlap eigenvalues          ... 1.000e-07
Number of eigenvalues below threshold      ... 0
Time for construction of square roots      ...    0.014 sec
Total time needed                          ...    0.037 sec

-------------------
DFT GRID GENERATION
-------------------

General Integration Accuracy     IntAcc      ... 4.388
Radial Grid Type                 RadialGrid  ... OptM3 with GC (2021)
Angular Grid (max. ang.)         AngularGrid ... 4 (Lebedev-302)
Angular grid pruning method      GridPruning ... 4 (adaptive)
Weight generation scheme         WeightScheme... mBecke (2022)
Basis function cutoff            BFCut       ... 1.0000e-10
Integration weight cutoff        WCut        ... 1.0000e-14
Partially contracted basis set               ... off
Rotationally invariant grid construction     ... off
Angular grids for H and He will be reduced by one unit

Total number of grid points                  ...   102512
Total number of batches                      ...     1612
Average number of points per batch           ...       63
Average number of grid points per atom       ...     4660

--------------------
COSX GRID GENERATION
--------------------

GRIDX 1
-------
General Integration Accuracy     IntAcc      ... 3.816
Radial Grid Type                 RadialGrid  ... OptM3 with GC (2021)
Angular Grid (max. ang.)         AngularGrid ... 1 (Lebedev-50)
Angular grid pruning method      GridPruning ... 4 (adaptive)
Weight generation scheme         WeightScheme... mBecke (2022)
Basis function cutoff            BFCut       ... 1.0000e-10
Integration weight cutoff        WCut        ... 1.0000e-14
Partially contracted basis set               ... on
Rotationally invariant grid construction     ... off
Angular grids for H and He will be reduced by one unit

Total number of grid points                  ...    14090
Total number of batches                      ...      121
Average number of points per batch           ...      116
Average number of grid points per atom       ...      640
UseSFitting                                  ... on

GRIDX 2
-------
General Integration Accuracy     IntAcc      ... 4.020
Radial Grid Type                 RadialGrid  ... OptM3 with GC (2021)
Angular Grid (max. ang.)         AngularGrid ... 2 (Lebedev-110)
Angular grid pruning method      GridPruning ... 4 (adaptive)
Weight generation scheme         WeightScheme... mBecke (2022)
Basis function cutoff            BFCut       ... 1.0000e-10
Integration weight cutoff        WCut        ... 1.0000e-14
Partially contracted basis set               ... on
Rotationally invariant grid construction     ... off
Angular grids for H and He will be reduced by one unit

Total number of grid points                  ...    28025
Total number of batches                      ...      232
Average number of points per batch           ...      120
Average number of grid points per atom       ...     1274
UseSFitting                                  ... on

GRIDX 3
-------
General Integration Accuracy     IntAcc      ... 4.338
Radial Grid Type                 RadialGrid  ... OptM3 with GC (2021)
Angular Grid (max. ang.)         AngularGrid ... 3 (Lebedev-194)
Angular grid pruning method      GridPruning ... 4 (adaptive)
Weight generation scheme         WeightScheme... mBecke (2022)
Basis function cutoff            BFCut       ... 1.0000e-10
Integration weight cutoff        WCut        ... 1.0000e-14
Partially contracted basis set               ... on
Rotationally invariant grid construction     ... off
Angular grids for H and He will be reduced by one unit

Total number of grid points                  ...    61840
Total number of batches                      ...      496
Average number of points per batch           ...      124
Average number of grid points per atom       ...     2811
UseSFitting                                  ... on
Initializing property integral containers    ... done (  0.0 sec)

SHARK setup successfully completed in   1.6 seconds

Maximum memory used throughout the entire STARTUP-calculation: 36.6 MB


           ************************************************************
           *        Program running with 6 parallel MPI-processes     *
           *              working on a common directory               *
           ************************************************************
-------------------------------------------------------------------------------
                                 ORCA GUESS
                   Start orbitals & Density for SCF / CASSCF
-------------------------------------------------------------------------------

------------
SCF SETTINGS
------------
Hamiltonian:
 Density Functional     Method          .... DFT(GTOs)
 Exchange Functional    Exchange        .... M062X
 Correlation Functional Correlation     .... M062X
 Gradients option       PostSCFGGA      .... off
 Hybrid DFT is turned on
   Fraction HF Exchange ScalHFX         ....  0.540000
   Scaling of DF-GGA-X  ScalDFX         ....  0.460000
   Scaling of DF-GGA-C  ScalDFC         ....  1.000000
   Scaling of DF-LDA-C  ScalLDAC        ....  1.000000
   Perturbative correction              ....  0.000000
 RI-approximation to the Coulomb term is turned on
   Number of AuxJ basis functions       .... 662
   RIJ-COSX (HFX calculated with COS-X)).... on


General Settings:
 Integral files         IntName         .... data/single_point_P_M06-2x/201037/201037
 Hartree-Fock type      HFTyp           .... RHF
 Total Charge           Charge          ....    0
 Multiplicity           Mult            ....    1
 Number of Electrons    NEL             ....   90
 Basis Dimension        Dim             ....  413
 Nuclear Repulsion      ENuc            ....    697.6810779203 Eh

Convergence Acceleration:
 AO-DIIS                CNVDIIS         .... on
   Start iteration      DIISMaxIt       ....    12
   Startup error        DIISStart       ....  0.200000
   # of expansion vecs  DIISMaxEq       ....     5
   Bias factor          DIISBfac        ....   1.050
   Max. coefficient     DIISMaxC        ....  10.000
 MO-DIIS                CNVKDIIS        .... off
 Trust-Rad. Augm. Hess. CNVTRAH         .... auto
   Auto Start mean grad. ratio tolernc. ....  1.125000
   Auto Start start iteration           ....    50
   Auto Start num. interpolation iter.  ....    10
   Max. Number of Micro iterations      ....    24
   Max. Number of Macro iterations      .... Maxiter - #DIIS iter
   Number of Davidson start vectors     ....     2
   Converg. threshold    (grad. norm)   ....   5.000e-05
   Grad. Scal. Fac. for Micro threshold ....   0.100
   Minimum threshold for Micro iter.    ....   1.000e-02
   NR start threshold (gradient norm)   ....   1.000e-04
   Initial trust radius                 ....   0.400
   Minimum AH scaling param. (alpha)    ....   1.000
   Maximum AH scaling param. (alpha)    .... 1000.000
   Quad. conv. algorithm                .... NR
   White noise on init. David. guess    .... on
   Maximum white noise                  ....   0.010
   Pseudo random numbers                .... off
   Inactive MOs                         .... canonical
   Orbital update algorithm             .... Taylor
   Preconditioner                       .... Diag
   Full preconditioner red. dimension   ....   250
 SOSCF                  CNVSOSCF        .... on
   Start iteration      SOSCFMaxIt      ....   150
   Startup grad/error   SOSCFStart      ....  0.003300
   Hessian update       SOSCFHessUp     .... L-BFGS
 Level Shifting         CNVShift        .... on
   Level shift para.    LevelShift      ....    0.2500
   Turn off err/grad.   ShiftErr        ....    0.0010
 Zerner damping         CNVZerner       .... off
 Static damping         CNVDamp         .... on
   Fraction old density DampFac         ....    0.7000
   Max. Damping (<1)    DampMax         ....    0.9800
   Min. Damping (>=0)   DampMin         ....    0.0000
   Turn off err/grad.   DampErr         ....    0.1000

SCF Procedure:
 Maximum # iterations   MaxIter         ....   125
 SCF integral mode      SCFMode         .... Direct
   Integral package                     .... SHARK and LIBINT hybrid scheme
 Reset frequency        DirectResetFreq ....    20
 Integral Threshold     Thresh          ....  1.000e-10 Eh
 Primitive CutOff       TCut            ....  1.000e-11 Eh

Convergence Tolerance:
 Convergence Check Mode ConvCheckMode   .... Total+1el-Energy
 Convergence forced     ConvForced      .... 0
 Energy Change          TolE            ....  1.000e-06 Eh
 1-El. energy change                    ....  1.000e-03 Eh
 Orbital Gradient       TolG            ....  5.000e-05
 Orbital Rotation angle TolX            ....  5.000e-05
 DIIS Error             TolErr          ....  1.000e-05

------------------------------
INITIAL GUESS: MODEL POTENTIAL
------------------------------
Loading Hartree-Fock densities                     ... done
Calculating cut-offs                               ... done
Initializing the effective Hamiltonian             ... done
Setting up the integral package (SHARK)            ... done
Starting the Coulomb interaction                   ... done (   0.1 sec)
Making the grid                                    ... done (   0.1 sec)
Mapping shells                                     ... done
Starting the XC term evaluation                    ... done (   0.2 sec)
  promolecular density results
     # of electrons  =     89.993733678
     EX              =    -82.913870145
     EC              =     -3.061388687
     EX+EC           =    -85.975258831
Transforming the Hamiltonian                       ... done (   0.0 sec)
Diagonalizing the Hamiltonian                      ... done (   0.0 sec)
Back transforming the eigenvectors                 ... done (   0.0 sec)
Now organizing SCF variables                       ... done
                      ------------------
                      INITIAL GUESS DONE (   0.5 sec)
                      ------------------
             **** ENERGY FILE WAS UPDATED (data/single_point_P_M06-2x/201037/201037.en.tmp) ****
Finished Guess after   0.6 sec
Maximum memory used throughout the entire GUESS-calculation: 25.3 MB


           ************************************************************
           *        Program running with 6 parallel MPI-processes     *
           *              working on a common directory               *
           ************************************************************

-------------------------------------------------------------------------------------------
                                      ORCA LEAN-SCF
                              memory conserving SCF solver
-------------------------------------------------------------------------------------------

----------------------------------------D-I-I-S--------------------------------------------
Iteration    Energy (Eh)           Delta-E    RMSDP     MaxDP     DIISErr   Damp  Time(sec)
-------------------------------------------------------------------------------------------
               ***  Starting incremental Fock matrix formation  ***
    1    -802.9246812374316278     0.00e+00  1.59e-03  7.75e-02  2.41e-01  0.700   4.5
    2    -803.0517610598598139    -1.27e-01  1.28e-03  7.30e-02  1.16e-01  0.700   2.8
                               ***Turning on AO-DIIS***
    3    -803.1099451374278715    -5.82e-02  7.37e-04  2.25e-02  4.55e-02  0.700   2.8
    4    -803.1445269854219760    -3.46e-02  1.66e-03  4.55e-02  3.16e-02  0.000   2.7
    5    -803.2194104467797615    -7.49e-02  1.78e-04  1.49e-02  3.39e-03  0.000   2.7
                              *** Initializing SOSCF ***
---------------------------------------S-O-S-C-F--------------------------------------
Iteration    Energy (Eh)           Delta-E    RMSDP     MaxDP     MaxGrad    Time(sec)
--------------------------------------------------------------------------------------
    6    -803.2195641287381704    -1.54e-04  6.43e-05  4.22e-03  7.41e-04     2.5
               *** Restarting incremental Fock matrix formation ***
    7    -803.2196084799307982    -4.44e-05  4.28e-05  1.96e-03  1.62e-04     4.4
    8    -803.2196101888038129    -1.71e-06  2.09e-05  1.11e-03  9.40e-05     3.2
    9    -803.2196109736802327    -7.85e-07  1.01e-05  3.64e-04  3.15e-05     3.0
                 **** Energy Check signals convergence ****

               *****************************************************
               *                     SUCCESS                       *
               *           SCF CONVERGED AFTER   9 CYCLES          *
               *****************************************************

Recomputing exchange energy using gridx3       ... done (    6.258 sec)
Old exchange energy                            :    -45.566631476 Eh
New exchange energy                            :    -45.566595695 Eh
Exchange energy change after final integration :      0.000035781 Eh
Total energy after final integration           :   -803.219575193 Eh
             **** ENERGY FILE WAS UPDATED (data/single_point_P_M06-2x/201037/201037.en.tmp) ****

----------------
TOTAL SCF ENERGY
----------------

Total Energy       :       -803.21957519253976 Eh          -21856.71581 eV

Components:
Nuclear Repulsion  :        697.68107792027365 Eh           18984.86730 eV
Electronic Energy  :      -1500.90068889395388 Eh          -40841.58409 eV
One Electron Energy:      -2484.45742571649726 Eh          -67605.52355 eV
Two Electron Energy:        983.55673682254326 Eh           26763.93946 eV

Virial components:
Potential Energy   :      -1603.09084308484717 Eh          -43622.31956 eV
Kinetic Energy     :        799.87126789230729 Eh           21765.60374 eV
Virial Ratio       :          2.00418605772533

DFT components:
N(Alpha)           :       45.000029115952 electrons
N(Beta)            :       45.000029115952 electrons
N(Total)           :       90.000058231903 electrons
E(XC)              :      -42.133407840088 Eh       

---------------
SCF CONVERGENCE
---------------

  Last Energy change         ...    7.8488e-07  Tolerance :   1.0000e-06
  Last MAX-Density change    ...    3.6390e-04  Tolerance :   1.0000e-05
  Last RMS-Density change    ...    1.0091e-05  Tolerance :   1.0000e-06
  Last DIIS Error            ...    7.4050e-04  Tolerance :   1.0000e-05
  Last Orbital Gradient      ...    3.1524e-05  Tolerance :   5.0000e-05
  Last Orbital Rotation      ...    5.2863e-05  Tolerance :   5.0000e-05


----------------
ORBITAL ENERGIES
----------------

  NO   OCC          E(Eh)            E(eV) 
   0   2.0000     -78.030323     -2123.3130 
   1   2.0000     -19.635677      -534.3139 
   2   2.0000     -19.635616      -534.3123 
   3   2.0000     -10.598291      -288.3942 
   4   2.0000     -10.598199      -288.3917 
   5   2.0000     -10.572165      -287.6832 
   6   2.0000     -10.569611      -287.6137 
   7   2.0000     -10.569447      -287.6093 
   8   2.0000     -10.568744      -287.5902 
   9   2.0000     -10.567550      -287.5577 
  10   2.0000     -10.566581      -287.5313 
  11   2.0000      -6.847042      -186.3175 
  12   2.0000      -4.961174      -135.0004 
  13   2.0000      -4.961014      -134.9961 
  14   2.0000      -4.960781      -134.9897 
  15   2.0000      -1.152587       -31.3635 
  16   2.0000      -1.151575       -31.3360 
  17   2.0000      -0.973300       -26.4848 
  18   2.0000      -0.866577       -23.5807 
  19   2.0000      -0.858406       -23.3584 
  20   2.0000      -0.808586       -22.0028 
  21   2.0000      -0.758957       -20.6523 
  22   2.0000      -0.710128       -19.3236 
  23   2.0000      -0.702823       -19.1248 
  24   2.0000      -0.649051       -17.6616 
  25   2.0000      -0.596155       -16.2222 
  26   2.0000      -0.583169       -15.8688 
  27   2.0000      -0.577563       -15.7163 
  28   2.0000      -0.536456       -14.5977 
  29   2.0000      -0.530559       -14.4372 
  30   2.0000      -0.520426       -14.1615 
  31   2.0000      -0.516382       -14.0515 
  32   2.0000      -0.506659       -13.7869 
  33   2.0000      -0.501941       -13.6585 
  34   2.0000      -0.479149       -13.0383 
  35   2.0000      -0.454104       -12.3568 
  36   2.0000      -0.443305       -12.0629 
  37   2.0000      -0.420117       -11.4320 
  38   2.0000      -0.401776       -10.9329 
  39   2.0000      -0.391651       -10.6574 
  40   2.0000      -0.370910       -10.0930 
  41   2.0000      -0.340258        -9.2589 
  42   2.0000      -0.328392        -8.9360 
  43   2.0000      -0.318368        -8.6632 
  44   2.0000      -0.292136        -7.9494 
  45   0.0000      -0.017371        -0.4727 
  46   0.0000      -0.003451        -0.0939 
  47   0.0000       0.044071         1.1992 
  48   0.0000       0.057940         1.5766 
  49   0.0000       0.060247         1.6394 
  50   0.0000       0.069755         1.8981 
  51   0.0000       0.089877         2.4457 
  52   0.0000       0.099530         2.7084 
  53   0.0000       0.108617         2.9556 
  54   0.0000       0.112885         3.0717 
  55   0.0000       0.117618         3.2006 
*Only the first 10 virtual orbitals were printed.

                    ********************************
                    * MULLIKEN POPULATION ANALYSIS *
                    ********************************

-----------------------
MULLIKEN ATOMIC CHARGES
-----------------------
   0 C :   -0.128221
   1 C :   -0.158548
   2 C :   -0.041458
   3 C :   -0.314798
   4 C :   -0.165392
   5 C :   -0.145157
   6 P :    0.205921
   7 C :   -0.199275
   8 O :   -0.443756
   9 C :   -0.197514
  10 O :   -0.444607
  11 H :    0.152974
  12 H :    0.153169
  13 H :    0.164837
  14 H :    0.173782
  15 H :    0.153622
  16 H :    0.153136
  17 H :    0.128324
  18 H :    0.335835
  19 H :    0.152731
  20 H :    0.128618
  21 H :    0.335775
Sum of atomic charges:   -0.0000000

--------------------------------
MULLIKEN REDUCED ORBITAL CHARGES
--------------------------------
  0 C s       :     3.223441  s :     3.223441
      pz      :     0.884898  p :     2.837677
      px      :     1.003796
      py      :     0.948982
      dz2     :     0.013145  d :     0.060834
      dxz     :     0.014263
      dyz     :     0.019820
      dx2y2   :     0.008000
      dxy     :     0.005607
      f0      :     0.001330  f :     0.006269
      f+1     :     0.001131
      f-1     :     0.001012
      f+2     :     0.000839
      f-2     :     0.000794
      f+3     :     0.000743
      f-3     :     0.000419

  1 C s       :     3.237006  s :     3.237006
      pz      :     0.997655  p :     2.855108
      px      :     0.900598
      py      :     0.956855
      dz2     :     0.012688  d :     0.060195
      dxz     :     0.015266
      dyz     :     0.006851
      dx2y2   :     0.007130
      dxy     :     0.018259
      f0      :     0.001093  f :     0.006238
      f+1     :     0.001033
      f-1     :     0.000406
      f+2     :     0.001113
      f-2     :     0.000592
      f+3     :     0.000729
      f-3     :     0.001272

  2 C s       :     3.163604  s :     3.163604
      pz      :     0.936689  p :     2.807066
      px      :     0.948870
      py      :     0.921507
      dz2     :     0.012354  d :     0.064315
      dxz     :     0.020899
      dyz     :     0.009859
      dx2y2   :     0.006266
      dxy     :     0.014936
      f0      :     0.001177  f :     0.006473
      f+1     :     0.001119
      f-1     :     0.000808
      f+2     :     0.001214
      f-2     :     0.000279
      f+3     :     0.000719
      f-3     :     0.001157

  3 C s       :     3.354655  s :     3.354655
      pz      :     0.886527  p :     2.881225
      px      :     0.970451
      py      :     1.024246
      dz2     :     0.013913  d :     0.072287
      dxz     :     0.016942
      dyz     :     0.020816
      dx2y2   :     0.008928
      dxy     :     0.011687
      f0      :     0.001387  f :     0.006631
      f+1     :     0.001127
      f-1     :     0.000933
      f+2     :     0.001014
      f-2     :     0.000827
      f+3     :     0.000635
      f-3     :     0.000709

  4 C s       :     3.179952  s :     3.179952
      pz      :     0.966201  p :     2.912862
      px      :     0.969059
      py      :     0.977602
      dz2     :     0.015834  d :     0.066234
      dxz     :     0.015930
      dyz     :     0.006090
      dx2y2   :     0.008582
      dxy     :     0.019798
      f0      :     0.001104  f :     0.006344
      f+1     :     0.001070
      f-1     :     0.000334
      f+2     :     0.001112
      f-2     :     0.000571
      f+3     :     0.000843
      f-3     :     0.001309

  5 C s       :     3.225489  s :     3.225489
      pz      :     0.963128  p :     2.852040
      px      :     0.937097
      py      :     0.951815
      dz2     :     0.012363  d :     0.061379
      dxz     :     0.016054
      dyz     :     0.011733
      dx2y2   :     0.008055
      dxy     :     0.013174
      f0      :     0.001122  f :     0.006249
      f+1     :     0.001087
      f-1     :     0.000896
      f+2     :     0.001097
      f-2     :     0.000238
      f+3     :     0.000670
      f-3     :     0.001139

  6 P s       :     5.710713  s :     5.710713
      pz      :     3.148945  p :     8.844699
      px      :     2.911207
      py      :     2.784547
      dz2     :     0.033177  d :     0.216083
      dxz     :     0.021794
      dyz     :     0.067017
      dx2y2   :     0.061477
      dxy     :     0.032619
      f0      :     0.002548  f :     0.022583
      f+1     :     0.002387
      f-1     :     0.003973
      f+2     :     0.004089
      f-2     :     0.002485
      f+3     :     0.003429
      f-3     :     0.003672

  7 C s       :     3.261656  s :     3.261656
      pz      :     0.975897  p :     2.811693
      px      :     1.046478
      py      :     0.789318
      dz2     :     0.017971  d :     0.117844
      dxz     :     0.013514
      dyz     :     0.034995
      dx2y2   :     0.034867
      dxy     :     0.016497
      f0      :     0.000746  f :     0.008082
      f+1     :     0.000673
      f-1     :     0.001637
      f+2     :     0.000853
      f-2     :     0.001275
      f+3     :     0.000918
      f-3     :     0.001979

  8 O s       :     3.805011  s :     3.805011
      pz      :     1.806896  p :     4.607972
      px      :     1.344767
      py      :     1.456308
      dz2     :     0.004117  d :     0.029135
      dxz     :     0.002402
      dyz     :     0.005244
      dx2y2   :     0.010547
      dxy     :     0.006825
      f0      :     0.000327  f :     0.001638
      f+1     :     0.000241
      f-1     :     0.000219
      f+2     :     0.000232
      f-2     :     0.000195
      f+3     :     0.000233
      f-3     :     0.000191

  9 C s       :     3.261185  s :     3.261185
      pz      :     0.932186  p :     2.810304
      px      :     1.058819
      py      :     0.819299
      dz2     :     0.030820  d :     0.117943
      dxz     :     0.013677
      dyz     :     0.024768
      dx2y2   :     0.032366
      dxy     :     0.016312
      f0      :     0.000463  f :     0.008081
      f+1     :     0.000936
      f-1     :     0.002210
      f+2     :     0.001257
      f-2     :     0.000949
      f+3     :     0.000874
      f-3     :     0.001391

 10 O s       :     3.805459  s :     3.805459
      pz      :     1.733873  p :     4.608331
      px      :     1.352952
      py      :     1.521507
      dz2     :     0.004637  d :     0.029176
      dxz     :     0.002199
      dyz     :     0.006503
      dx2y2   :     0.009615
      dxy     :     0.006222
      f0      :     0.000295  f :     0.001641
      f+1     :     0.000240
      f-1     :     0.000209
      f+2     :     0.000261
      f-2     :     0.000264
      f+3     :     0.000172
      f-3     :     0.000200

 11 H s       :     0.827288  s :     0.827288
      pz      :     0.003004  p :     0.019738
      px      :     0.013014
      py      :     0.003720

 12 H s       :     0.827031  s :     0.827031
      pz      :     0.012098  p :     0.019800
      px      :     0.003874
      py      :     0.003828

 13 H s       :     0.815013  s :     0.815013
      pz      :     0.008855  p :     0.020150
      px      :     0.007564
      py      :     0.003732

 14 H s       :     0.806292  s :     0.806292
      pz      :     0.012114  p :     0.019926
      px      :     0.003936
      py      :     0.003875

 15 H s       :     0.826613  s :     0.826613
      pz      :     0.008825  p :     0.019765
      px      :     0.007096
      py      :     0.003843

 16 H s       :     0.827644  s :     0.827644
      pz      :     0.004339  p :     0.019220
      px      :     0.011868
      py      :     0.003013

 17 H s       :     0.853251  s :     0.853251
      pz      :     0.010194  p :     0.018425
      px      :     0.004024
      py      :     0.004207

 18 H s       :     0.618107  s :     0.618107
      pz      :     0.015982  p :     0.046057
      px      :     0.019218
      py      :     0.010858

 19 H s       :     0.828052  s :     0.828052
      pz      :     0.003734  p :     0.019217
      px      :     0.012052
      py      :     0.003431

 20 H s       :     0.852989  s :     0.852989
      pz      :     0.010895  p :     0.018393
      px      :     0.004195
      py      :     0.003303

 21 H s       :     0.618209  s :     0.618209
      pz      :     0.014981  p :     0.046016
      px      :     0.019419
      py      :     0.011616



                     *******************************
                     * LOEWDIN POPULATION ANALYSIS *
                     *******************************

----------------------
LOEWDIN ATOMIC CHARGES
----------------------
   0 C :   -0.132603
   1 C :   -0.134761
   2 C :   -0.141414
   3 C :   -0.321448
   4 C :   -0.160647
   5 C :   -0.140898
   6 P :    0.575394
   7 C :   -0.507657
   8 O :   -0.047888
   9 C :   -0.507104
  10 O :   -0.047954
  11 H :    0.150007
  12 H :    0.150572
  13 H :    0.152103
  14 H :    0.150019
  15 H :    0.150194
  16 H :    0.123290
  17 H :    0.101857
  18 H :    0.181643
  19 H :    0.123110
  20 H :    0.102188
  21 H :    0.181997

-------------------------------
LOEWDIN REDUCED ORBITAL CHARGES
-------------------------------
  0 C s       :     2.779572  s :     2.779572
      pz      :     1.064806  p :     2.939133
      px      :     0.998268
      py      :     0.876059
      dz2     :     0.129678  d :     0.373391
      dxz     :     0.106563
      dyz     :     0.071834
      dx2y2   :     0.050566
      dxy     :     0.014750
      f0      :     0.010298  f :     0.040506
      f+1     :     0.009477
      f-1     :     0.003984
      f+2     :     0.006658
      f-2     :     0.006308
      f+3     :     0.002867
      f-3     :     0.000914

  1 C s       :     2.779152  s :     2.779152
      pz      :     1.002349  p :     2.943230
      px      :     1.060110
      py      :     0.880772
      dz2     :     0.101054  d :     0.372045
      dxz     :     0.124907
      dyz     :     0.019712
      dx2y2   :     0.060615
      dxy     :     0.065757
      f0      :     0.007970  f :     0.040334
      f+1     :     0.008393
      f-1     :     0.002067
      f+2     :     0.007918
      f-2     :     0.004575
      f+3     :     0.005052
      f-3     :     0.004357

  2 C s       :     2.781572  s :     2.781572
      pz      :     1.020666  p :     2.936690
      px      :     1.047586
      py      :     0.868438
      dz2     :     0.080878  d :     0.382764
      dxz     :     0.164796
      dyz     :     0.038567
      dx2y2   :     0.048126
      dxy     :     0.050397
      f0      :     0.009355  f :     0.040387
      f+1     :     0.008370
      f-1     :     0.004847
      f+2     :     0.007113
      f-2     :     0.001660
      f+3     :     0.004451
      f-3     :     0.004590

  3 C s       :     2.787580  s :     2.787580
      pz      :     1.070901  p :     3.030315
      px      :     1.073573
      py      :     0.885841
      dz2     :     0.138700  d :     0.459071
      dxz     :     0.136820
      dyz     :     0.075890
      dx2y2   :     0.069823
      dxy     :     0.037838
      f0      :     0.011051  f :     0.044482
      f+1     :     0.010359
      f-1     :     0.003523
      f+2     :     0.007642
      f-2     :     0.006665
      f+3     :     0.002967
      f-3     :     0.002275

  4 C s       :     2.778338  s :     2.778338
      pz      :     1.001206  p :     2.955716
      px      :     1.059914
      py      :     0.894597
      dz2     :     0.105661  d :     0.386297
      dxz     :     0.126062
      dyz     :     0.020359
      dx2y2   :     0.064030
      dxy     :     0.070185
      f0      :     0.007959  f :     0.040296
      f+1     :     0.008310
      f-1     :     0.002007
      f+2     :     0.007891
      f-2     :     0.004825
      f+3     :     0.005019
      f-3     :     0.004286

  5 C s       :     2.779250  s :     2.779250
      pz      :     1.024713  p :     2.945934
      px      :     1.036758
      py      :     0.884464
      dz2     :     0.080895  d :     0.375186
      dxz     :     0.159733
      dyz     :     0.038344
      dx2y2   :     0.045917
      dxy     :     0.050296
      f0      :     0.009463  f :     0.040528
      f+1     :     0.008414
      f-1     :     0.005025
      f+2     :     0.006965
      f-2     :     0.001531
      f+3     :     0.004489
      f-3     :     0.004640

  6 P s       :     5.024397  s :     5.024397
      pz      :     3.133002  p :     8.864455
      px      :     2.941059
      py      :     2.790394
      dz2     :     0.066947  d :     0.446416
      dxz     :     0.061588
      dyz     :     0.130269
      dx2y2   :     0.118135
      dxy     :     0.069477
      f0      :     0.009093  f :     0.089338
      f+1     :     0.008063
      f-1     :     0.017446
      f+2     :     0.018806
      f-2     :     0.008735
      f+3     :     0.014331
      f-3     :     0.012864

  7 C s       :     2.888237  s :     2.888237
      pz      :     1.086961  p :     3.067309
      px      :     1.041953
      py      :     0.938396
      dz2     :     0.081233  d :     0.491530
      dxz     :     0.051879
      dyz     :     0.151180
      dx2y2   :     0.128909
      dxy     :     0.078330
      f0      :     0.005945  f :     0.060581
      f+1     :     0.005811
      f-1     :     0.010459
      f+2     :     0.005265
      f-2     :     0.009686
      f+3     :     0.010164
      f-3     :     0.013250

  8 O s       :     3.374123  s :     3.374123
      pz      :     1.720871  p :     4.597422
      px      :     1.353060
      py      :     1.523492
      dz2     :     0.008490  d :     0.071747
      dxz     :     0.007442
      dyz     :     0.012371
      dx2y2   :     0.027684
      dxy     :     0.015760
      f0      :     0.000558  f :     0.004595
      f+1     :     0.000330
      f-1     :     0.000533
      f+2     :     0.000489
      f-2     :     0.000567
      f+3     :     0.000804
      f-3     :     0.001314

  9 C s       :     2.888437  s :     2.888437
      pz      :     1.038057  p :     3.066421
      px      :     1.050241
      py      :     0.978122
      dz2     :     0.112858  d :     0.491656
      dxz     :     0.054643
      dyz     :     0.124975
      dx2y2   :     0.128821
      dxy     :     0.070358
      f0      :     0.004720  f :     0.060591
      f+1     :     0.007167
      f-1     :     0.012740
      f+2     :     0.008880
      f-2     :     0.009137
      f+3     :     0.008520
      f-3     :     0.009427

 10 O s       :     3.374173  s :     3.374173
      pz      :     1.678099  p :     4.597413
      px      :     1.359527
      py      :     1.559787
      dz2     :     0.011244  d :     0.071768
      dxz     :     0.007911
      dyz     :     0.014153
      dx2y2   :     0.024869
      dxy     :     0.013590
      f0      :     0.000486  f :     0.004600
      f+1     :     0.000420
      f-1     :     0.000712
      f+2     :     0.000553
      f-2     :     0.000695
      f+3     :     0.000624
      f-3     :     0.001110

 11 H s       :     0.794052  s :     0.794052
      pz      :     0.010629  p :     0.055940
      px      :     0.033672
      py      :     0.011639

 12 H s       :     0.793437  s :     0.793437
      pz      :     0.031493  p :     0.055991
      px      :     0.012575
      py      :     0.011923

 13 H s       :     0.791358  s :     0.791358
      pz      :     0.024017  p :     0.056538
      px      :     0.020815
      py      :     0.011706

 14 H s       :     0.793221  s :     0.793221
      pz      :     0.031579  p :     0.056759
      px      :     0.012683
      py      :     0.012497

 15 H s       :     0.793797  s :     0.793797
      pz      :     0.024009  p :     0.056009
      px      :     0.019977
      py      :     0.012023

 16 H s       :     0.819022  s :     0.819022
      pz      :     0.013167  p :     0.057688
      px      :     0.034030
      py      :     0.010491

 17 H s       :     0.840079  s :     0.840079
      pz      :     0.030301  p :     0.058064
      px      :     0.014502
      py      :     0.013262

 18 H s       :     0.665284  s :     0.665284
      pz      :     0.045675  p :     0.153074
      px      :     0.072371
      py      :     0.035028

 19 H s       :     0.819206  s :     0.819206
      pz      :     0.011591  p :     0.057684
      px      :     0.034667
      py      :     0.011426

 20 H s       :     0.839767  s :     0.839767
      pz      :     0.032573  p :     0.058045
      px      :     0.015013
      py      :     0.010460

 21 H s       :     0.665112  s :     0.665112
      pz      :     0.041316  p :     0.152891
      px      :     0.073989
      py      :     0.037587



                      *****************************
                      * MAYER POPULATION ANALYSIS *
                      *****************************

  NA   - Mulliken gross atomic population
  ZA   - Total nuclear charge
  QA   - Mulliken gross atomic charge
  VA   - Mayer's total valence
  BVA  - Mayer's bonded valence
  FA   - Mayer's free valence

  ATOM       NA         ZA         QA         VA         BVA        FA
  0 C      6.1282     6.0000    -0.1282     3.9249     3.9249     0.0000
  1 C      6.1585     6.0000    -0.1585     3.9668     3.9668    -0.0000
  2 C      6.0415     6.0000    -0.0415     3.8433     3.8433    -0.0000
  3 C      6.3148     6.0000    -0.3148     3.8525     3.8525    -0.0000
  4 C      6.1654     6.0000    -0.1654     3.7851     3.7851     0.0000
  5 C      6.1452     6.0000    -0.1452     4.0132     4.0132     0.0000
  6 P     14.7941    15.0000     0.2059     3.0121     3.0121    -0.0000
  7 C      6.1993     6.0000    -0.1993     3.8887     3.8887    -0.0000
  8 O      8.4438     8.0000    -0.4438     1.8986     1.8986     0.0000
  9 C      6.1975     6.0000    -0.1975     3.8885     3.8885    -0.0000
 10 O      8.4446     8.0000    -0.4446     1.8981     1.8981    -0.0000
 11 H      0.8470     1.0000     0.1530     0.9630     0.9630     0.0000
 12 H      0.8468     1.0000     0.1532     0.9644     0.9644    -0.0000
 13 H      0.8352     1.0000     0.1648     0.9690     0.9690    -0.0000
 14 H      0.8262     1.0000     0.1738     0.9564     0.9564     0.0000
 15 H      0.8464     1.0000     0.1536     0.9641     0.9641     0.0000
 16 H      0.8469     1.0000     0.1531     0.9543     0.9543    -0.0000
 17 H      0.8717     1.0000     0.1283     0.9466     0.9466    -0.0000
 18 H      0.6642     1.0000     0.3358     0.9006     0.9006    -0.0000
 19 H      0.8473     1.0000     0.1527     0.9538     0.9538    -0.0000
 20 H      0.8714     1.0000     0.1286     0.9459     0.9459    -0.0000
 21 H      0.6642     1.0000     0.3358     0.9003     0.9003    -0.0000

  Mayer bond orders larger than 0.100000
B(  0-C ,  1-C ) :   1.4383 B(  0-C ,  5-C ) :   1.4342 B(  0-C , 11-H ) :   0.9447 
B(  1-C ,  2-C ) :   1.4533 B(  1-C , 12-H ) :   0.9471 B(  2-C ,  3-C ) :   1.4033 
B(  2-C , 13-H ) :   0.9289 B(  3-C ,  4-C ) :   1.2641 B(  3-C ,  6-P ) :   0.9975 
B(  4-C ,  5-C ) :   1.4914 B(  4-C , 14-H ) :   0.9285 B(  5-C , 15-H ) :   0.9415 
B(  6-P ,  7-C ) :   0.9656 B(  6-P ,  9-C ) :   0.9655 B(  7-C ,  8-O ) :   0.9803 
B(  7-C , 16-H ) :   0.9495 B(  7-C , 17-H ) :   0.9475 B(  8-O , 18-H ) :   0.8730 
B(  9-C , 10-O ) :   0.9802 B(  9-C , 19-H ) :   0.9489 B(  9-C , 20-H ) :   0.9469 
B( 10-O , 21-H ) :   0.8731 

-------
TIMINGS
-------

Total SCF time: 0 days 0 hours 0 min 35 sec 

Total time                  ....      35.171 sec
Sum of individual times     ....      35.159 sec  (100.0%)

SCF preparation             ....       0.168 sec  (  0.5%)
Fock matrix formation       ....      34.009 sec  ( 96.7%)
  Startup                   ....       0.040 sec  (  0.1% of F)
  Split-RI-J                ....       2.190 sec  (  6.4% of F)
  Chain of spheres X        ....      22.906 sec  ( 67.4% of F)
  XC integration            ....       8.742 sec  ( 25.7% of F)
    Basis function eval.    ....       1.177 sec  ( 13.5% of XC)
    Density eval.           ....       3.348 sec  ( 38.3% of XC)
    XC-Functional eval.     ....       0.253 sec  (  2.9% of XC)
    XC-Potential eval.      ....       3.494 sec  ( 40.0% of XC)
Diagonalization             ....       0.000 sec  (  0.0%)
Density matrix formation    ....       0.099 sec  (  0.3%)
Total Energy calculation    ....       0.042 sec  (  0.1%)
Population analysis         ....       0.068 sec  (  0.2%)
Orbital Transformation      ....       0.107 sec  (  0.3%)
Orbital Orthonormalization  ....       0.000 sec  (  0.0%)
DIIS solution               ....       0.483 sec  (  1.4%)
SOSCF solution              ....       0.183 sec  (  0.5%)
Finished LeanSCF after  35.2 sec

Maximum memory used throughout the entire LEANSCF-calculation: 45.4 MB


-------------------------------------------------------------------------------
                          DFT DISPERSION CORRECTION                            
                                                                               
                              DFTD3 V3.1  Rev 1                                
                              USING zero damping                               
-------------------------------------------------------------------------------
The M062X functional is recognized
Active option DFTDOPT                   ...         3   

molecular C6(AA) [au] = 5835.522256 


            DFT-D V3
 parameters
 s6 scaling factor         :     1.0000 
 rs6 scaling factor        :     1.6190 
 s8 scaling factor         :     0.0000 
 rs8 scaling factor        :     1.0000 
 Damping factor alpha6     :    14.0000 
 Damping factor alpha8     :    16.0000 
 ad hoc parameters k1-k3   :    16.0000     1.3333    -4.0000 

 Edisp/kcal,au: -0.549220409143  -0.000875238340 
 E6   /kcal   :  -0.549220409 
 E8   /kcal   :  -0.000000000 
 % E8         :   0.000000000 

-------------------------   ----------------
Dispersion correction           -0.000875238
-------------------------   ----------------


-------------------------   --------------------
FINAL SINGLE POINT ENERGY      -803.220450430880
-------------------------   --------------------



           ************************************************************
           *        Program running with 6 parallel MPI-processes     *
           *              working on a common directory               *
           ************************************************************

------------------------------------------------------------------------------
                              ORCA PROPERTY CALCULATIONS
------------------------------------------------------------------------------

GBWName                                 ... data/single_point_P_M06-2x/201037/201037.gbw
Number of atoms                         ...     22
Number of basis functions               ...    413
Max core memory                         ...   1024 MB

Electric properties:
Dipole moment                           ... YES
Quadrupole moment                       ...  NO
Static polarizability (Dipole/Dipole)   ...  NO
Static polarizability (Dipole/Quad.)    ...  NO
Static polarizability (Quad./Quad.)     ...  NO
Static polarizability (Velocity)        ...  NO

Atomic electric properties:
Dipole moment                           ...  NO
Quadrupole moment                       ...  NO
Static polarizability                   ...  NO

Choice of electric origin               ... Center of mass
Position of electric origin             ...    -0.489535     0.052146     0.286622

General magnetic properties:
Magnetizability                         ...  NO

EPR properties:
g-Tensor (aka g-matrix)                 ...  NO
Zero-Field splitting spin-orbit         ...  NO
Zero-field splitting spin-spin          ...  NO
Hyperfine couplings                     ...  NO (   0 nuclei)
Quadrupole couplings                    ...  NO (   0 nuclei)
Contact density                         ...  NO (   0 nuclei)

NMR properties:
Chemical shifts                         ...  NO (   0 nuclei)
Spin-rotation constants                 ...  NO (   0 nuclei)
Spin-spin couplings                     ...  NO (   0 nuclei,    0 pairs)

Choice of magnetic origin               ... GIAO
Position of magnetic origin             ...     0.000000     0.000000     0.000000

Properties with geometric perturbations:
SCF Hessian                             ...  NO
IR spectrum                             ...  NO
VCD spectrum                            ...  NO
X-ray spectroscopy properties:
SCF XES/XAS/RIXS spectra                ...  NO


-------------
DIPOLE MOMENT
-------------

Method             : SCF
Type of density    : Electron Density
Multiplicity       :   1
Irrep              :   0
Energy             :  -803.2195751925397644 Eh
Relativity type    : 
Basis              : AO
                                X                 Y                 Z
Electronic contribution:     -2.854982930       0.545952089       3.467126313
Nuclear contribution   :      3.940744960      -0.613092265      -3.731868102
                        -----------------------------------------
Total Dipole Moment    :      1.085762031      -0.067140176      -0.264741789
                        -----------------------------------------
Magnitude (a.u.)       :      1.119587069
Magnitude (Debye)      :      2.845764173



--------------------
Rotational spectrum 
--------------------
 
Rotational constants in cm-1:             0.041718             0.024992             0.019854 
Rotational constants in MHz :          1250.682796           749.255136           595.214303 

Dipole components along the rotational axes: 
x,y,z [a.u.] :     0.915895     0.011106     0.643807 
x,y,z [Debye]:     2.328021     0.028229     1.636428 

 

Dipole moment calculation done in   0.0 sec 

Maximum memory used throughout the entire PROP-calculation: 23.1 MB

--------------------------------
SUGGESTED CITATIONS FOR THIS RUN
--------------------------------

Below you find a list of papers that are relevant to this ORCA run
We neither can nor want to force you to cite these papers, but we appreciate if you do
You receive ORCA, which is the product of decades of hard work by many enthusiastic individuals, for free
The only thing we kindly ask in return is that you cite our papers,
We deeply appreciate it, if you show your appreciation for ORCA by not just citing the generic ORCA reference.

Please note that relegating all ORCA citations to the supporting information does *not* help us.
SI sections are not indexed - citations you put there will not count into any citation statistics
But we need these citations in order to attract the funding resources that allow us to do what we are doing

Therefore, if you are a happy ORCA user, please consider citing a few of the papers listed below in the main body of your paper

In addition to the list printed below, the program has created the file data/single_point_P_M06-2x/201037/201037.bibtex that contains the list in bibtex format
You can import this file easily into all common literature databanks and citation aid programs


List of essential papers. We consider these as the minimum necessary citations

  1. Neese,F.
     Software update: the ORCA program system, version 5.0
     WIRES Comput. Molec. Sci., 2022 12(1)e1606
     doi.org/10.1002/wcms.1606

List of papers to cite with high priority. The work reported in these papers was absolutely
necessary for this run to complete.
Our perspective: the developers of density functionals and basis sets usually get cited in chemistry papers
Good! But without the algorithms to do something with them, the functionals or basis sets would not do anything.
Hence, in our opinion, the algorithm design and method developments papers are equally worthy of getting cited

  1. Neese,F.
     An improvement of the resolution of the identity approximation for the formation of the Coulomb matrix
     J. Comp. Chem., 2003 24(14)1740-1747
     doi.org/10.1002/jcc.10318
  2. Neese,F.; Wennmohs,F.; Hansen,A.; Becker,U.
     Efficient, approximate and parallel Hartree-Fock and hybrid DFT calculations. A 'chain-of-spheres' algorithm for the Hartree-Fock exchange
     Chem. Phys., 2009 356(1-3)98-109
     doi.org/10.1016/j.chemphys.2008.10.036
  3. Helmich-Paris,B.; de Souza,B.; Neese,F.; Izsák,R.
     An improved chain of spheres for exchange algorithm
     J. Chem. Phys., 2021 155 104109
     doi.org/doi: 10.1063/5.0058766.
  4. Neese,F.
     The SHARK Integral Generation and Digestion System
     J. Comp. Chem., 2022  1-16
     doi.org/10.1002/jcc.26942
  5. Grimme,S.; Antony,J.; Ehrlich,S.; Krieg,H.
     A consistent and accurate ab initio parametrization of density functional dispersion correction (DFT-D) for the 94 elements H-Pu
     J. Chem. Phys., 2010 132 154104-XXXX
     doi.org/10.1063/1.3382344

List of suggested additional citations. These are papers that are important in the 'surrounding' of 
of this run, or papers that preceded the highly important papers. If you like your results we are grateful for a citation.

  1. Izsak,R.; Neese,F.
     An overlap fitted chain of spheres exchange method
     J. Chem. Phys., 2011 135 144105
     doi.org/10.1063/1.3646921
  2. Izsak,R.; Hansen,A.; Neese,F.
     The resolution of identity and chain of spheres approximations for the LPNO-CCSD singles Fock term
     Molec. Phys., 2012 110 2413-2417
     doi.org/10.1080/00268976.2012.687466
  3. Neese,F.
     The ORCA program system
     WIRES Comput. Molec. Sci., 2012 2(1)73-78
     doi.org/10.1002/wcms.81
  4. Izsak,R.; Neese,F.; Klopper,W.
     Robust fitting techniques in the chain of spheres approximation to the Fock exchange: The role of the complementary space
     J. Chem. Phys., 2013 139 
     doi.org/10.1063/1.4819264
  5. Neese,F.
     Software update: the ORCA program system, version 4.0
     WIRES Comput. Molec. Sci., 2018 8(1)1-6
     doi.org/10.1002/wcms.1327
  6. Neese,F.; Wennmohs,F.; Becker,U.; Riplinger,C.
     The ORCA quantum chemistry program package
     J. Chem. Phys., 2020 152 Art. No. L224108
     doi.org/10.1063/5.0004608

List of optional additional citations

  1. Neese,F.
     Approximate second-order SCF convergence for spin unrestricted wavefunctions
     Chem. Phys. Lett., 2000 325(1-3)93-98
     doi.org/10.1016/s0009-2614(00)00662-x

Timings for individual modules:

Sum of individual times          ...       37.887 sec (=   0.631 min)
Startup calculation              ...        1.728 sec (=   0.029 min)   4.6 %
SCF iterations                   ...       35.987 sec (=   0.600 min)  95.0 %
Property calculations            ...        0.172 sec (=   0.003 min)   0.5 %
                             ****ORCA TERMINATED NORMALLY****
TOTAL RUN TIME: 0 days 0 hours 0 minutes 38 seconds 113 msec
