
                                 *****************
                                 * O   R   C   A *
                                 *****************

                                            #,                                       
                                            ###                                      
                                            ####                                     
                                            #####                                    
                                            ######                                   
                                           ########,                                 
                                     ,,################,,,,,                         
                               ,,#################################,,                 
                          ,,##########################################,,             
                       ,#########################################, ''#####,          
                    ,#############################################,,   '####,        
                  ,##################################################,,,,####,       
                ,###########''''           ''''###############################       
              ,#####''   ,,,,##########,,,,          '''####'''          '####       
            ,##' ,,,,###########################,,,                        '##       
           ' ,,###''''                  '''############,,,                           
         ,,##''                                '''############,,,,        ,,,,,,###''
      ,#''                                            '''#######################'''  
     '                                                          ''''####''''         
             ,#######,   #######,   ,#######,      ##                                
            ,#'     '#,  ##    ##  ,#'     '#,    #''#        ,####,   ,####,        
            ##       ##  ##   ,#'  ##            #'  '#       #'       #'  '#        
            ##       ##  #######   ##           ,######,      #####,   #    #        
            '#,     ,#'  ##    ##  '#,     ,#' ,#      #,     #,   #   #,  ,#        
             '#######'   ##     ##  '#######'  #'      '#     '####' # '####'        



                #########################################################
                #                        -***-                          #
                #          Department of theory and spectroscopy        #
                #                                                       #
                #                      Frank Neese                      #
                #                                                       #
                #     Directorship, Architecture, Infrastructure        #
                #                    SHARK, DRIVERS                     #
                #        Core code/Algorithms in most modules           #
                #                                                       #
                #        Max Planck Institute fuer Kohlenforschung      #
                #                Kaiser Wilhelm Platz 1                 #
                #                 D-45470 Muelheim/Ruhr                 #
                #                      Germany                          #
                #                                                       #
                #                  All rights reserved                  #
                #                        -***-                          #
                #########################################################


                         Program Version 6.0.0  -   RELEASE   -


 With contributions from (in alphabetic order):
   Daniel Aravena         : Magnetic Suceptibility
   Michael Atanasov       : Ab Initio Ligand Field Theory (pilot matlab implementation)
   Alexander A. Auer      : GIAO ZORA, VPT2 properties, NMR spectrum
   Ute Becker             : All parallelization in ORCA, NUMFREQ, NUMCALC
   Giovanni Bistoni       : ED, misc. LED, open-shell LED, HFLD
   Martin Brehm           : Molecular dynamics
   Dmytro Bykov           : pre 5.0 version of the SCF Hessian
   Marcos Casanova-Páez   : Triplet and SCS-CIS(D). UHF-(DLPNO)-IP/EA/STEOM-CCSD. UHF-CVS-IP/STEOM-CCSD
   Vijay G. Chilkuri      : MRCI spin determinant printing, contributions to CSF-ICE
   Pauline Colinet        : FMM embedding
   Dipayan Datta          : RHF DLPNO-CCSD density
   Achintya Kumar Dutta   : EOM-CC, STEOM-CC
   Nicolas Foglia         : Exact transition moments, OPA infrastructure, MCD improvements
   Dmitry Ganyushin       : Spin-Orbit,Spin-Spin,Magnetic field MRCI
   Miquel Garcia          : C-PCM and meta-GGA Hessian, CCSD/C-PCM, Gaussian charge scheme
   Tiago L. C. Gouveia    : GS-ROHF, GS-ROCIS
   Yang Guo               : DLPNO-NEVPT2, F12-NEVPT2, CIM, IAO-localization
   Andreas Hansen         : Spin unrestricted coupled pair/coupled cluster methods
   Ingolf Harden          : AUTO-CI MPn and infrastructure 
   Benjamin Helmich-Paris : MC-RPA, TRAH-(SCF,CASSCF), AVAS, COSX integrals, SCF dyn. polar.
   Lee Huntington         : MR-EOM, pCC
   Robert Izsak           : Overlap fitted RIJCOSX, COSX-SCS-MP3, EOM
   Riya Kayal             : Wick's Theorem for AUTO-CI, AUTO-CI UHF-CCSDT
   Emily Kempfer          : AUTO-CI, RHF CISDT and CCSDT
   Christian Kollmar      : KDIIS, OOCD, Brueckner-CCSD(T), CCSD density, CASPT2, CASPT2-K, improved NEVPT2
   Axel Koslowski         : Symmetry handling
   Simone Kossmann        : Meta GGA functionals, TD-DFT gradient, OOMP2, (MP2 Hessian; deprecated post 5.0)
   Lucas Lang             : DCDCAS
   Marvin Lechner         : AUTO-CI (C++ implementation), FIC-MRCC
   Spencer Leger          : CASSCF response
   Dagmar Lenk            : GEPOL surface, SMD, ORCA-2-JSON
   Dimitrios Liakos       : Extrapolation schemes; Compound Job, initial MDCI parallelization
   Dimitrios Manganas     : Further ROCIS development; embedding schemes. LFT, Crystal Embedding
   Dimitrios Pantazis     : SARC Basis sets
   Anastasios Papadopoulos: AUTO-CI, single reference methods and gradients
   Taras Petrenko         : pre 6.0 DFT Hessian and TD-DFT gradient, (ASA, deprecated), ECA, 1-Electron XAS/XES, NRVS
   Peter Pinski           : DLPNO-MP2, DLPNO-MP2 Gradient
   Christoph Reimann      : Effective Core Potentials
   Marius Retegan         : Local ZFS, SOC
   Christoph Riplinger    : Optimizer, TS searches, QM/MM, DLPNO-CCSD(T), (RO)-DLPNO pert. Triples
   Michael Roemelt        : Original ROCIS implementation
   Masaaki Saitow         : Open-shell DLPNO-CCSD energy and density
   Barbara Sandhoefer     : DKH picture change effects
   Kantharuban Sivalingam : CASSCF convergence/infrastructure, NEVPT2 and variants, FIC-MRCI
   Bernardo de Souza      : ESD, SOC TD-DFT
   Georgi Stoychev        : AutoAux, RI-MP2 NMR, DLPNO-MP2 response, X2C
   Van Anh Tran           : RI-MP2 g-tensors
   Willem Van den Heuvel  : Paramagnetic NMR
   Zikuan Wang            : NOTCH, Electric field optimization 
   Frank Wennmohs         : Technical directorship and infrastructure
   Hang Xu                : AUTO-CI-Response properties 


 We gratefully acknowledge several colleagues who have allowed us to
 interface, adapt or use parts of their codes:
   Stefan Grimme, W. Hujo, H. Kruse, P. Pracht,  : VdW corrections, initial TS optimization,
                  C. Bannwarth, S. Ehlert,         DFT functionals, gCP, sTDA/sTD-DF
                  L. Wittmann, M. Mueller
   Ed Valeev, F. Pavosevic, A. Kumar             : LibInt (2-el integral package), F12 methods
   Garnet Chan, S. Sharma, J. Yang, R. Olivares  : DMRG
   Ulf Ekstrom                                   : XCFun DFT Library
   Mihaly Kallay                                 : mrcc  (arbitrary order and MRCC methods)
   Frank Weinhold                                : gennbo (NPA and NBO analysis)
   Simon Mueller                                 : openCOSMO-RS
   Christopher J. Cramer and Donald G. Truhlar   : smd solvation model
   Lars Goerigk                                  : TD-DFT with DH, B97 family of functionals
   V. Asgeirsson, H. Jonsson                     : NEB implementation
   FAccTs GmbH                                   : IRC, NEB, NEB-TS, DLPNO-Multilevel, CI-OPT
                                                   MM, QMMM, 2- and 3-layer-ONIOM, Crystal-QMMM,
                                                   LR-CPCM, SF, NACMEs, symmetry and pop. for TD-DFT,
                                                   nearIR, NL-DFT gradient (VV10), updates on ESD,
                                                   ML-optimized integration grids, MBIS, APM,
                                                   GOAT, DOCKER, SOLVATOR, interface openCOSMO-RS
   S Lehtola, MJT Oliveira, MAL Marques          : LibXC Library
   Liviu Ungur et al                             : ANISO software


 Your calculation uses the libint2 library for the computation of 2-el integrals
 For citations please refer to: http://libint.valeyev.net

 Your ORCA version has been built with support for libXC version: 6.2.2
 For citations please refer to: https://libxc.gitlab.io

 This ORCA versions uses:
   CBLAS   interface :  Fast vector & matrix operations
   LAPACKE interface :  Fast linear algebra routines
   Shared memory     :  Shared parallel matrices


Your calculation utilizes the atom-pairwise dispersion correction
with the Becke-Johnson damping scheme (D3BJ)


Warning: RI is on but no J-basis has been assigned. Assigning Def2/J (nothing to worry about!)
================================================================================

----- Orbital basis set information -----
Your calculation utilizes the basis: def2-SVP
   F. Weigend and R. Ahlrichs, Phys. Chem. Chem. Phys. 7, 3297 (2005).

----- AuxJ basis set information -----
Your calculation utilizes the auxiliary basis: def2/J
   F. Weigend, Phys. Chem. Chem. Phys. 8, 1057 (2006).

================================================================================
                                        WARNINGS
                       Please study these warnings very carefully!
================================================================================


WARNING: Geometry Optimization
  ===> : Switching off AutoStart
         For restart on a previous wavefunction, please use MOREAD

================================================================================
                                       INPUT FILE
================================================================================
NAME = data/geom_opt/77639/77639.inp
|  1> ! RIJONX B3LYP def2-SVP D3BJ TIGHTSCF Opt
|  2> %pal
|  3> nprocs 6
|  4> end
|  5> 
|  6> * xyz 0 1
|  7> C      2.520376   -1.288477   -0.135203
|  8> C      1.641830   -0.037559   -0.150443
|  9> P      0.003720   -0.301190    0.692044
| 10> C     -0.739946    1.391905    0.484480
| 11> C     -0.187344    2.405166    1.486879
| 12> C     -0.843235    3.707414    1.311342
| 13> N     -1.368278    4.730818    1.161682
| 14> C     -0.903580   -1.216832   -0.650008
| 15> C     -2.327077   -1.598695   -0.244168
| 16> C     -2.977605   -2.360539   -1.318067
| 17> N     -3.480077   -2.960369   -2.174310
| 18> C      3.816675   -1.010188   -0.766882
| 19> N      4.836074   -0.777463   -1.268965
| 20> H      2.683598   -1.627402    0.895037
| 21> H      2.030447   -2.112449   -0.666258
| 22> H      1.475765    0.301892   -1.179900
| 23> H      2.164439    0.773760    0.369854
| 24> H     -0.578669    1.741294   -0.542411
| 25> H     -1.824153    1.305707    0.622794
| 26> H      0.894254    2.526480    1.358773
| 27> H     -0.347872    2.052953    2.513077
| 28> H     -0.339678   -2.128566   -0.879839
| 29> H     -0.914757   -0.612488   -1.565011
| 30> H     -2.921119   -0.703843   -0.026602
| 31> H     -2.313787   -2.201332    0.672105
| 32> **                         ****END OF INPUT****
================================================================================

                       *****************************
                       * Geometry Optimization Run *
                       *****************************

Geometry optimization settings:
Update method            Update   .... BFGS
Choice of coordinates    CoordSys .... (2022) Redundant Internals
Initial Hessian          InHess   .... Almloef's Model
Max. no of cycles        MaxIter  .... 75

Convergence Tolerances:
Energy Change            TolE     ....  5.0000e-06 Eh
Max. Gradient            TolMAXG  ....  3.0000e-04 Eh/bohr
RMS Gradient             TolRMSG  ....  1.0000e-04 Eh/bohr
Max. Displacement        TolMAXD  ....  4.0000e-03 bohr
RMS Displacement         TolRMSD  ....  2.0000e-03 bohr
Strict Convergence                .... False

------------------------------------------------------------------------------
                        ORCA OPTIMIZATION COORDINATE SETUP
------------------------------------------------------------------------------

The optimization will be done in redundant internal coordinates (2022)
Making redundant internal coordinates   ...  (2022 redundants) done
Evaluating the initial hessian          ...  (Almloef) done
Evaluating the coordinates              ...  done
Calculating the B-matrix                .... done
Calculating the G-matrix                .... done
Diagonalizing the G-matrix              .... done
Small eigenvalue found = 1.088e-02
Small eigenvalue found = 1.143e-02
Small eigenvalue found = 2.006e-02
The first mode is                       ....   36
The number of degrees of freedom        ....   69

    -----------------------------------------------------------------
                    Redundant Internal Coordinates


    -----------------------------------------------------------------
         Definition                    Initial Value    Approx d2E/dq
    -----------------------------------------------------------------
      1. B(C   1,C   0)                  1.5287         0.375387   
      2. B(P   2,C   1)                  1.8608         0.372437   
      3. B(C   3,P   2)                  1.8608         0.372436   
      4. B(C   4,C   3)                  1.5287         0.375387   
      5. B(C   5,C   4)                  1.4686         0.468057   
      6. B(N   6,C   5)                  1.1599         1.303007   
      7. B(C   7,P   2)                  1.8608         0.372434   
      8. B(C   8,C   7)                  1.5287         0.375388   
      9. B(C   9,C   8)                  1.4686         0.468060   
     10. B(N  10,C   9)                  1.1599         1.303003   
     11. B(C  11,C   0)                  1.4686         0.468059   
     12. B(N  12,C  11)                  1.1599         1.303010   
     13. B(H  13,C   0)                  1.0968         0.351254   
     14. B(H  14,C   0)                  1.0959         0.352389   
     15. B(H  15,C   1)                  1.0966         0.351442   
     16. B(H  16,C   1)                  1.0964         0.351747   
     17. B(H  17,C   3)                  1.0966         0.351441   
     18. B(H  18,C   3)                  1.0964         0.351748   
     19. B(H  19,C   4)                  1.0959         0.352387   
     20. B(H  20,C   4)                  1.0968         0.351254   
     21. B(H  21,C   7)                  1.0964         0.351748   
     22. B(H  22,C   7)                  1.0966         0.351441   
     23. B(H  23,C   8)                  1.0959         0.352388   
     24. B(H  24,C   8)                  1.0968         0.351255   
     25. A(C   1,C   0,H  14)          110.7013         0.323425   
     26. A(H  13,C   0,H  14)          106.8208         0.288725   
     27. A(C  11,C   0,H  13)          109.3430         0.335249   
     28. A(C   1,C   0,H  13)          110.3506         0.323254   
     29. A(C  11,C   0,H  14)          109.1866         0.335429   
     30. A(C   1,C   0,C  11)          110.3605         0.378032   
     31. A(P   2,C   1,H  15)          109.6068         0.342734   
     32. A(P   2,C   1,H  16)          108.0349         0.342784   
     33. A(C   0,C   1,H  16)          109.0783         0.323329   
     34. A(C   0,C   1,H  15)          110.4681         0.323283   
     35. A(C   0,C   1,P   2)          112.6733         0.386782   
     36. A(H  15,C   1,H  16)          106.7749         0.288667   
     37. A(C   1,P   2,C   3)           99.9277         0.411505   
     38. A(C   1,P   2,C   7)           99.9277         0.411505   
     39. A(C   3,P   2,C   7)           99.9276         0.411505   
     40. A(H  17,C   3,H  18)          106.7750         0.288667   
     41. A(P   2,C   3,H  18)          108.0349         0.342784   
     42. A(C   4,C   3,H  18)          109.0784         0.323329   
     43. A(C   4,C   3,H  17)          110.4681         0.323282   
     44. A(P   2,C   3,H  17)          109.6067         0.342734   
     45. A(P   2,C   3,C   4)          112.6733         0.386781   
     46. A(C   3,C   4,H  19)          110.7013         0.323425   
     47. A(C   3,C   4,C   5)          110.3604         0.378032   
     48. A(H  19,C   4,H  20)          106.8208         0.288725   
     49. A(C   5,C   4,H  20)          109.3430         0.335249   
     50. A(C   3,C   4,H  20)          110.3507         0.323254   
     51. A(C   5,C   4,H  19)          109.1867         0.335429   
     52. L(C   4,C   5,N   6,C   3, 2) 180.0784         0.468915   
     53. L(C   4,C   5,N   6,C   3, 1) 179.3084         0.468915   
     54. A(C   8,C   7,H  22)          110.4681         0.323283   
     55. A(H  21,C   7,H  22)          106.7750         0.288667   
     56. A(P   2,C   7,H  22)          109.6067         0.342734   
     57. A(C   8,C   7,H  21)          109.0784         0.323329   
     58. A(P   2,C   7,H  21)          108.0350         0.342784   
     59. A(P   2,C   7,C   8)          112.6732         0.386781   
     60. A(H  23,C   8,H  24)          106.8207         0.288725   
     61. A(C   9,C   8,H  24)          109.3430         0.335250   
     62. A(C   7,C   8,H  24)          110.3507         0.323254   
     63. A(C   9,C   8,H  23)          109.1866         0.335429   
     64. A(C   7,C   8,H  23)          110.7013         0.323425   
     65. A(C   7,C   8,C   9)          110.3605         0.378033   
     66. L(C   8,C   9,N  10,C   7, 2) 180.0783         0.468915   
     67. L(C   8,C   9,N  10,C   7, 1) 179.3086         0.468915   
     68. L(C   0,C  11,N  12,C   1, 2) 180.0784         0.468915   
     69. L(C   0,C  11,N  12,C   1, 1) 179.3084         0.468915   
     70. D(H  15,C   1,C   0,H  13)   -179.8900         0.011246   
     71. D(H  15,C   1,C   0,C  11)     59.1481         0.011246   
     72. D(P   2,C   1,C   0,H  14)     61.1152         0.011246   
     73. D(P   2,C   1,C   0,C  11)   -177.8884         0.011246   
     74. D(H  16,C   1,C   0,C  11)    -57.9206         0.011246   
     75. D(H  15,C   1,C   0,H  14)    -61.8483         0.011246   
     76. D(P   2,C   1,C   0,H  13)    -56.9265         0.011246   
     77. D(C   7,P   2,C   1,H  15)     44.9757         0.003370   
     78. D(C   7,P   2,C   1,C   0)    -78.4678         0.003370   
     79. D(C   3,P   2,C   1,H  16)     58.9403         0.003370   
     80. D(C   3,P   2,C   1,C   0)    179.5083         0.003370   
     81. D(C   3,P   2,C   1,H  15)    -57.0482         0.003370   
     82. D(H  17,C   3,P   2,C   1)     44.9757         0.003370   
     83. D(C   4,C   3,P   2,C   7)    179.5083         0.003370   
     84. D(C   4,C   3,P   2,C   1)    -78.4677         0.003370   
     85. D(H  18,C   3,P   2,C   1)    160.9641         0.003370   
     86. D(H  17,C   3,P   2,C   7)    -57.0483         0.003370   
     87. D(H  20,C   4,C   3,P   2)    -56.9259         0.011246   
     88. D(H  19,C   4,C   3,H  17)    -61.8475         0.011246   
     89. D(H  19,C   4,C   3,P   2)     61.1158         0.011246   
     90. D(C   5,C   4,C   3,H  18)    -57.9199         0.011246   
     91. D(H  19,C   4,C   3,H  18)   -178.9163         0.011246   
     92. D(C   5,C   4,C   3,H  17)     59.1488         0.011246   
     93. D(C   5,C   4,C   3,P   2)   -177.8878         0.011246   
     94. D(H  22,C   7,P   2,C   1)    -57.0484         0.003370   
     95. D(H  21,C   7,P   2,C   3)    160.9640         0.003370   
     96. D(H  21,C   7,P   2,C   1)     58.9401         0.003370   
     97. D(C   8,C   7,P   2,C   3)    -78.4679         0.003370   
     98. D(C   8,C   7,P   2,C   1)    179.5082         0.003370   
     99. D(C   9,C   8,C   7,H  21)    -57.9204         0.011246   
    100. D(C   9,C   8,C   7,P   2)   -177.8883         0.011246   
    101. D(H  24,C   8,C   7,P   2)    -56.9263         0.011246   
    102. D(H  23,C   8,C   7,H  22)    -61.8480         0.011246   
    103. D(H  23,C   8,C   7,H  21)   -178.9168         0.011246   
    104. D(H  23,C   8,C   7,P   2)     61.1153         0.011246   
    105. D(C   9,C   8,C   7,H  22)     59.1484         0.011246   
    -----------------------------------------------------------------

Number of atoms                         .... 25
Number of degrees of freedom            .... 105


         *************************************************************
         *                GEOMETRY OPTIMIZATION CYCLE   1            *
         *************************************************************
---------------------------------
CARTESIAN COORDINATES (ANGSTROEM)
---------------------------------
  C      2.520376   -1.288477   -0.135203
  C      1.641830   -0.037559   -0.150443
  P      0.003720   -0.301190    0.692044
  C     -0.739946    1.391905    0.484480
  C     -0.187344    2.405166    1.486879
  C     -0.843235    3.707414    1.311342
  N     -1.368278    4.730818    1.161682
  C     -0.903580   -1.216832   -0.650008
  C     -2.327077   -1.598695   -0.244168
  C     -2.977605   -2.360539   -1.318067
  N     -3.480077   -2.960369   -2.174310
  C      3.816675   -1.010188   -0.766882
  N      4.836074   -0.777463   -1.268965
  H      2.683598   -1.627402    0.895037
  H      2.030447   -2.112449   -0.666258
  H      1.475765    0.301892   -1.179900
  H      2.164439    0.773760    0.369854
  H     -0.578669    1.741294   -0.542411
  H     -1.824153    1.305707    0.622794
  H      0.894254    2.526480    1.358773
  H     -0.347872    2.052953    2.513077
  H     -0.339678   -2.128566   -0.879839
  H     -0.914757   -0.612488   -1.565011
  H     -2.921119   -0.703843   -0.026602
  H     -2.313787   -2.201332    0.672105

----------------------------
CARTESIAN COORDINATES (A.U.)
----------------------------
  NO LB      ZA    FRAG     MASS         X           Y           Z
   0 C     6.0000    0    12.011    4.762820   -2.434869   -0.255497
   1 C     6.0000    0    12.011    3.102609   -0.070976   -0.284296
   2 P    15.0000    0    30.974    0.007030   -0.569167    1.307774
   3 C     6.0000    0    12.011   -1.398295    2.630319    0.915535
   4 C     6.0000    0    12.011   -0.354029    4.545105    2.809794
   5 C     6.0000    0    12.011   -1.593483    7.005997    2.478077
   6 N     7.0000    0    14.007   -2.585671    8.939950    2.195261
   7 C     6.0000    0    12.011   -1.707519   -2.299479   -1.228337
   8 C     6.0000    0    12.011   -4.397538   -3.021096   -0.461411
   9 C     6.0000    0    12.011   -5.626858   -4.460772   -2.490786
  10 N     7.0000    0    14.007   -6.576392   -5.594287   -4.108850
  11 C     6.0000    0    12.011    7.212470   -1.908979   -1.449197
  12 N     7.0000    0    14.007    9.138855   -1.469192   -2.397996
  13 H     1.0000    0     1.008    5.071265   -3.075344    1.691375
  14 H     1.0000    0     1.008    3.836989   -3.991950   -1.259045
  15 H     1.0000    0     1.008    2.788792    0.570493   -2.229688
  16 H     1.0000    0     1.008    4.090197    1.462194    0.698923
  17 H     1.0000    0     1.008   -1.093526    3.290569   -1.025008
  18 H     1.0000    0     1.008   -3.447150    2.467429    1.176910
  19 H     1.0000    0     1.008    1.689895    4.774355    2.567709
  20 H     1.0000    0     1.008   -0.657383    3.879519    4.749027
  21 H     1.0000    0     1.008   -0.641898   -4.022407   -1.662655
  22 H     1.0000    0     1.008   -1.728640   -1.157435   -2.957442
  23 H     1.0000    0     1.008   -5.520115   -1.330071   -0.050270
  24 H     1.0000    0     1.008   -4.372424   -4.159915    1.270094

--------------------------------
INTERNAL COORDINATES (ANGSTROEM)
--------------------------------
 C      0   0   0     0.000000000000     0.00000000     0.00000000
 C      1   0   0     1.528682823361     0.00000000     0.00000000
 P      2   1   0     1.860830465526   112.67334102     0.00000000
 C      3   2   1     1.860831161787    99.92766551   179.50833971
 C      4   3   2     1.528682628843   112.67331645   281.53229538
 C      5   4   3     1.468623878246   110.36044811   182.11216202
 N      6   5   4     1.159924141772   179.30691289   356.16012643
 C      3   2   1     1.860832376349    99.92771010   281.53217039
 C      8   3   2     1.528682166239   112.67322900   179.50823223
 C      9   8   3     1.468622491085   110.36050736   182.11172955
 N     10   9   8     1.159925090139   179.30705599   356.16440784
 C      1   2   3     1.468623240986   110.36052200   182.11160867
 N     12   1   2     1.159923525805   179.30687100   356.15720131
 H      1   2   3     1.096770730148   110.35061529   303.07352318
 H      1   2   3     1.095892191253   110.70133846    61.11519848
 H      2   1   3     1.096624949778   110.46808571   237.03649609
 H      2   1   3     1.096388459831   109.07833449   119.96783844
 H      4   3   2     1.096625765670   109.60667046    44.97566880
 H      4   3   2     1.096387557686   108.03494875   160.96412829
 H      5   4   3     1.095893456243   110.70130422    61.11578693
 H      5   4   3     1.096770519004   110.35068705   303.07406745
 H      8   3   2     1.096387997436   108.03496864    58.94012121
 H      8   3   2     1.096625316904   109.60671313   302.95162981
 H      9   8   3     1.095892770313   110.70134204    61.11532444
 H      9   8   3     1.096769888535   110.35065735   303.07365815

---------------------------
INTERNAL COORDINATES (A.U.)
---------------------------
 C      0   0   0     0.000000000000     0.00000000     0.00000000
 C      1   0   0     2.888791881782     0.00000000     0.00000000
 P      2   1   0     3.516459961501   112.67334102     0.00000000
 C      3   2   1     3.516461277244    99.92766551   179.50833971
 C      4   3   2     2.888791514196   112.67331645   281.53229538
 C      5   4   3     2.775296923622   110.36044811   182.11216202
 N      6   5   4     2.191938964072   179.30691289   356.16012643
 C      3   2   1     3.516463572433    99.92771010   281.53217039
 C      8   3   2     2.888790640002   112.67322900   179.50823223
 C      9   8   3     2.775294302268   110.36050736   182.11172955
 N     10   9   8     2.191940756226   179.30705599   356.16440784
 C      1   2   3     2.775295719375   110.36052200   182.11160867
 N     12   1   2     2.191937800063   179.30687100   356.15720131
 H      1   2   3     2.072596311680   110.35061529   303.07352318
 H      1   2   3     2.070936113772   110.70133846    61.11519848
 H      2   1   3     2.072320826705   110.46808571   237.03649609
 H      2   1   3     2.071873925473   109.07833449   119.96783844
 H      4   3   2     2.072322368518   109.60667046    44.97566880
 H      4   3   2     2.071872220666   108.03494875   160.96412829
 H      5   4   3     2.070938504255   110.70130422    61.11578693
 H      5   4   3     2.072595912677   110.35068705   303.07406745
 H      8   3   2     2.071873051672   108.03496864    58.94012121
 H      8   3   2     2.072321520472   109.60671313   302.95162981
 H      9   8   3     2.070937208036   110.70134204    61.11532444
 H      9   8   3     2.072594721263   110.35065735   303.07365815

---------------------
BASIS SET INFORMATION
---------------------
There are 4 groups of distinct atoms

 Group   1 Type C   : 7s4p1d contracted to 3s2p1d pattern {511/31/1}
 Group   2 Type P   : 10s7p1d contracted to 4s3p1d pattern {5311/511/1}
 Group   3 Type N   : 7s4p1d contracted to 3s2p1d pattern {511/31/1}
 Group   4 Type H   : 4s1p contracted to 2s1p pattern {31/1}

Atom   0C    basis set group =>   1
Atom   1C    basis set group =>   1
Atom   2P    basis set group =>   2
Atom   3C    basis set group =>   1
Atom   4C    basis set group =>   1
Atom   5C    basis set group =>   1
Atom   6N    basis set group =>   3
Atom   7C    basis set group =>   1
Atom   8C    basis set group =>   1
Atom   9C    basis set group =>   1
Atom  10N    basis set group =>   3
Atom  11C    basis set group =>   1
Atom  12N    basis set group =>   3
Atom  13H    basis set group =>   4
Atom  14H    basis set group =>   4
Atom  15H    basis set group =>   4
Atom  16H    basis set group =>   4
Atom  17H    basis set group =>   4
Atom  18H    basis set group =>   4
Atom  19H    basis set group =>   4
Atom  20H    basis set group =>   4
Atom  21H    basis set group =>   4
Atom  22H    basis set group =>   4
Atom  23H    basis set group =>   4
Atom  24H    basis set group =>   4
---------------------------------
AUXILIARY/J BASIS SET INFORMATION
---------------------------------
There are 4 groups of distinct atoms

 Group   1 Type C   : 12s5p4d2f1g contracted to 6s4p3d1f1g pattern {711111/2111/211/2/1}
 Group   2 Type P   : 14s5p5d2f1g contracted to 8s4p3d1f1g pattern {71111111/2111/311/2/1}
 Group   3 Type N   : 12s5p4d2f1g contracted to 6s4p3d1f1g pattern {711111/2111/211/2/1}
 Group   4 Type H   : 5s2p1d contracted to 3s1p1d pattern {311/2/1}

Atom   0C    basis set group =>   1
Atom   1C    basis set group =>   1
Atom   2P    basis set group =>   2
Atom   3C    basis set group =>   1
Atom   4C    basis set group =>   1
Atom   5C    basis set group =>   1
Atom   6N    basis set group =>   3
Atom   7C    basis set group =>   1
Atom   8C    basis set group =>   1
Atom   9C    basis set group =>   1
Atom  10N    basis set group =>   3
Atom  11C    basis set group =>   1
Atom  12N    basis set group =>   3
Atom  13H    basis set group =>   4
Atom  14H    basis set group =>   4
Atom  15H    basis set group =>   4
Atom  16H    basis set group =>   4
Atom  17H    basis set group =>   4
Atom  18H    basis set group =>   4
Atom  19H    basis set group =>   4
Atom  20H    basis set group =>   4
Atom  21H    basis set group =>   4
Atom  22H    basis set group =>   4
Atom  23H    basis set group =>   4
Atom  24H    basis set group =>   4


           ************************************************************
           *        Program running with 6 parallel MPI-processes     *
           *              working on a common directory               *
           ************************************************************
------------------------------------------------------------------------------
                             ORCA STARTUP CALCULATIONS
                           -- RI-GTO INTEGRALS CHOSEN --
------------------------------------------------------------------------------
------------------------------------------------------------------------------
                   ___                                                        
                  /   \      - P O W E R E D   B Y -                         
                 /     \                                                     
                 |  |  |   _    _      __       _____    __    __             
                 |  |  |  | |  | |    /  \     |  _  \  |  |  /  |          
                  \  \/   | |  | |   /    \    | | | |  |  | /  /          
                 / \  \   | |__| |  /  /\  \   | |_| |  |  |/  /          
                |  |  |   |  __  | /  /__\  \  |    /   |      \           
                |  |  |   | |  | | |   __   |  |    \   |  |\   \          
                \     /   | |  | | |  |  |  |  | |\  \  |  | \   \       
                 \___/    |_|  |_| |__|  |__|  |_| \__\ |__|  \__/        
                                                                              
                      - O R C A' S   B I G   F R I E N D -                    
                                      &                                       
                       - I N T E G R A L  F E E D E R -                       
                                                                              
 v1 FN, 2020, v2 2021, v3 2022-2024                                           
------------------------------------------------------------------------------


----------------------
SHARK INTEGRAL PACKAGE
----------------------

Number of atoms                             ...     25
Number of basis functions                   ...    246
Number of shells                            ...    116
Maximum angular momentum                    ...      2
Integral batch strategy                     ... SHARK/LIBINT Hybrid
RI-J (if used) integral strategy            ... SPLIT-RIJ (Revised 2003 algorithm where possible)
Printlevel                                  ...      1
Contraction scheme used                     ... SEGMENTED contraction
Prescreening option                         ... SCHWARTZ
   Thresh                                   ... 2.500e-11
   Tcut                                     ... 2.500e-12
   Tpresel                                  ... 2.500e-12 
Coulomb Range Separation                    ... NOT USED
Exchange Range Separation                   ... NOT USED
Multipole approximations                    ... NOT USED
Finite Nucleus Model                        ... NOT USED
CABS basis                                  ... NOT available
Auxiliary Coulomb fitting basis             ... AVAILABLE
   # of basis functions in Aux-J            ...    771
   # of shells in Aux-J                     ...    257
   Maximum angular momentum in Aux-J        ...      4
Auxiliary J/K fitting basis                 ... NOT available
Auxiliary Correlation fitting basis         ... NOT available
Auxiliary 'external' fitting basis          ... NOT available

Checking pre-screening integrals            ... done (  0.0 sec) Dimension = 116
Check shell pair data                       ... done (  0.0 sec)
Shell pair information
Shell pair cut-off parameter TPreSel        ...   2.5e-12
Total number of shell pairs                 ...      6786
Shell pairs after pre-screening             ...      5496
Total number of primitive shell pairs       ...     24968
Primitive shell pairs kept                  ...     13613
          la=0 lb=0:   1735 shell pairs
          la=1 lb=0:   2082 shell pairs
          la=1 lb=1:    652 shell pairs
          la=2 lb=0:    613 shell pairs
          la=2 lb=1:    359 shell pairs
          la=2 lb=2:     55 shell pairs

Calculating one electron integrals          ... done (  0.0 sec)
Calculating RI/J V-Matrix + Cholesky decomp.... done (  0.0 sec)
Calculating Nuclear repulsion               ... done (  0.0 sec) ENN=    769.279263801314 Eh

Diagonalization of the overlap matrix:
Smallest eigenvalue                        ... 6.517e-04
Time for diagonalization                   ...    0.006 sec
Threshold for overlap eigenvalues          ... 1.000e-07
Number of eigenvalues below threshold      ... 0
Time for construction of square roots      ...    0.006 sec
Total time needed                          ...    0.013 sec

-------------------
DFT GRID GENERATION
-------------------

General Integration Accuracy     IntAcc      ... 4.388
Radial Grid Type                 RadialGrid  ... OptM3 with GC (2021)
Angular Grid (max. ang.)         AngularGrid ... 4 (Lebedev-302)
Angular grid pruning method      GridPruning ... 4 (adaptive)
Weight generation scheme         WeightScheme... mBecke (2022)
Basis function cutoff            BFCut       ... 1.0000e-11
Integration weight cutoff        WCut        ... 1.0000e-14
Partially contracted basis set               ... off
Rotationally invariant grid construction     ... off
Angular grids for H and He will be reduced by one unit

Total number of grid points                  ...   117789
Total number of batches                      ...     1854
Average number of points per batch           ...       63
Average number of grid points per atom       ...     4712
Initializing property integral containers    ... done (  0.0 sec)

SHARK setup successfully completed in   0.7 seconds

Maximum memory used throughout the entire STARTUP-calculation: 31.8 MB


           ************************************************************
           *        Program running with 6 parallel MPI-processes     *
           *              working on a common directory               *
           ************************************************************
-------------------------------------------------------------------------------
                                 ORCA GUESS
                   Start orbitals & Density for SCF / CASSCF
-------------------------------------------------------------------------------

------------
SCF SETTINGS
------------
Hamiltonian:
 Density Functional     Method          .... DFT(GTOs)
 Exchange Functional    Exchange        .... B88
   X-Alpha parameter    XAlpha          ....  0.666667
   Becke's b parameter  XBeta           ....  0.004200
 Correlation Functional Correlation     .... LYP
 LDA part of GGA corr.  LDAOpt          .... VWN-5
 Gradients option       PostSCFGGA      .... off
 Hybrid DFT is turned on
   Fraction HF Exchange ScalHFX         ....  0.200000
   Scaling of DF-GGA-X  ScalDFX         ....  0.720000
   Scaling of DF-GGA-C  ScalDFC         ....  0.810000
   Scaling of DF-LDA-C  ScalLDAC        ....  1.000000
   Perturbative correction              ....  0.000000
   NL short-range parameter             ....  4.800000
 RI-approximation to the Coulomb term is turned on
   Number of AuxJ basis functions       .... 771
   RIJ-ON(X) (HFX calculated with O(N)) .... on


General Settings:
 Integral files         IntName         .... data/geom_opt/77639/77639
 Hartree-Fock type      HFTyp           .... RHF
 Total Charge           Charge          ....    0
 Multiplicity           Mult            ....    1
 Number of Electrons    NEL             ....  102
 Basis Dimension        Dim             ....  246
 Nuclear Repulsion      ENuc            ....    769.2792638013 Eh

Convergence Acceleration:
 AO-DIIS                CNVDIIS         .... on
   Start iteration      DIISMaxIt       ....    12
   Startup error        DIISStart       ....  0.200000
   # of expansion vecs  DIISMaxEq       ....     5
   Bias factor          DIISBfac        ....   1.050
   Max. coefficient     DIISMaxC        ....  10.000
 MO-DIIS                CNVKDIIS        .... off
 Trust-Rad. Augm. Hess. CNVTRAH         .... auto
   Auto Start mean grad. ratio tolernc. ....  1.125000
   Auto Start start iteration           ....    50
   Auto Start num. interpolation iter.  ....    10
   Max. Number of Micro iterations      ....    24
   Max. Number of Macro iterations      .... Maxiter - #DIIS iter
   Number of Davidson start vectors     ....     2
   Converg. threshold    (grad. norm)   ....   1.000e-05
   Grad. Scal. Fac. for Micro threshold ....   0.100
   Minimum threshold for Micro iter.    ....   1.000e-02
   NR start threshold (gradient norm)   ....   1.000e-04
   Initial trust radius                 ....   0.400
   Minimum AH scaling param. (alpha)    ....   1.000
   Maximum AH scaling param. (alpha)    .... 1000.000
   Quad. conv. algorithm                .... NR
   White noise on init. David. guess    .... on
   Maximum white noise                  ....   0.010
   Pseudo random numbers                .... off
   Inactive MOs                         .... canonical
   Orbital update algorithm             .... Taylor
   Preconditioner                       .... Diag
   Full preconditioner red. dimension   ....   250
   COSX micro iterations for RIJONX calc.... off
 SOSCF                  CNVSOSCF        .... on
   Start iteration      SOSCFMaxIt      ....   150
   Startup grad/error   SOSCFStart      ....  0.003300
   Hessian update       SOSCFHessUp     .... L-BFGS
 Level Shifting         CNVShift        .... on
   Level shift para.    LevelShift      ....    0.2500
   Turn off err/grad.   ShiftErr        ....    0.0010
 Zerner damping         CNVZerner       .... off
 Static damping         CNVDamp         .... on
   Fraction old density DampFac         ....    0.7000
   Max. Damping (<1)    DampMax         ....    0.9800
   Min. Damping (>=0)   DampMin         ....    0.0000
   Turn off err/grad.   DampErr         ....    0.1000

SCF Procedure:
 Maximum # iterations   MaxIter         ....   125
 SCF integral mode      SCFMode         .... Direct
   Integral package                     .... SHARK and LIBINT hybrid scheme
 Reset frequency        DirectResetFreq ....    20
 Integral Threshold     Thresh          ....  2.500e-11 Eh
 Primitive CutOff       TCut            ....  2.500e-12 Eh

Convergence Tolerance:
 Convergence Check Mode ConvCheckMode   .... Total+1el-Energy
 Convergence forced     ConvForced      .... 0
 Energy Change          TolE            ....  1.000e-08 Eh
 1-El. energy change                    ....  1.000e-05 Eh
 Orbital Gradient       TolG            ....  1.000e-05
 Orbital Rotation angle TolX            ....  1.000e-05
 DIIS Error             TolErr          ....  5.000e-07

------------------------------
INITIAL GUESS: MODEL POTENTIAL
------------------------------
Loading Hartree-Fock densities                     ... done
Calculating cut-offs                               ... done
Initializing the effective Hamiltonian             ... done
Setting up the integral package (SHARK)            ... done
Starting the Coulomb interaction                   ... done (   0.1 sec)
Making the grid                                    ... done (   0.1 sec)
Mapping shells                                     ... done
Starting the XC term evaluation                    ... done (   0.1 sec)
  promolecular density results
     # of electrons  =    101.995107869
     EX              =    -91.998322496
     EC              =     -3.497701727
     EX+EC           =    -95.496024223
Transforming the Hamiltonian                       ... done (   0.0 sec)
Diagonalizing the Hamiltonian                      ... done (   0.0 sec)
Back transforming the eigenvectors                 ... done (   0.0 sec)
Now organizing SCF variables                       ... done
                      ------------------
                      INITIAL GUESS DONE (   0.3 sec)
                      ------------------
             **** ENERGY FILE WAS UPDATED (data/geom_opt/77639/77639.en.tmp) ****
Finished Guess after   0.4 sec
Maximum memory used throughout the entire GUESS-calculation: 17.3 MB


           ************************************************************
           *        Program running with 6 parallel MPI-processes     *
           *              working on a common directory               *
           ************************************************************

-------------------------------------------------------------------------------------------
                                      ORCA LEAN-SCF
                              memory conserving SCF solver
-------------------------------------------------------------------------------------------

----------------------------------------D-I-I-S--------------------------------------------
Iteration    Energy (Eh)           Delta-E    RMSDP     MaxDP     DIISErr   Damp  Time(sec)
-------------------------------------------------------------------------------------------
               ***  Starting incremental Fock matrix formation  ***
    1    -854.4592382487732038     0.00e+00  3.34e-03  9.10e-02  2.52e-01  0.700   1.4
    2    -854.6728960687011067    -2.14e-01  2.22e-03  5.12e-02  9.49e-02  0.700   1.3
                               ***Turning on AO-DIIS***
    3    -854.7411671129649449    -6.83e-02  1.04e-03  3.11e-02  3.30e-02  0.700   1.3
    4    -854.7868536897514105    -4.57e-02  1.80e-03  8.43e-02  2.12e-02  0.000   1.2
    5    -854.8895018167901299    -1.03e-01  3.58e-04  8.91e-03  7.50e-03  0.000   1.2
                              *** Initializing SOSCF ***
---------------------------------------S-O-S-C-F--------------------------------------
Iteration    Energy (Eh)           Delta-E    RMSDP     MaxDP     MaxGrad    Time(sec)
--------------------------------------------------------------------------------------
    6    -854.8904339057995685    -9.32e-04  9.98e-05  2.92e-03  1.52e-03     1.1
               *** Restarting incremental Fock matrix formation ***
    7    -854.8904823363865262    -4.84e-05  6.47e-05  9.96e-04  2.45e-04     1.4
    8    -854.8904850335919718    -2.70e-06  1.96e-05  4.76e-04  1.82e-04     1.0
    9    -854.8904873896927938    -2.36e-06  1.42e-05  3.85e-04  1.26e-04     1.0
   10    -854.8904868280907294     5.62e-07  8.56e-06  2.16e-04  1.62e-04     0.9
   11    -854.8904878085478458    -9.80e-07  4.26e-06  2.44e-04  1.49e-05     0.8
   12    -854.8904878150470950    -6.50e-09  1.88e-06  9.00e-05  1.37e-05     0.9
                 **** Energy Check signals convergence ****

               *****************************************************
               *                     SUCCESS                       *
               *           SCF CONVERGED AFTER  12 CYCLES          *
               *****************************************************

             **** ENERGY FILE WAS UPDATED (data/geom_opt/77639/77639.en.tmp) ****

----------------
TOTAL SCF ENERGY
----------------

Total Energy       :       -854.89048781504709 Eh          -23262.75283 eV

Components:
Nuclear Repulsion  :        769.27926380131419 Eh           20933.15299 eV
Electronic Energy  :      -1624.16975161636128 Eh          -44195.90582 eV
One Electron Energy:      -2690.63671521435163 Eh          -73215.94725 eV
Two Electron Energy:       1066.46696359799034 Eh           29020.04143 eV

Virial components:
Potential Energy   :      -1703.76902190734609 Eh          -46361.91208 eV
Kinetic Energy     :        848.87853409229888 Eh           23099.15925 eV
Virial Ratio       :          2.00708223082726

DFT components:
N(Alpha)           :       50.999858501323 electrons
N(Beta)            :       50.999858501323 electrons
N(Total)           :      101.999717002646 electrons
E(X)               :      -73.954878418550 Eh       
E(C)               :       -4.128842110461 Eh       
E(XC)              :      -78.083720529012 Eh       

---------------
SCF CONVERGENCE
---------------

  Last Energy change         ...    6.4992e-09  Tolerance :   1.0000e-08
  Last MAX-Density change    ...    8.9994e-05  Tolerance :   1.0000e-07
  Last RMS-Density change    ...    1.8779e-06  Tolerance :   5.0000e-09
  Last DIIS Error            ...    1.5173e-03  Tolerance :   5.0000e-07
  Last Orbital Gradient      ...    1.3668e-05  Tolerance :   1.0000e-05
  Last Orbital Rotation      ...    1.0933e-05  Tolerance :   1.0000e-05


----------------
ORBITAL ENERGIES
----------------

  NO   OCC          E(Eh)            E(eV) 
   0   2.0000     -77.081791     -2097.5022 
   1   2.0000     -14.336672      -390.1207 
   2   2.0000     -14.336671      -390.1206 
   3   2.0000     -14.336666      -390.1205 
   4   2.0000     -10.259762      -279.1823 
   5   2.0000     -10.259759      -279.1822 
   6   2.0000     -10.259755      -279.1821 
   7   2.0000     -10.237854      -278.5862 
   8   2.0000     -10.237849      -278.5860 
   9   2.0000     -10.237847      -278.5860 
  10   2.0000     -10.233483      -278.4672 
  11   2.0000     -10.233470      -278.4669 
  12   2.0000     -10.233413      -278.4653 
  13   2.0000      -6.580110      -179.0539 
  14   2.0000      -4.745409      -129.1292 
  15   2.0000      -4.745408      -129.1291 
  16   2.0000      -4.742356      -129.0461 
  17   2.0000      -0.907803       -24.7026 
  18   2.0000      -0.907317       -24.6894 
  19   2.0000      -0.907316       -24.6893 
  20   2.0000      -0.845315       -23.0022 
  21   2.0000      -0.821484       -22.3537 
  22   2.0000      -0.821482       -22.3536 
  23   2.0000      -0.735943       -20.0260 
  24   2.0000      -0.678508       -18.4631 
  25   2.0000      -0.678506       -18.4631 
  26   2.0000      -0.577697       -15.7199 
  27   2.0000      -0.544639       -14.8204 
  28   2.0000      -0.544637       -14.8203 
  29   2.0000      -0.521394       -14.1879 
  30   2.0000      -0.512827       -13.9547 
  31   2.0000      -0.512824       -13.9547 
  32   2.0000      -0.510537       -13.8924 
  33   2.0000      -0.450768       -12.2660 
  34   2.0000      -0.449797       -12.2396 
  35   2.0000      -0.449794       -12.2395 
  36   2.0000      -0.424765       -11.5585 
  37   2.0000      -0.413575       -11.2540 
  38   2.0000      -0.413574       -11.2539 
  39   2.0000      -0.382326       -10.4036 
  40   2.0000      -0.382325       -10.4036 
  41   2.0000      -0.368406       -10.0248 
  42   2.0000      -0.363014        -9.8781 
  43   2.0000      -0.363013        -9.8781 
  44   2.0000      -0.345218        -9.3939 
  45   2.0000      -0.341980        -9.3058 
  46   2.0000      -0.340545        -9.2667 
  47   2.0000      -0.340544        -9.2667 
  48   2.0000      -0.335965        -9.1421 
  49   2.0000      -0.335964        -9.1421 
  50   2.0000      -0.266687        -7.2569 
  51   0.0000      -0.004543        -0.1236 
  52   0.0000      -0.004542        -0.1236 
  53   0.0000       0.002350         0.0640 
  54   0.0000       0.018611         0.5064 
  55   0.0000       0.018614         0.5065 
  56   0.0000       0.023471         0.6387 
  57   0.0000       0.028758         0.7826 
  58   0.0000       0.033976         0.9245 
  59   0.0000       0.033982         0.9247 
  60   0.0000       0.052836         1.4377 
  61   0.0000       0.053185         1.4472 
*Only the first 10 virtual orbitals were printed.

                    ********************************
                    * MULLIKEN POPULATION ANALYSIS *
                    ********************************

-----------------------
MULLIKEN ATOMIC CHARGES
-----------------------
   0 C :    0.142001
   1 C :   -0.187219
   2 P :    0.186841
   3 C :   -0.187340
   4 C :    0.142008
   5 C :   -0.281387
   6 N :    0.062375
   7 C :   -0.187290
   8 C :    0.142004
   9 C :   -0.281338
  10 N :    0.062367
  11 C :   -0.281358
  12 N :    0.062358
  13 H :    0.051828
  14 H :    0.044810
  15 H :    0.048419
  16 H :    0.056895
  17 H :    0.048478
  18 H :    0.056919
  19 H :    0.044816
  20 H :    0.051844
  21 H :    0.056921
  22 H :    0.048409
  23 H :    0.044820
  24 H :    0.051820
Sum of atomic charges:   -0.0000000

--------------------------------
MULLIKEN REDUCED ORBITAL CHARGES
--------------------------------
  0 C s       :     2.824331  s :     2.824331
      pz      :     1.032261  p :     2.995366
      px      :     0.949145
      py      :     1.013959
      dz2     :     0.006818  d :     0.038302
      dxz     :     0.007230
      dyz     :     0.007018
      dx2y2   :     0.008793
      dxy     :     0.008443

  1 C s       :     3.105563  s :     3.105563
      pz      :     1.038434  p :     3.051257
      px      :     1.000468
      py      :     1.012355
      dz2     :     0.006658  d :     0.030400
      dxz     :     0.004875
      dyz     :     0.006299
      dx2y2   :     0.005450
      dxy     :     0.007118

  2 P s       :     5.774102  s :     5.774102
      pz      :     3.242823  p :     8.872138
      px      :     2.769861
      py      :     2.859454
      dz2     :     0.023885  d :     0.166919
      dxz     :     0.040710
      dyz     :     0.026558
      dx2y2   :     0.040443
      dxy     :     0.035324

  3 C s       :     3.105552  s :     3.105552
      pz      :     1.019525  p :     3.051388
      px      :     1.042616
      py      :     0.989247
      dz2     :     0.008970  d :     0.030401
      dxz     :     0.002660
      dyz     :     0.007104
      dx2y2   :     0.007349
      dxy     :     0.004318

  4 C s       :     2.824267  s :     2.824267
      pz      :     1.025345  p :     2.995422
      px      :     1.035345
      py      :     0.934733
      dz2     :     0.010270  d :     0.038302
      dxz     :     0.003208
      dyz     :     0.007108
      dx2y2   :     0.010091
      dxy     :     0.007625

  5 C s       :     3.164831  s :     3.164831
      pz      :     0.965340  p :     3.071120
      px      :     1.005489
      py      :     1.100291
      dz2     :     0.003923  d :     0.045436
      dxz     :     0.003149
      dyz     :     0.012815
      dx2y2   :     0.014058
      dxy     :     0.011491

  6 N s       :     3.536759  s :     3.536759
      pz      :     1.047306  p :     3.369090
      px      :     1.091924
      py      :     1.229861
      dz2     :     0.003151  d :     0.031776
      dxz     :     0.002187
      dyz     :     0.007885
      dx2y2   :     0.009454
      dxy     :     0.009098

  7 C s       :     3.105432  s :     3.105432
      pz      :     1.045395  p :     3.051458
      px      :     0.974123
      py      :     1.031939
      dz2     :     0.006124  d :     0.030401
      dxz     :     0.005069
      dyz     :     0.006524
      dx2y2   :     0.005264
      dxy     :     0.007420

  8 C s       :     2.824310  s :     2.824310
      pz      :     1.029495  p :     2.995383
      px      :     0.950657
      py      :     1.015231
      dz2     :     0.006931  d :     0.038302
      dxz     :     0.007338
      dyz     :     0.009010
      dx2y2   :     0.005794
      dxy     :     0.009229

  9 C s       :     3.164822  s :     3.164822
      pz      :     1.067581  p :     3.071081
      px      :     0.988833
      py      :     1.014667
      dz2     :     0.013509  d :     0.045436
      dxz     :     0.008927
      dyz     :     0.009614
      dx2y2   :     0.007346
      dxy     :     0.006039

 10 N s       :     3.536760  s :     3.536760
      pz      :     1.172154  p :     3.369098
      px      :     1.088059
      py      :     1.108885
      dz2     :     0.008597  d :     0.031776
      dxz     :     0.006859
      dyz     :     0.007430
      dx2y2   :     0.004551
      dxy     :     0.004338

 11 C s       :     3.164833  s :     3.164833
      pz      :     0.998780  p :     3.071089
      px      :     1.102664
      py      :     0.969644
      dz2     :     0.008486  d :     0.045436
      dxz     :     0.011585
      dyz     :     0.003407
      dx2y2   :     0.009321
      dxy     :     0.012636

 12 N s       :     3.536765  s :     3.536765
      pz      :     1.088559  p :     3.369101
      px      :     1.229241
      py      :     1.051302
      dz2     :     0.005120  d :     0.031776
      dxz     :     0.008934
      dyz     :     0.002232
      dx2y2   :     0.007520
      dxy     :     0.007970

 13 H s       :     0.925251  s :     0.925251
      pz      :     0.013820  p :     0.022921
      px      :     0.003882
      py      :     0.005219

 14 H s       :     0.932108  s :     0.932108
      pz      :     0.007029  p :     0.023082
      px      :     0.005989
      py      :     0.010064

 15 H s       :     0.928898  s :     0.928898
      pz      :     0.013263  p :     0.022682
      px      :     0.004490
      py      :     0.004930

 16 H s       :     0.920124  s :     0.920124
      pz      :     0.006923  p :     0.022982
      px      :     0.006683
      py      :     0.009376

 17 H s       :     0.928843  s :     0.928843
      pz      :     0.012804  p :     0.022679
      px      :     0.004778
      py      :     0.005096

 18 H s       :     0.920101  s :     0.920101
      pz      :     0.004701  p :     0.022980
      px      :     0.013971
      py      :     0.004308

 19 H s       :     0.932103  s :     0.932103
      pz      :     0.004749  p :     0.023081
      px      :     0.014354
      py      :     0.003978

 20 H s       :     0.925236  s :     0.925236
      pz      :     0.013355  p :     0.022920
      px      :     0.004662
      py      :     0.004903

 21 H s       :     0.920098  s :     0.920098
      pz      :     0.005157  p :     0.022981
      px      :     0.006400
      py      :     0.011424

 22 H s       :     0.928911  s :     0.928911
      pz      :     0.011415  p :     0.022680
      px      :     0.003691
      py      :     0.007575

 23 H s       :     0.932099  s :     0.932099
      pz      :     0.004827  p :     0.023082
      px      :     0.006992
      py      :     0.011262

 24 H s       :     0.925260  s :     0.925260
      pz      :     0.011631  p :     0.022921
      px      :     0.003942
      py      :     0.007348



                     *******************************
                     * LOEWDIN POPULATION ANALYSIS *
                     *******************************

----------------------
LOEWDIN ATOMIC CHARGES
----------------------
   0 C :   -0.050020
   1 C :   -0.162155
   2 P :    0.461095
   3 C :   -0.162186
   4 C :   -0.050029
   5 C :   -0.037355
   6 N :   -0.066727
   7 C :   -0.162189
   8 C :   -0.050018
   9 C :   -0.037348
  10 N :   -0.066732
  11 C :   -0.037356
  12 N :   -0.066732
  13 H :    0.054730
  14 H :    0.050162
  15 H :    0.026275
  16 H :    0.031406
  17 H :    0.026286
  18 H :    0.031415
  19 H :    0.050165
  20 H :    0.054732
  21 H :    0.031414
  22 H :    0.026272
  23 H :    0.050165
  24 H :    0.054731

-------------------------------
LOEWDIN REDUCED ORBITAL CHARGES
-------------------------------
  0 C s       :     2.826608  s :     2.826608
      pz      :     1.066048  p :     3.127759
      px      :     1.014149
      py      :     1.047561
      dz2     :     0.018168  d :     0.095654
      dxz     :     0.017823
      dyz     :     0.015717
      dx2y2   :     0.020700
      dxy     :     0.023246

  1 C s       :     2.892291  s :     2.892291
      pz      :     1.091239  p :     3.195973
      px      :     1.065559
      py      :     1.039175
      dz2     :     0.016789  d :     0.073890
      dxz     :     0.011771
      dyz     :     0.014351
      dx2y2   :     0.012456
      dxy     :     0.018523

  2 P s       :     5.313265  s :     5.313265
      pz      :     3.317517  p :     9.005608
      px      :     2.794519
      py      :     2.893572
      dz2     :     0.030817  d :     0.220031
      dxz     :     0.053335
      dyz     :     0.034185
      dx2y2   :     0.054732
      dxy     :     0.046962

  3 C s       :     2.892290  s :     2.892290
      pz      :     1.059889  p :     3.196005
      px      :     1.077743
      py      :     1.058374
      dz2     :     0.021022  d :     0.073890
      dxz     :     0.006313
      dyz     :     0.017845
      dx2y2   :     0.018465
      dxy     :     0.010246

  4 C s       :     2.826608  s :     2.826608
      pz      :     1.060455  p :     3.127768
      px      :     1.056747
      py      :     1.010567
      dz2     :     0.024775  d :     0.095653
      dxz     :     0.006735
      dyz     :     0.019318
      dx2y2   :     0.025657
      dxy     :     0.019168

  5 C s       :     2.921875  s :     2.921875
      pz      :     0.931910  p :     3.011608
      px      :     0.976135
      py      :     1.103563
      dz2     :     0.010891  d :     0.103872
      dxz     :     0.006493
      dyz     :     0.025635
      dx2y2   :     0.031572
      dxy     :     0.029281

  6 N s       :     3.427783  s :     3.427783
      pz      :     1.062937  p :     3.585189
      px      :     1.142264
      py      :     1.379987
      dz2     :     0.006488  d :     0.053756
      dxz     :     0.003167
      dyz     :     0.011423
      dx2y2   :     0.015539
      dxy     :     0.017138

  7 C s       :     2.892280  s :     2.892280
      pz      :     1.091531  p :     3.196019
      px      :     1.022045
      py      :     1.082444
      dz2     :     0.014867  d :     0.073890
      dxz     :     0.012142
      dyz     :     0.016197
      dx2y2   :     0.013084
      dxy     :     0.017600

  8 C s       :     2.826607  s :     2.826607
      pz      :     1.040399  p :     3.127758
      px      :     1.031149
      py      :     1.056210
      dz2     :     0.017813  d :     0.095654
      dxz     :     0.017390
      dyz     :     0.023535
      dx2y2   :     0.014757
      dxy     :     0.022159

  9 C s       :     2.921875  s :     2.921875
      pz      :     1.054372  p :     3.011601
      px      :     0.967431
      py      :     0.989798
      dz2     :     0.027844  d :     0.103872
      dxz     :     0.022400
      dyz     :     0.024755
      dx2y2   :     0.014493
      dxy     :     0.014380

 10 N s       :     3.427784  s :     3.427784
      pz      :     1.284677  p :     3.585193
      px      :     1.131842
      py      :     1.168674
      dz2     :     0.012993  d :     0.053755
      dxz     :     0.012443
      dyz     :     0.014427
      dx2y2   :     0.006432
      dxy     :     0.007461

 11 C s       :     2.921877  s :     2.921877
      pz      :     0.972577  p :     3.011607
      px      :     1.102691
      py      :     0.936339
      dz2     :     0.017045  d :     0.103872
      dxz     :     0.029093
      dyz     :     0.007033
      dx2y2   :     0.024658
      dxy     :     0.026044

 12 N s       :     3.427782  s :     3.427782
      pz      :     1.134939  p :     3.585194
      px      :     1.378513
      py      :     1.071742
      dz2     :     0.007631  d :     0.053755
      dxz     :     0.016516
      dyz     :     0.003341
      dx2y2   :     0.014233
      dxy     :     0.012035

 13 H s       :     0.878361  s :     0.878361
      pz      :     0.039538  p :     0.066909
      px      :     0.011783
      py      :     0.015588

 14 H s       :     0.883090  s :     0.883090
      pz      :     0.019547  p :     0.066749
      px      :     0.017368
      py      :     0.029834

 15 H s       :     0.902721  s :     0.902721
      pz      :     0.040447  p :     0.071003
      px      :     0.014972
      py      :     0.015584

 16 H s       :     0.898586  s :     0.898586
      pz      :     0.019234  p :     0.070007
      px      :     0.021717
      py      :     0.029056

 17 H s       :     0.902710  s :     0.902710
      pz      :     0.039166  p :     0.071004
      px      :     0.013555
      py      :     0.018283

 18 H s       :     0.898578  s :     0.898578
      pz      :     0.012930  p :     0.070007
      px      :     0.042465
      py      :     0.014613

 19 H s       :     0.883086  s :     0.883086
      pz      :     0.013266  p :     0.066749
      px      :     0.041601
      py      :     0.011882

 20 H s       :     0.878358  s :     0.878358
      pz      :     0.039624  p :     0.066910
      px      :     0.012906
      py      :     0.014380

 21 H s       :     0.898578  s :     0.898578
      pz      :     0.015633  p :     0.070008
      px      :     0.020417
      py      :     0.033958

 22 H s       :     0.902724  s :     0.902724
      pz      :     0.036963  p :     0.071004
      px      :     0.012541
      py      :     0.021500

 23 H s       :     0.883086  s :     0.883086
      pz      :     0.013043  p :     0.066749
      px      :     0.021503
      py      :     0.032202

 24 H s       :     0.878360  s :     0.878360
      pz      :     0.033454  p :     0.066909
      px      :     0.012195
      py      :     0.021260



                      *****************************
                      * MAYER POPULATION ANALYSIS *
                      *****************************

  NA   - Mulliken gross atomic population
  ZA   - Total nuclear charge
  QA   - Mulliken gross atomic charge
  VA   - Mayer's total valence
  BVA  - Mayer's bonded valence
  FA   - Mayer's free valence

  ATOM       NA         ZA         QA         VA         BVA        FA
  0 C      5.8580     6.0000     0.1420     4.0229     4.0229    -0.0000
  1 C      6.1872     6.0000    -0.1872     3.9619     3.9619    -0.0000
  2 P     14.8132    15.0000     0.1868     3.0568     3.0568    -0.0000
  3 C      6.1873     6.0000    -0.1873     3.9620     3.9620    -0.0000
  4 C      5.8580     6.0000     0.1420     4.0229     4.0229    -0.0000
  5 C      6.2814     6.0000    -0.2814     4.2827     4.2827    -0.0000
  6 N      6.9376     7.0000     0.0624     3.1542     3.1542    -0.0000
  7 C      6.1873     6.0000    -0.1873     3.9621     3.9621    -0.0000
  8 C      5.8580     6.0000     0.1420     4.0229     4.0229    -0.0000
  9 C      6.2813     6.0000    -0.2813     4.2827     4.2827    -0.0000
 10 N      6.9376     7.0000     0.0624     3.1542     3.1542    -0.0000
 11 C      6.2814     6.0000    -0.2814     4.2826     4.2826    -0.0000
 12 N      6.9376     7.0000     0.0624     3.1542     3.1542    -0.0000
 13 H      0.9482     1.0000     0.0518     0.9947     0.9947    -0.0000
 14 H      0.9552     1.0000     0.0448     0.9963     0.9963    -0.0000
 15 H      0.9516     1.0000     0.0484     0.9824     0.9824    -0.0000
 16 H      0.9431     1.0000     0.0569     0.9830     0.9830    -0.0000
 17 H      0.9515     1.0000     0.0485     0.9824     0.9824    -0.0000
 18 H      0.9431     1.0000     0.0569     0.9830     0.9830    -0.0000
 19 H      0.9552     1.0000     0.0448     0.9963     0.9963    -0.0000
 20 H      0.9482     1.0000     0.0518     0.9947     0.9947    -0.0000
 21 H      0.9431     1.0000     0.0569     0.9830     0.9830    -0.0000
 22 H      0.9516     1.0000     0.0484     0.9824     0.9824    -0.0000
 23 H      0.9552     1.0000     0.0448     0.9963     0.9963     0.0000
 24 H      0.9482     1.0000     0.0518     0.9947     0.9947    -0.0000

  Mayer bond orders larger than 0.100000
B(  0-C ,  1-C ) :   1.0596 B(  0-C , 11-C ) :   1.1244 B(  0-C , 13-H ) :   0.9008 
B(  0-C , 14-H ) :   0.9002 B(  1-C ,  2-P ) :   0.9759 B(  1-C , 15-H ) :   0.9253 
B(  1-C , 16-H ) :   0.9413 B(  2-P ,  3-C ) :   0.9760 B(  2-P ,  7-C ) :   0.9761 
B(  3-C ,  4-C ) :   1.0595 B(  3-C , 17-H ) :   0.9253 B(  3-C , 18-H ) :   0.9413 
B(  4-C ,  5-C ) :   1.1245 B(  4-C , 19-H ) :   0.9002 B(  4-C , 20-H ) :   0.9008 
B(  5-C ,  6-N ) :   3.0600 B(  7-C ,  8-C ) :   1.0596 B(  7-C , 21-H ) :   0.9413 
B(  7-C , 22-H ) :   0.9253 B(  8-C ,  9-C ) :   1.1245 B(  8-C , 23-H ) :   0.9002 
B(  8-C , 24-H ) :   0.9007 B(  9-C , 10-N ) :   3.0600 B( 11-C , 12-N ) :   3.0601 


-------
TIMINGS
-------

Total SCF time: 0 days 0 hours 0 min 13 sec 

Total time                  ....      13.712 sec
Sum of individual times     ....      13.667 sec  ( 99.7%)

SCF preparation             ....       0.083 sec  (  0.6%)
Fock matrix formation       ....      13.147 sec  ( 95.9%)
  Startup                   ....       0.028 sec  (  0.2% of F)
  Exchange formation        ....       9.036 sec  ( 68.7% of F)
  Split-RI-J                ....       1.340 sec  ( 10.2% of F)
  XC integration            ....       2.621 sec  ( 19.9% of F)
    Basis function eval.    ....       0.787 sec  ( 30.0% of XC)
    Density eval.           ....       0.647 sec  ( 24.7% of XC)
    XC-Functional eval.     ....       0.102 sec  (  3.9% of XC)
    XC-Potential eval.      ....       0.547 sec  ( 20.9% of XC)
Diagonalization             ....       0.000 sec  (  0.0%)
Density matrix formation    ....       0.066 sec  (  0.5%)
Total Energy calculation    ....       0.025 sec  (  0.2%)
Population analysis         ....       0.038 sec  (  0.3%)
Orbital Transformation      ....       0.036 sec  (  0.3%)
Orbital Orthonormalization  ....       0.000 sec  (  0.0%)
DIIS solution               ....       0.168 sec  (  1.2%)
SOSCF solution              ....       0.104 sec  (  0.8%)
Finished LeanSCF after  13.7 sec

Maximum memory used throughout the entire LEANSCF-calculation: 23.1 MB


-------------------------------------------------------------------------------
                          DFT DISPERSION CORRECTION                            
                                                                               
                              DFTD3 V3.1  Rev 1                                
                          USING Becke-Johnson damping                          
-------------------------------------------------------------------------------
The B3LYP functional is recognized
Active option DFTDOPT                   ...         4   

molecular C6(AA) [au] = 7939.962334 


            DFT-D V3
 parameters
 s6 scaling factor         :     1.0000 
 a1 scaling factor         :     0.3981 
 s8 scaling factor         :     1.9889 
 a2 scaling factor         :     4.4211 
 ad hoc parameters k1-k3   :    16.0000     1.3333    -4.0000 

 Edisp/kcal,au: -29.856140409259  -0.047578783203 
 E6   /kcal   : -13.842862987 
 E8   /kcal   : -16.013277423 
 % E8         :  53.634787361 

-------------------------   ----------------
Dispersion correction           -0.047578783
-------------------------   ----------------


-------------------------   --------------------
FINAL SINGLE POINT ENERGY      -854.938066598250
-------------------------   --------------------



           ************************************************************
           *        Program running with 6 parallel MPI-processes     *
           *              working on a common directory               *
           ************************************************************
------------------------------------------------------------------------------
                         ORCA SCF GRADIENT CALCULATION
------------------------------------------------------------------------------

Nuc. rep. gradient        (SHARK) ... done (  0.0 sec)
HCore & Overlap gradient  (SHARK) ... done (  0.1 sec)
Split-RIJ-J gradient      (SHARK) ... done (  0.4 sec)
O(N)X-gradient            (SHARK) ... done (  3.4 sec)
XC gradient                       ... done (  1.7 sec)
Dispersion correction             ... done (  0.1 sec)

-------------------
DISPERSION GRADIENT
-------------------

   1   C   :    0.000502356   -0.000232966    0.000037498
   2   C   :    0.000482639   -0.000078837   -0.000055550
   3   P   :    0.000002747   -0.000222438    0.000511097
   4   C   :   -0.000159645    0.000433139    0.000170719
   5   C   :   -0.000078185    0.000437519    0.000332423
   6   C   :   -0.000119538    0.000629125    0.000177073
   7   N   :   -0.000210018    0.000635316    0.000038124
   8   C   :   -0.000323246   -0.000333834   -0.000162200
   9   C   :   -0.000422251   -0.000359973   -0.000012810
  10   C   :   -0.000501657   -0.000356794   -0.000249962
  11   N   :   -0.000414278   -0.000353134   -0.000390970
  12   C   :    0.000619873   -0.000165442   -0.000172710
  13   N   :    0.000621046   -0.000019276   -0.000251234
  14   H   :    0.000219670   -0.000206479    0.000167310
  15   H   :    0.000219464   -0.000300631   -0.000069426
  16   H   :    0.000163652    0.000128881   -0.000247563
  17   H   :    0.000259337    0.000110855    0.000039983
  18   H   :   -0.000100661    0.000232745   -0.000200940
  19   H   :   -0.000231560    0.000154104    0.000061443
  20   H   :    0.000153408    0.000290529    0.000188209
  21   H   :   -0.000001945    0.000135162    0.000317189
  22   H   :   -0.000027870   -0.000257419   -0.000118754
  23   H   :   -0.000067093   -0.000029269   -0.000315154
  24   H   :   -0.000372023   -0.000058604    0.000039087
  25   H   :   -0.000214221   -0.000212278    0.000167118

Difference to translation invariance:
           :    0.0000000000   -0.0000000000   -0.0000000000

Difference to rotation invariance:
           :    0.0000000000   -0.0000000000    0.0000000000

Norm of the Dispersion gradient    ...    0.0024449227
RMS gradient                       ...    0.0002823154
MAX gradient                       ...    0.0006353162

------------------
CARTESIAN GRADIENT
------------------

   1   C   :   -0.004807979   -0.004954590    0.002757746
   2   C   :    0.005323721   -0.001857462    0.001020159
   3   P   :   -0.000108554    0.005102640   -0.011792853
   4   C   :   -0.001493360    0.003982783    0.003676781
   5   C   :    0.005395307   -0.004030971    0.003087193
   6   C   :   -0.002632711   -0.003601734   -0.003243965
   7   N   :   -0.001091856    0.003864073    0.000108811
   8   C   :   -0.003741263   -0.004275578    0.000005996
   9   C   :   -0.000529429    0.003634090    0.006457670
  10   C   :    0.005286653    0.000656008   -0.001434290
  11   N   :   -0.002567753   -0.001940283   -0.002412808
  12   C   :   -0.002682521    0.004799703    0.000405549
  13   N   :    0.003648972   -0.000189642   -0.001684745
  14   H   :   -0.001548326    0.001496267   -0.003295202
  15   H   :   -0.000002970    0.003775576    0.002727756
  16   H   :   -0.000566701   -0.001391492    0.004630525
  17   H   :   -0.000846974   -0.002683735   -0.002319417
  18   H   :   -0.000202057   -0.002541478    0.004058269
  19   H   :    0.003345437    0.001339682   -0.000603415
  20   H   :   -0.003923194   -0.002500507    0.000023565
  21   H   :    0.000699450    0.000203965   -0.003869475
  22   H   :   -0.002536806    0.002646508    0.000019118
  23   H   :    0.000846913   -0.001687305    0.004494146
  24   H   :    0.003939599   -0.002481380   -0.000007615
  25   H   :    0.000796401    0.002634863   -0.002809500

Difference to translation invariance:
           :   -0.0000000000    0.0000000000   -0.0000000000

Difference to rotation invariance:
           :    0.0002751560   -0.0001025680   -0.0000112165

Norm of the Cartesian gradient     ...    0.0280884372
RMS gradient                       ...    0.0032433734
MAX gradient                       ...    0.0117928527

-------
TIMINGS
-------

Total SCF gradient time     ....        5.748 sec

One electron gradient       ....       0.109 sec  (  1.9%)
Two electron gradient       ....       3.439 sec  ( 59.8%)
RI-J Coulomb gradient       ....       0.408 sec  (  7.1%)
XC gradient                 ....       1.729 sec  ( 30.1%)

Maximum memory used throughout the entire SCFGRAD-calculation: 32.4 MB
------------------------------------------------------------------------------
                         ORCA GEOMETRY RELAXATION STEP
------------------------------------------------------------------------------

Reading the OPT-File                    .... done
Getting information on internals        .... done
Copying old internal coords+grads       .... done
Making the new internal coordinates     .... (2022 redundants) done
Validating the new internal coordinates .... (2022 redundants) done
Calculating the B-matrix                .... done
Calculating the G,G- and P matrices     .... done
Transforming gradient to internals      .... done
Projecting the internal gradient        .... done
Number of atoms                         ....  25
Number of internal coordinates          .... 105
Current Energy                          ....  -854.938066598 Eh
Current gradient norm                   ....     0.028088437 Eh/bohr
Maximum allowed component of the step   ....  0.300
Current trust radius                    ....  0.300
Evaluating the initial hessian          ....  (Almloef) done
Projecting the Hessian                  .... done
Forming the augmented Hessian           .... done
Diagonalizing the augmented Hessian     .... done
Last element of RFO vector              ....  0.993545342
Lowest eigenvalues of augmented Hessian:
 -0.002024174  0.003370217  0.003370233  0.003401036  0.011245789
Length of the computed step             ....  0.114172624
The final length of the internal step   ....  0.114172624
Converting the step to Cartesian space:
 Initial RMS(Int)=    0.0111421072
Transforming coordinates:
 Iter   0:  RMS(Cart)=    0.0298282209 RMS(Int)=    0.0111610481
 Iter   5:  RMS(Cart)=    0.0000001718 RMS(Int)=    0.0000001258
done
Storing new coordinates                 .... done

                                .--------------------.
          ----------------------|Geometry convergence|-------------------------
          Item                value                   Tolerance       Converged
          ---------------------------------------------------------------------
          RMS gradient        0.0025726469            0.0001000000      NO
          MAX gradient        0.0071394525            0.0003000000      NO
          RMS step            0.0111421072            0.0020000000      NO
          MAX step            0.0336069629            0.0040000000      NO
          ........................................................
          Max(Bonds)      0.0100      Max(Angles)    0.97
          Max(Dihed)        1.93      Max(Improp)    0.00
          ---------------------------------------------------------------------

The optimization has not yet converged - more geometry cycles are needed


    ---------------------------------------------------------------------------
                         Redundant Internal Coordinates
                            (Angstroem and degrees)

        Definition                    Value    dE/dq     Step     New-Value
    ----------------------------------------------------------------------------
     1. B(C   1,C   0)                1.5287 -0.007122  0.0100    1.5387   
     2. B(P   2,C   1)                1.8608 -0.003368  0.0048    1.8656   
     3. B(C   3,P   2)                1.8608 -0.003378  0.0048    1.8656   
     4. B(C   4,C   3)                1.5287 -0.007139  0.0100    1.5387   
     5. B(C   5,C   4)                1.4686  0.002274 -0.0026    1.4661   
     6. B(N   6,C   5)                1.1599  0.003891 -0.0016    1.1583   
     7. B(C   7,P   2)                1.8608 -0.003450  0.0049    1.8657   
     8. B(C   8,C   7)                1.5287 -0.007123  0.0100    1.5387   
[...]
      px      :     1.016173
      py      :     1.047568
      dz2     :     0.018829  d :     0.094595
      dxz     :     0.017551
      dyz     :     0.014275
      dx2y2   :     0.021358
      dxy     :     0.022583

  1 C s       :     2.899600  s :     2.899600
      pz      :     1.089442  p :     3.190149
      px      :     1.062428
      py      :     1.038280
      dz2     :     0.017073  d :     0.071853
      dxz     :     0.011399
      dyz     :     0.013135
      dx2y2   :     0.011903
      dxy     :     0.018343

  2 P s       :     5.332211  s :     5.332211
      pz      :     3.304311  p :     8.989185
      px      :     2.794088
      py      :     2.890786
      dz2     :     0.029828  d :     0.214087
      dxz     :     0.053437
      dyz     :     0.033055
      dx2y2   :     0.053087
      dxy     :     0.044679

  3 C s       :     2.899549  s :     2.899549
      pz      :     1.056838  p :     3.190119
      px      :     1.078176
      py      :     1.055105
      dz2     :     0.020060  d :     0.071853
      dxz     :     0.006088
      dyz     :     0.018086
      dx2y2   :     0.018040
      dxy     :     0.009578

  4 C s       :     2.831000  s :     2.831000
      pz      :     1.058553  p :     3.129082
      px      :     1.057557
      py      :     1.012972
      dz2     :     0.024152  d :     0.094596
      dxz     :     0.006347
      dyz     :     0.019624
      dx2y2   :     0.026049
      dxy     :     0.018425

  5 C s       :     2.920528  s :     2.920528
      pz      :     0.931490  p :     3.014045
      px      :     0.973178
      py      :     1.109377
      dz2     :     0.010719  d :     0.104700
      dxz     :     0.006079
      dyz     :     0.026344
      dx2y2   :     0.031701
      dxy     :     0.029858

  6 N s       :     3.426484  s :     3.426484
      pz      :     1.060427  p :     3.586283
      px      :     1.137962
      py      :     1.387894
      dz2     :     0.006486  d :     0.053924
      dxz     :     0.002984
      dyz     :     0.011572
      dx2y2   :     0.015752
      dxy     :     0.017130

  7 C s       :     2.899642  s :     2.899642
      pz      :     1.088988  p :     3.190127
      px      :     1.019875
      py      :     1.081264
      dz2     :     0.014007  d :     0.071835
      dxz     :     0.012022
      dyz     :     0.016144
      dx2y2   :     0.012153
      dxy     :     0.017509

  8 C s       :     2.831028  s :     2.831028
      pz      :     1.042560  p :     3.129053
      px      :     1.030701
      py      :     1.055792
      dz2     :     0.016608  d :     0.094591
      dxz     :     0.017813
      dyz     :     0.023499
      dx2y2   :     0.013880
      dxy     :     0.022793

  9 C s       :     2.920532  s :     2.920532
      pz      :     1.051350  p :     3.014035
      px      :     0.973441
      py      :     0.989243
      dz2     :     0.027598  d :     0.104702
      dxz     :     0.022526
      dyz     :     0.024628
      dx2y2   :     0.015174
      dxy     :     0.014775

 10 N s       :     3.426484  s :     3.426484
      pz      :     1.277358  p :     3.586294
      px      :     1.139266
      py      :     1.169670
      dz2     :     0.012796  d :     0.053923
      dxz     :     0.012603
      dyz     :     0.014167
      dx2y2   :     0.006626
      dxy     :     0.007732

 11 C s       :     2.920534  s :     2.920534
      pz      :     0.971828  p :     3.014043
      px      :     1.106813
      py      :     0.935402
      dz2     :     0.017342  d :     0.104703
      dxz     :     0.029582
      dyz     :     0.006699
      dx2y2   :     0.024636
      dxy     :     0.026444

 12 N s       :     3.426482  s :     3.426482
      pz      :     1.135769  p :     3.586300
      px      :     1.383840
      py      :     1.066691
      dz2     :     0.007635  d :     0.053924
      dxz     :     0.016653
      dyz     :     0.003215
      dx2y2   :     0.014395
      dxy     :     0.012025

 13 H s       :     0.878192  s :     0.878192
      pz      :     0.039605  p :     0.065996
      px      :     0.011585
      py      :     0.014806

 14 H s       :     0.882513  s :     0.882513
      pz      :     0.018646  p :     0.065713
      px      :     0.016546
      py      :     0.030520

 15 H s       :     0.902122  s :     0.902122
      pz      :     0.040680  p :     0.069695
      px      :     0.014360
      py      :     0.014655

 16 H s       :     0.899243  s :     0.899243
      pz      :     0.018451  p :     0.069126
      px      :     0.021015
      py      :     0.029661

 17 H s       :     0.902124  s :     0.902124
      pz      :     0.038444  p :     0.069719
      px      :     0.013357
      py      :     0.017918

 18 H s       :     0.899244  s :     0.899244
      pz      :     0.012400  p :     0.069129
      px      :     0.042402
      py      :     0.014328

 19 H s       :     0.882508  s :     0.882508
      pz      :     0.012693  p :     0.065720
      px      :     0.041300
      py      :     0.011728

 20 H s       :     0.878176  s :     0.878176
      pz      :     0.038728  p :     0.065996
      px      :     0.012932
      py      :     0.014336

 21 H s       :     0.899249  s :     0.899249
      pz      :     0.015594  p :     0.069123
      px      :     0.020613
      py      :     0.032916

 22 H s       :     0.902120  s :     0.902120
      pz      :     0.036042  p :     0.069693
      px      :     0.012129
      py      :     0.021523

 23 H s       :     0.882531  s :     0.882531
      pz      :     0.013227  p :     0.065718
      px      :     0.021740
      py      :     0.030751

 24 H s       :     0.878188  s :     0.878188
      pz      :     0.032727  p :     0.065997
      px      :     0.011839
      py      :     0.021431



                      *****************************
                      * MAYER POPULATION ANALYSIS *
                      *****************************

  NA   - Mulliken gross atomic population
  ZA   - Total nuclear charge
  QA   - Mulliken gross atomic charge
  VA   - Mayer's total valence
  BVA  - Mayer's bonded valence
  FA   - Mayer's free valence

  ATOM       NA         ZA         QA         VA         BVA        FA
  0 C      5.8759     6.0000     0.1241     4.0266     4.0266    -0.0000
  1 C      6.1832     6.0000    -0.1832     3.9576     3.9576    -0.0000
  2 P     14.8032    15.0000     0.1968     3.0503     3.0503    -0.0000
  3 C      6.1832     6.0000    -0.1832     3.9578     3.9578    -0.0000
  4 C      5.8758     6.0000     0.1242     4.0266     4.0266    -0.0000
  5 C      6.2795     6.0000    -0.2795     4.2836     4.2836    -0.0000
  6 N      6.9359     7.0000     0.0641     3.1541     3.1541     0.0000
  7 C      6.1833     6.0000    -0.1833     3.9579     3.9579    -0.0000
  8 C      5.8760     6.0000     0.1240     4.0267     4.0267    -0.0000
  9 C      6.2794     6.0000    -0.2794     4.2834     4.2834    -0.0000
 10 N      6.9359     7.0000     0.0641     3.1541     3.1541    -0.0000
 11 C      6.2795     6.0000    -0.2795     4.2834     4.2834    -0.0000
 12 N      6.9359     7.0000     0.0641     3.1541     3.1541    -0.0000
 13 H      0.9465     1.0000     0.0535     0.9932     0.9932     0.0000
 14 H      0.9528     1.0000     0.0472     0.9945     0.9945     0.0000
 15 H      0.9482     1.0000     0.0518     0.9825     0.9825    -0.0000
 16 H      0.9437     1.0000     0.0563     0.9826     0.9826    -0.0000
 17 H      0.9481     1.0000     0.0519     0.9825     0.9825    -0.0000
 18 H      0.9437     1.0000     0.0563     0.9826     0.9826    -0.0000
 19 H      0.9528     1.0000     0.0472     0.9945     0.9945     0.0000
 20 H      0.9464     1.0000     0.0536     0.9932     0.9932    -0.0000
 21 H      0.9437     1.0000     0.0563     0.9826     0.9826     0.0000
 22 H      0.9482     1.0000     0.0518     0.9825     0.9825    -0.0000
 23 H      0.9529     1.0000     0.0471     0.9945     0.9945     0.0000
 24 H      0.9464     1.0000     0.0536     0.9932     0.9932     0.0000

  Mayer bond orders larger than 0.100000
B(  0-C ,  1-C ) :   1.0569 B(  0-C , 11-C ) :   1.1299 B(  0-C , 13-H ) :   0.9016 
B(  0-C , 14-H ) :   0.9000 B(  1-C ,  2-P ) :   0.9753 B(  1-C , 15-H ) :   0.9277 
B(  1-C , 16-H ) :   0.9409 B(  2-P ,  3-C ) :   0.9755 B(  2-P ,  7-C ) :   0.9755 
B(  3-C ,  4-C ) :   1.0569 B(  3-C , 17-H ) :   0.9277 B(  3-C , 18-H ) :   0.9410 
B(  4-C ,  5-C ) :   1.1300 B(  4-C , 19-H ) :   0.8999 B(  4-C , 20-H ) :   0.9016 
B(  5-C ,  6-N ) :   3.0596 B(  7-C ,  8-C ) :   1.0570 B(  7-C , 21-H ) :   0.9410 
B(  7-C , 22-H ) :   0.9277 B(  8-C ,  9-C ) :   1.1300 B(  8-C , 23-H ) :   0.9000 
B(  8-C , 24-H ) :   0.9016 B(  9-C , 10-N ) :   3.0596 B( 11-C , 12-N ) :   3.0596 


-------
TIMINGS
-------

Total SCF time: 0 days 0 hours 0 min 5 sec 

Total time                  ....       5.944 sec
Sum of individual times     ....       5.893 sec  ( 99.1%)

SCF preparation             ....       0.104 sec  (  1.7%)
Fock matrix formation       ....       5.560 sec  ( 93.5%)
  Startup                   ....       0.016 sec  (  0.3% of F)
  Exchange formation        ....       3.622 sec  ( 65.1% of F)
  Split-RI-J                ....       0.616 sec  ( 11.1% of F)
  XC integration            ....       1.246 sec  ( 22.4% of F)
    Basis function eval.    ....       0.388 sec  ( 31.1% of XC)
    Density eval.           ....       0.317 sec  ( 25.4% of XC)
    XC-Functional eval.     ....       0.035 sec  (  2.8% of XC)
    XC-Potential eval.      ....       0.249 sec  ( 20.0% of XC)
Diagonalization             ....       0.000 sec  (  0.0%)
Density matrix formation    ....       0.031 sec  (  0.5%)
Total Energy calculation    ....       0.013 sec  (  0.2%)
Population analysis         ....       0.051 sec  (  0.9%)
Orbital Transformation      ....       0.017 sec  (  0.3%)
Orbital Orthonormalization  ....       0.000 sec  (  0.0%)
DIIS solution               ....       0.023 sec  (  0.4%)
SOSCF solution              ....       0.094 sec  (  1.6%)
Finished LeanSCF after   6.0 sec

Maximum memory used throughout the entire LEANSCF-calculation: 23.5 MB


-------------------------------------------------------------------------------
                          DFT DISPERSION CORRECTION                            
                                                                               
                              DFTD3 V3.1  Rev 1                                
                          USING Becke-Johnson damping                          
-------------------------------------------------------------------------------
The B3LYP functional is recognized
Active option DFTDOPT                   ...         4   

molecular C6(AA) [au] = 7941.825868 


            DFT-D V3
 parameters
 s6 scaling factor         :     1.0000 
 a1 scaling factor         :     0.3981 
 s8 scaling factor         :     1.9889 
 a2 scaling factor         :     4.4211 
 ad hoc parameters k1-k3   :    16.0000     1.3333    -4.0000 

 Edisp/kcal,au: -29.628535615855  -0.047216071916 
 E6   /kcal   : -13.737196196 
 E8   /kcal   : -15.891339420 
 % E8         :  53.635250916 

-------------------------   ----------------
Dispersion correction           -0.047216072
-------------------------   ----------------


-------------------------   --------------------
FINAL SINGLE POINT ENERGY      -854.939559594524
-------------------------   --------------------

                                *** OPTIMIZATION RUN DONE ***



           ************************************************************
           *        Program running with 6 parallel MPI-processes     *
           *              working on a common directory               *
           ************************************************************

------------------------------------------------------------------------------
                              ORCA PROPERTY CALCULATIONS
------------------------------------------------------------------------------

GBWName                                 ... data/geom_opt/77639/77639.gbw
Number of atoms                         ...     25
Number of basis functions               ...    246
Max core memory                         ...   1024 MB

Electric properties:
Dipole moment                           ... YES
Quadrupole moment                       ...  NO
Static polarizability (Dipole/Dipole)   ...  NO
Static polarizability (Dipole/Quad.)    ...  NO
Static polarizability (Quad./Quad.)     ...  NO
Static polarizability (Velocity)        ...  NO

Atomic electric properties:
Dipole moment                           ...  NO
Quadrupole moment                       ...  NO
Static polarizability                   ...  NO

Choice of electric origin               ... Center of mass
Position of electric origin             ...    -0.000646     0.031142    -0.070133

General magnetic properties:
Magnetizability                         ...  NO

EPR properties:
g-Tensor (aka g-matrix)                 ...  NO
Zero-Field splitting spin-orbit         ...  NO
Zero-field splitting spin-spin          ...  NO
Hyperfine couplings                     ...  NO (   0 nuclei)
Quadrupole couplings                    ...  NO (   0 nuclei)
Contact density                         ...  NO (   0 nuclei)

NMR properties:
Chemical shifts                         ...  NO (   0 nuclei)
Spin-rotation constants                 ...  NO (   0 nuclei)
Spin-spin couplings                     ...  NO (   0 nuclei,    0 pairs)

Choice of magnetic origin               ... GIAO
Position of magnetic origin             ...     0.000000     0.000000     0.000000

Properties with geometric perturbations:
SCF Hessian                             ...  NO
IR spectrum                             ...  NO
VCD spectrum                            ...  NO
X-ray spectroscopy properties:
SCF XES/XAS/RIXS spectra                ...  NO


-------------
DIPOLE MOMENT
-------------

Method             : SCF
Type of density    : Electron Density
Multiplicity       :   1
Irrep              :   0
Energy             :  -854.8923435226083711 Eh
Relativity type    : 
Basis              : AO
                                X                 Y                 Z
Electronic contribution:     -0.001251114      -0.066556279       0.165427315
Nuclear contribution   :      0.009502459      -0.493980647       1.116046776
                        -----------------------------------------
Total Dipole Moment    :      0.008251345      -0.560536926       1.281474091
                        -----------------------------------------
Magnitude (a.u.)       :      1.398729987
Magnitude (Debye)      :      3.555289083



--------------------
Rotational spectrum 
--------------------
 
Rotational constants in cm-1:             0.015042             0.015023             0.007972 
Rotational constants in MHz :           450.943125           450.393170           239.000937 

Dipole components along the rotational axes: 
x,y,z [a.u.] :     0.001288    -0.002889     1.398726 
x,y,z [Debye]:     0.003275    -0.007344     3.555280 

 

Dipole moment calculation done in   0.0 sec 

Maximum memory used throughout the entire PROP-calculation: 11.3 MB

--------------------------------
SUGGESTED CITATIONS FOR THIS RUN
--------------------------------

Below you find a list of papers that are relevant to this ORCA run
We neither can nor want to force you to cite these papers, but we appreciate if you do
You receive ORCA, which is the product of decades of hard work by many enthusiastic individuals, for free
The only thing we kindly ask in return is that you cite our papers,
We deeply appreciate it, if you show your appreciation for ORCA by not just citing the generic ORCA reference.

Please note that relegating all ORCA citations to the supporting information does *not* help us.
SI sections are not indexed - citations you put there will not count into any citation statistics
But we need these citations in order to attract the funding resources that allow us to do what we are doing

Therefore, if you are a happy ORCA user, please consider citing a few of the papers listed below in the main body of your paper

In addition to the list printed below, the program has created the file data/geom_opt/77639/77639.bibtex that contains the list in bibtex format
You can import this file easily into all common literature databanks and citation aid programs


List of essential papers. We consider these as the minimum necessary citations

  1. Neese,F.
     Software update: the ORCA program system, version 5.0
     WIRES Comput. Molec. Sci., 2022 12(1)e1606
     doi.org/10.1002/wcms.1606

List of papers to cite with high priority. The work reported in these papers was absolutely
necessary for this run to complete.
Our perspective: the developers of density functionals and basis sets usually get cited in chemistry papers
Good! But without the algorithms to do something with them, the functionals or basis sets would not do anything.
Hence, in our opinion, the algorithm design and method developments papers are equally worthy of getting cited

  1. Neese,F.
     An improvement of the resolution of the identity approximation for the formation of the Coulomb matrix
     J. Comp. Chem., 2003 24(14)1740-1747
     doi.org/10.1002/jcc.10318
  2. Neese,F.
     The SHARK Integral Generation and Digestion System
     J. Comp. Chem., 2022  1-16
     doi.org/10.1002/jcc.26942
  3. Grimme,S.; Antony,J.; Ehrlich,S.; Krieg,H.
     A consistent and accurate ab initio parametrization of density functional dispersion correction (DFT-D) for the 94 elements H-Pu
     J. Chem. Phys., 2010 132 154104-XXXX
     doi.org/10.1063/1.3382344
  4. Grimme,S.; Ehrlich,S.; Goerigk,L.
     Effect of the damping function in dispersion corrected density functional theory
     J. Comput. Chem., 2011 32(7)1456-1465
     doi.org/10.1002/jcc.21759

List of suggested additional citations. These are papers that are important in the 'surrounding' of 
of this run, or papers that preceded the highly important papers. If you like your results we are grateful for a citation.

  1. Neese,F.
     The ORCA program system
     WIRES Comput. Molec. Sci., 2012 2(1)73-78
     doi.org/10.1002/wcms.81
  2. Neese,F.
     Software update: the ORCA program system, version 4.0
     WIRES Comput. Molec. Sci., 2018 8(1)1-6
     doi.org/10.1002/wcms.1327
  3. Neese,F.; Wennmohs,F.; Becker,U.; Riplinger,C.
     The ORCA quantum chemistry program package
     J. Chem. Phys., 2020 152 Art. No. L224108
     doi.org/10.1063/5.0004608

List of optional additional citations

  1. Neese,F.
     Approximate second-order SCF convergence for spin unrestricted wavefunctions
     Chem. Phys. Lett., 2000 325(1-3)93-98
     doi.org/10.1016/s0009-2614(00)00662-x

Timings for individual modules:

Sum of individual times          ...       86.988 sec (=   1.450 min)
Startup calculation              ...        4.443 sec (=   0.074 min)   5.1 %
SCF iterations                   ...       52.983 sec (=   0.883 min)  60.9 %
Property calculations            ...        0.137 sec (=   0.002 min)   0.2 %
SCF Gradient evaluation          ...       29.381 sec (=   0.490 min)  33.8 %
Geometry relaxation              ...        0.044 sec (=   0.001 min)   0.1 %
                             ****ORCA TERMINATED NORMALLY****
TOTAL RUN TIME: 0 days 0 hours 1 minutes 28 seconds 36 msec
