
                                 *****************
                                 * O   R   C   A *
                                 *****************

                                            #,                                       
                                            ###                                      
                                            ####                                     
                                            #####                                    
                                            ######                                   
                                           ########,                                 
                                     ,,################,,,,,                         
                               ,,#################################,,                 
                          ,,##########################################,,             
                       ,#########################################, ''#####,          
                    ,#############################################,,   '####,        
                  ,##################################################,,,,####,       
                ,###########''''           ''''###############################       
              ,#####''   ,,,,##########,,,,          '''####'''          '####       
            ,##' ,,,,###########################,,,                        '##       
           ' ,,###''''                  '''############,,,                           
         ,,##''                                '''############,,,,        ,,,,,,###''
      ,#''                                            '''#######################'''  
     '                                                          ''''####''''         
             ,#######,   #######,   ,#######,      ##                                
            ,#'     '#,  ##    ##  ,#'     '#,    #''#        ,####,   ,####,        
            ##       ##  ##   ,#'  ##            #'  '#       #'       #'  '#        
            ##       ##  #######   ##           ,######,      #####,   #    #        
            '#,     ,#'  ##    ##  '#,     ,#' ,#      #,     #,   #   #,  ,#        
             '#######'   ##     ##  '#######'  #'      '#     '####' # '####'        



                #########################################################
                #                        -***-                          #
                #          Department of theory and spectroscopy        #
                #                                                       #
                #                      Frank Neese                      #
                #                                                       #
                #     Directorship, Architecture, Infrastructure        #
                #                    SHARK, DRIVERS                     #
                #        Core code/Algorithms in most modules           #
                #                                                       #
                #        Max Planck Institute fuer Kohlenforschung      #
                #                Kaiser Wilhelm Platz 1                 #
                #                 D-45470 Muelheim/Ruhr                 #
                #                      Germany                          #
                #                                                       #
                #                  All rights reserved                  #
                #                        -***-                          #
                #########################################################


                         Program Version 6.0.0  -   RELEASE   -


 With contributions from (in alphabetic order):
   Daniel Aravena         : Magnetic Suceptibility
   Michael Atanasov       : Ab Initio Ligand Field Theory (pilot matlab implementation)
   Alexander A. Auer      : GIAO ZORA, VPT2 properties, NMR spectrum
   Ute Becker             : All parallelization in ORCA, NUMFREQ, NUMCALC
   Giovanni Bistoni       : ED, misc. LED, open-shell LED, HFLD
   Martin Brehm           : Molecular dynamics
   Dmytro Bykov           : pre 5.0 version of the SCF Hessian
   Marcos Casanova-Páez   : Triplet and SCS-CIS(D). UHF-(DLPNO)-IP/EA/STEOM-CCSD. UHF-CVS-IP/STEOM-CCSD
   Vijay G. Chilkuri      : MRCI spin determinant printing, contributions to CSF-ICE
   Pauline Colinet        : FMM embedding
   Dipayan Datta          : RHF DLPNO-CCSD density
   Achintya Kumar Dutta   : EOM-CC, STEOM-CC
   Nicolas Foglia         : Exact transition moments, OPA infrastructure, MCD improvements
   Dmitry Ganyushin       : Spin-Orbit,Spin-Spin,Magnetic field MRCI
   Miquel Garcia          : C-PCM and meta-GGA Hessian, CCSD/C-PCM, Gaussian charge scheme
   Tiago L. C. Gouveia    : GS-ROHF, GS-ROCIS
   Yang Guo               : DLPNO-NEVPT2, F12-NEVPT2, CIM, IAO-localization
   Andreas Hansen         : Spin unrestricted coupled pair/coupled cluster methods
   Ingolf Harden          : AUTO-CI MPn and infrastructure 
   Benjamin Helmich-Paris : MC-RPA, TRAH-(SCF,CASSCF), AVAS, COSX integrals, SCF dyn. polar.
   Lee Huntington         : MR-EOM, pCC
   Robert Izsak           : Overlap fitted RIJCOSX, COSX-SCS-MP3, EOM
   Riya Kayal             : Wick's Theorem for AUTO-CI, AUTO-CI UHF-CCSDT
   Emily Kempfer          : AUTO-CI, RHF CISDT and CCSDT
   Christian Kollmar      : KDIIS, OOCD, Brueckner-CCSD(T), CCSD density, CASPT2, CASPT2-K, improved NEVPT2
   Axel Koslowski         : Symmetry handling
   Simone Kossmann        : Meta GGA functionals, TD-DFT gradient, OOMP2, (MP2 Hessian; deprecated post 5.0)
   Lucas Lang             : DCDCAS
   Marvin Lechner         : AUTO-CI (C++ implementation), FIC-MRCC
   Spencer Leger          : CASSCF response
   Dagmar Lenk            : GEPOL surface, SMD, ORCA-2-JSON
   Dimitrios Liakos       : Extrapolation schemes; Compound Job, initial MDCI parallelization
   Dimitrios Manganas     : Further ROCIS development; embedding schemes. LFT, Crystal Embedding
   Dimitrios Pantazis     : SARC Basis sets
   Anastasios Papadopoulos: AUTO-CI, single reference methods and gradients
   Taras Petrenko         : pre 6.0 DFT Hessian and TD-DFT gradient, (ASA, deprecated), ECA, 1-Electron XAS/XES, NRVS
   Peter Pinski           : DLPNO-MP2, DLPNO-MP2 Gradient
   Christoph Reimann      : Effective Core Potentials
   Marius Retegan         : Local ZFS, SOC
   Christoph Riplinger    : Optimizer, TS searches, QM/MM, DLPNO-CCSD(T), (RO)-DLPNO pert. Triples
   Michael Roemelt        : Original ROCIS implementation
   Masaaki Saitow         : Open-shell DLPNO-CCSD energy and density
   Barbara Sandhoefer     : DKH picture change effects
   Kantharuban Sivalingam : CASSCF convergence/infrastructure, NEVPT2 and variants, FIC-MRCI
   Bernardo de Souza      : ESD, SOC TD-DFT
   Georgi Stoychev        : AutoAux, RI-MP2 NMR, DLPNO-MP2 response, X2C
   Van Anh Tran           : RI-MP2 g-tensors
   Willem Van den Heuvel  : Paramagnetic NMR
   Zikuan Wang            : NOTCH, Electric field optimization 
   Frank Wennmohs         : Technical directorship and infrastructure
   Hang Xu                : AUTO-CI-Response properties 


 We gratefully acknowledge several colleagues who have allowed us to
 interface, adapt or use parts of their codes:
   Stefan Grimme, W. Hujo, H. Kruse, P. Pracht,  : VdW corrections, initial TS optimization,
                  C. Bannwarth, S. Ehlert,         DFT functionals, gCP, sTDA/sTD-DF
                  L. Wittmann, M. Mueller
   Ed Valeev, F. Pavosevic, A. Kumar             : LibInt (2-el integral package), F12 methods
   Garnet Chan, S. Sharma, J. Yang, R. Olivares  : DMRG
   Ulf Ekstrom                                   : XCFun DFT Library
   Mihaly Kallay                                 : mrcc  (arbitrary order and MRCC methods)
   Frank Weinhold                                : gennbo (NPA and NBO analysis)
   Simon Mueller                                 : openCOSMO-RS
   Christopher J. Cramer and Donald G. Truhlar   : smd solvation model
   Lars Goerigk                                  : TD-DFT with DH, B97 family of functionals
   V. Asgeirsson, H. Jonsson                     : NEB implementation
   FAccTs GmbH                                   : IRC, NEB, NEB-TS, DLPNO-Multilevel, CI-OPT
                                                   MM, QMMM, 2- and 3-layer-ONIOM, Crystal-QMMM,
                                                   LR-CPCM, SF, NACMEs, symmetry and pop. for TD-DFT,
                                                   nearIR, NL-DFT gradient (VV10), updates on ESD,
                                                   ML-optimized integration grids, MBIS, APM,
                                                   GOAT, DOCKER, SOLVATOR, interface openCOSMO-RS
   S Lehtola, MJT Oliveira, MAL Marques          : LibXC Library
   Liviu Ungur et al                             : ANISO software


 Your calculation uses the libint2 library for the computation of 2-el integrals
 For citations please refer to: http://libint.valeyev.net

 Your ORCA version has been built with support for libXC version: 6.2.2
 For citations please refer to: https://libxc.gitlab.io

 This ORCA versions uses:
   CBLAS   interface :  Fast vector & matrix operations
   LAPACKE interface :  Fast linear algebra routines
   Shared memory     :  Shared parallel matrices


Your calculation utilizes the atom-pairwise dispersion correction
with the Becke-Johnson damping scheme (D3BJ)


Warning: RI is on but no J-basis has been assigned. Assigning Def2/J (nothing to worry about!)
================================================================================

----- Orbital basis set information -----
Your calculation utilizes the basis: def2-SVP
   F. Weigend and R. Ahlrichs, Phys. Chem. Chem. Phys. 7, 3297 (2005).

----- AuxJ basis set information -----
Your calculation utilizes the auxiliary basis: def2/J
   F. Weigend, Phys. Chem. Chem. Phys. 8, 1057 (2006).

================================================================================
                                        WARNINGS
                       Please study these warnings very carefully!
================================================================================


WARNING: Geometry Optimization
  ===> : Switching off AutoStart
         For restart on a previous wavefunction, please use MOREAD

================================================================================
                                       INPUT FILE
================================================================================
NAME = data/geom_opt_P_BP86/74149/74149.inp
|  1> ! RI BP86 def2-SVP D3BJ TIGHTSCF Opt
|  2> %pal
|  3> nprocs 6
|  4> end
|  5> 
|  6> * xyz 0 1
|  7> C     -1.701617   -2.562064   -0.358155
|  8> C     -2.047904   -1.085423   -0.255030
|  9> P     -0.984343   -0.195817    0.965631
| 10> C     -1.612198    1.523825    0.718241
| 11> C     -0.848874    2.544629    1.546681
| 12> C      0.630385   -0.152941    0.127816
| 13> C      0.808028    0.306627   -1.183776
| 14> C      2.075355    0.315158   -1.773995
| 15> C      3.182427   -0.135986   -1.060120
| 16> C      3.023187   -0.595850    0.244027
| 17> C      1.756056   -0.603978    0.833076
| 18> H     -2.385270   -3.059210   -1.054233
| 19> H     -1.788600   -3.064061    0.611733
| 20> H     -0.682227   -2.715282   -0.727873
| 21> H     -1.987809   -0.623639   -1.245700
| 22> H     -3.089607   -0.992960    0.072698
| 23> H     -2.665565    1.546438    1.019913
| 24> H     -1.581377    1.810306   -0.337820
| 25> H     -0.891573    2.307832    2.615490
| 26> H     -1.283283    3.540087    1.407355
| 27> H      0.205116    2.598609    1.254250
| 28> H     -0.034039    0.665504   -1.768925
| 29> H      2.196040    0.674892   -2.792439
| 30> H      4.167354   -0.129268   -1.519055
| 31> H      3.883350   -0.949227    0.806331
| 32> H      1.656987   -0.968202    1.853881
| 33> **                         ****END OF INPUT****
================================================================================

                       *****************************
                       * Geometry Optimization Run *
                       *****************************

Geometry optimization settings:
Update method            Update   .... BFGS
Choice of coordinates    CoordSys .... (2022) Redundant Internals
Initial Hessian          InHess   .... Almloef's Model
Max. no of cycles        MaxIter  .... 78

Convergence Tolerances:
Energy Change            TolE     ....  5.0000e-06 Eh
Max. Gradient            TolMAXG  ....  3.0000e-04 Eh/bohr
RMS Gradient             TolRMSG  ....  1.0000e-04 Eh/bohr
Max. Displacement        TolMAXD  ....  4.0000e-03 bohr
RMS Displacement         TolRMSD  ....  2.0000e-03 bohr
Strict Convergence                .... False

------------------------------------------------------------------------------
                        ORCA OPTIMIZATION COORDINATE SETUP
------------------------------------------------------------------------------

The optimization will be done in redundant internal coordinates (2022)
Making redundant internal coordinates   ...  (2022 redundants) done
Evaluating the initial hessian          ...  (Almloef) done
Evaluating the coordinates              ...  done
Calculating the B-matrix                .... done
Calculating the G-matrix                .... done
Diagonalizing the G-matrix              .... done
Small eigenvalue found = 1.226e-02
Small eigenvalue found = 1.723e-02
Small eigenvalue found = 2.416e-02
The first mode is                       ....   49
The number of degrees of freedom        ....   72

    -----------------------------------------------------------------
                    Redundant Internal Coordinates


    -----------------------------------------------------------------
         Definition                    Initial Value    Approx d2E/dq
    -----------------------------------------------------------------
      1. B(C   1,C   0)                  1.5202         0.387264   
      2. B(P   2,C   1)                  1.8473         0.391395   
      3. B(C   3,P   2)                  1.8473         0.391395   
      4. B(C   4,C   3)                  1.5202         0.387265   
      5. B(C   5,P   2)                  1.8196         0.433268   
      6. B(C   6,C   5)                  1.4011         0.599869   
      7. B(C   7,C   6)                  1.3981         0.606586   
      8. B(C   8,C   7)                  1.3924         0.619329   
      9. B(C   9,C   8)                  1.3920         0.620249   
     10. B(C  10,C   9)                  1.3974         0.608089   
     11. B(C  10,C   5)                  1.4028         0.596009   
     12. B(H  11,C   0)                  1.0950         0.353525   
     13. B(H  12,C   0)                  1.0956         0.352821   
     14. B(H  13,C   0)                  1.0951         0.353369   
     15. B(H  14,C   1)                  1.0947         0.353986   
     16. B(H  15,C   1)                  1.0959         0.352318   
     17. B(H  16,C   3)                  1.0959         0.352318   
     18. B(H  17,C   3)                  1.0947         0.353985   
     19. B(H  18,C   4)                  1.0956         0.352821   
     20. B(H  19,C   4)                  1.0950         0.353526   
     21. B(H  20,C   4)                  1.0951         0.353368   
     22. B(H  21,C   6)                  1.0864         0.364892   
     23. B(H  22,C   7)                  1.0868         0.364317   
     24. B(H  23,C   8)                  1.0866         0.364596   
     25. B(H  24,C   9)                  1.0867         0.364477   
     26. B(H  25,C  10)                  1.0884         0.362283   
     27. A(C   1,C   0,H  11)          109.9929         0.325256   
     28. A(H  11,C   0,H  12)          107.7677         0.289072   
     29. A(C   1,C   0,H  12)          111.5270         0.325149   
     30. A(C   1,C   0,H  13)          111.7671         0.325232   
     31. A(H  12,C   0,H  13)          107.9792         0.289052   
     32. A(H  11,C   0,H  13)          107.6394         0.289143   
     33. A(H  14,C   1,H  15)          106.6915         0.289067   
     34. A(C   0,C   1,H  14)          109.6252         0.325326   
     35. A(P   2,C   1,H  15)          107.9997         0.345746   
     36. A(C   0,C   1,P   2)          112.4233         0.392278   
     37. A(C   0,C   1,H  15)          108.5874         0.325073   
     38. A(P   2,C   1,H  14)          111.2997         0.346021   
     39. A(C   1,P   2,C   3)           99.4460         0.418836   
     40. A(C   3,P   2,C   5)          102.5919         0.426512   
     41. A(C   1,P   2,C   5)          102.5919         0.426512   
     42. A(H  16,C   3,H  17)          106.6914         0.289067   
     43. A(C   4,C   3,H  17)          109.6251         0.325326   
     44. A(C   4,C   3,H  16)          108.5874         0.325073   
     45. A(P   2,C   3,H  16)          107.9998         0.345747   
     46. A(P   2,C   3,C   4)          112.4233         0.392278   
     47. A(P   2,C   3,H  17)          111.2997         0.346021   
     48. A(C   3,C   4,H  19)          109.9929         0.325256   
     49. A(C   3,C   4,H  18)          111.5270         0.325150   
     50. A(H  19,C   4,H  20)          107.6394         0.289143   
     51. A(H  18,C   4,H  20)          107.9792         0.289052   
     52. A(C   3,C   4,H  20)          111.7671         0.325232   
     53. A(H  18,C   4,H  19)          107.7677         0.289073   
     54. A(P   2,C   5,C   6)          123.4534         0.431646   
     55. A(C   6,C   5,C  10)          118.3169         0.428452   
     56. A(P   2,C   5,C  10)          118.2297         0.431146   
     57. A(C   5,C   6,C   7)          120.8067         0.429806   
     58. A(C   5,C   6,H  21)          120.9499         0.351729   
     59. A(C   7,C   6,H  21)          118.2434         0.352392   
     60. A(C   8,C   7,H  22)          119.9597         0.353540   
     61. A(C   6,C   7,H  22)          119.8868         0.352298   
     62. A(C   6,C   7,C   8)          120.1535         0.432278   
     63. A(C   9,C   8,H  23)          120.0947         0.353675   
     64. A(C   7,C   8,H  23)          120.1413         0.353586   
     65. A(C   7,C   8,C   9)          119.7639         0.434013   
     66. A(C   8,C   9,C  10)          120.0393         0.432586   
     67. A(C  10,C   9,H  24)          119.8506         0.352472   
     68. A(C   8,C   9,H  24)          120.1101         0.353656   
     69. A(C   5,C  10,C   9)          120.9197         0.429499   
     70. A(C   9,C  10,H  25)          118.6765         0.352112   
     71. A(C   5,C  10,H  25)          120.4037         0.350920   
     72. D(P   2,C   1,C   0,H  12)     57.7724         0.011931   
     73. D(H  14,C   1,C   0,H  12)   -177.8716         0.011931   
     74. D(P   2,C   1,C   0,H  11)    177.2836         0.011931   
     75. D(H  14,C   1,C   0,H  13)     61.1442         0.011931   
     76. D(H  14,C   1,C   0,H  11)    -58.3604         0.011931   
     77. D(P   2,C   1,C   0,H  13)    -63.2118         0.011931   
     78. D(C   5,P   2,C   1,H  14)    -52.4209         0.003571   
     79. D(C   5,P   2,C   1,C   0)     71.0049         0.003571   
     80. D(C   3,P   2,C   1,H  15)    -63.9325         0.003571   
     81. D(C   3,P   2,C   1,H  14)     52.8637         0.003571   
     82. D(C   3,P   2,C   1,C   0)    176.2894         0.003571   
     83. D(H  16,C   3,P   2,C   1)     63.9324         0.003571   
     84. D(H  16,C   3,P   2,C   5)    169.2170         0.003571   
     85. D(C   4,C   3,P   2,C   5)    -71.0048         0.003571   
     86. D(C   4,C   3,P   2,C   1)   -176.2894         0.003571   
     87. D(H  17,C   3,P   2,C   1)    -52.8636         0.003571   
     88. D(H  19,C   4,C   3,H  17)     58.3603         0.011931   
     89. D(H  19,C   4,C   3,H  16)    -57.8474         0.011931   
     90. D(H  19,C   4,C   3,P   2)   -177.2837         0.011931   
     91. D(H  18,C   4,C   3,H  17)    177.8715         0.011931   
     92. D(H  18,C   4,C   3,H  16)     61.6638         0.011931   
     93. D(H  18,C   4,C   3,P   2)    -57.7725         0.011931   
     94. D(C  10,C   5,P   2,C   3)    128.5807         0.003839   
     95. D(C  10,C   5,P   2,C   1)   -128.5808         0.003839   
     96. D(C   6,C   5,P   2,C   3)    -51.4194         0.003839   
     97. D(C   6,C   5,P   2,C   1)     51.4191         0.003839   
     98. D(H  21,C   6,C   5,C  10)    180.0000         0.024806   
     99. D(H  21,C   6,C   5,P   2)      0.0001         0.024806   
    100. D(C   7,C   6,C   5,C  10)     -0.0000         0.024806   
    101. D(C   7,C   6,C   5,P   2)   -180.0000         0.024806   
    102. D(C   8,C   7,C   6,C   5)      0.0000         0.025396   
    103. D(H  22,C   7,C   6,H  21)      0.0000         0.025396   
    104. D(H  22,C   7,C   6,C   5)   -180.0000         0.025396   
    105. D(C   8,C   7,C   6,H  21)    180.0000         0.025396   
    106. D(H  23,C   8,C   7,H  22)     -0.0000         0.026538   
    107. D(H  23,C   8,C   7,C   6)   -180.0000         0.026538   
    108. D(C   9,C   8,C   7,H  22)    180.0000         0.026538   
    109. D(C   9,C   8,C   7,C   6)     -0.0000         0.026538   
    110. D(H  24,C   9,C   8,H  23)     -0.0000         0.026622   
    111. D(H  24,C   9,C   8,C   7)   -180.0000         0.026622   
    112. D(C  10,C   9,C   8,H  23)   -180.0000         0.026622   
    113. D(C  10,C   9,C   8,C   7)      0.0000         0.026622   
    114. D(H  25,C  10,C   9,H  24)      0.0000         0.025529   
    115. D(H  25,C  10,C   9,C   8)    180.0000         0.025529   
    116. D(C   5,C  10,C   9,H  24)    180.0000         0.025529   
    117. D(C   5,C  10,C   9,C   8)     -0.0001         0.025529   
    118. D(H  25,C  10,C   5,C   6)   -180.0000         0.024471   
    119. D(H  25,C  10,C   5,P   2)     -0.0000         0.024471   
    120. D(C   9,C  10,C   5,C   6)      0.0001         0.024471   
    121. D(C   9,C  10,C   5,P   2)   -180.0000         0.024471   
    -----------------------------------------------------------------

Number of atoms                         .... 26
Number of degrees of freedom            .... 121


         *************************************************************
         *                GEOMETRY OPTIMIZATION CYCLE   1            *
         *************************************************************
---------------------------------
CARTESIAN COORDINATES (ANGSTROEM)
---------------------------------
  C     -1.701617   -2.562064   -0.358155
  C     -2.047904   -1.085423   -0.255030
  P     -0.984343   -0.195817    0.965631
  C     -1.612198    1.523825    0.718241
  C     -0.848874    2.544629    1.546681
  C      0.630385   -0.152941    0.127816
  C      0.808028    0.306627   -1.183776
  C      2.075355    0.315158   -1.773995
  C      3.182427   -0.135986   -1.060120
  C      3.023187   -0.595850    0.244027
  C      1.756056   -0.603978    0.833076
  H     -2.385270   -3.059210   -1.054233
  H     -1.788600   -3.064061    0.611733
  H     -0.682227   -2.715282   -0.727873
  H     -1.987809   -0.623639   -1.245700
  H     -3.089607   -0.992960    0.072698
  H     -2.665565    1.546438    1.019913
  H     -1.581377    1.810306   -0.337820
  H     -0.891573    2.307832    2.615490
  H     -1.283283    3.540087    1.407355
  H      0.205116    2.598609    1.254250
  H     -0.034039    0.665504   -1.768925
  H      2.196040    0.674892   -2.792439
  H      4.167354   -0.129268   -1.519055
  H      3.883350   -0.949227    0.806331
  H      1.656987   -0.968202    1.853881

----------------------------
CARTESIAN COORDINATES (A.U.)
----------------------------
  NO LB      ZA    FRAG     MASS         X           Y           Z
   0 C     6.0000    0    12.011   -3.215590   -4.841599   -0.676815
   1 C     6.0000    0    12.011   -3.869978   -2.051152   -0.481937
   2 P    15.0000    0    30.974   -1.860139   -0.370041    1.824778
   3 C     6.0000    0    12.011   -3.046613    2.879612    1.357279
   4 C     6.0000    0    12.011   -1.604139    4.808652    2.922804
   5 C     6.0000    0    12.011    1.191255   -0.289017    0.241537
   6 C     6.0000    0    12.011    1.526952    0.579441   -2.237012
   7 C     6.0000    0    12.011    3.921853    0.595562   -3.352365
   8 C     6.0000    0    12.011    6.013915   -0.256976   -2.003336
   9 C     6.0000    0    12.011    5.712995   -1.125993    0.461144
  10 C     6.0000    0    12.011    3.318465   -1.141353    1.574285
  11 H     1.0000    0     1.008   -4.507507   -5.781069   -1.992212
  12 H     1.0000    0     1.008   -3.379964   -5.790236    1.156008
  13 H     1.0000    0     1.008   -1.289222   -5.131139   -1.375481
  14 H     1.0000    0     1.008   -3.756415   -1.178507   -2.354032
  15 H     1.0000    0     1.008   -5.838511   -1.876422    0.137379
  16 H     1.0000    0     1.008   -5.037188    2.922344    1.927356
  17 H     1.0000    0     1.008   -2.988369    3.420983   -0.638387
  18 H     1.0000    0     1.008   -1.684829    4.361170    4.942560
  19 H     1.0000    0     1.008   -2.425053    6.689795    2.659516
  20 H     1.0000    0     1.008    0.387613    4.910659    2.370189
  21 H     1.0000    0     1.008   -0.064324    1.257620   -3.342784
  22 H     1.0000    0     1.008    4.149914    1.275361   -5.276945
  23 H     1.0000    0     1.008    7.875158   -0.244281   -2.870598
  24 H     1.0000    0     1.008    7.338468   -1.793779    1.523745
  25 H     1.0000    0     1.008    3.131252   -1.829637    3.503327

--------------------------------
INTERNAL COORDINATES (ANGSTROEM)
--------------------------------
 C      0   0   0     0.000000000000     0.00000000     0.00000000
 C      1   0   0     1.520203307086     0.00000000     0.00000000
 P      2   1   0     1.847315379917   112.42326095     0.00000000
 C      3   2   1     1.847314895000    99.44596256   176.28944723
 C      4   3   2     1.520203002560   112.42329086   183.71064130
 C      3   2   1     1.819647998813   102.59189233    71.00491748
 C      6   3   2     1.401082922791   123.45338729    51.41914185
 C      7   6   3     1.398051848413   120.80668074   180.00003011
 C      8   7   6     1.392392486889   120.15348295     0.00000000
 C      9   8   7     1.391988388495   119.76391829     0.00000000
 C     10   9   8     1.397378173561   120.03929615     0.00000000
 H      1   2   3     1.095016050937   109.99290349   177.28362162
 H      1   2   3     1.095559109698   111.52702473    57.77240898
 H      1   2   3     1.095136122657   111.76710778   296.78824834
 H      2   1   3     1.094661098505   109.62517550   124.35599708
 H      2   1   3     1.095947165041   108.58743374   240.56381745
 H      4   3   2     1.095946796173   107.99982974    63.93244361
 H      4   3   2     1.094662565873   111.29972176   307.13639253
 H      5   4   3     1.095558625675   111.52700455   302.22748939
 H      5   4   3     1.095015773092   109.99292751   182.71626974
 H      5   4   3     1.095136818056   111.76712268    63.21163072
 H      7   6   3     1.086401806800   120.94987546     0.00000000
 H      8   7   6     1.086830990135   119.88677788   180.00004747
 H      9   8   7     1.086622133530   120.14133302   180.00001342
 H     10   9   8     1.086711313604   120.11007169   180.00000148
 H     11  10   9     1.088355014213   118.67651627   179.99996435

---------------------------
INTERNAL COORDINATES (A.U.)
---------------------------
 C      0   0   0     0.000000000000     0.00000000     0.00000000
 C      1   0   0     2.872767918274     0.00000000     0.00000000
 P      2   1   0     3.490920151024   112.42326095     0.00000000
 C      3   2   1     3.490919234664    99.44596256   176.28944723
 C      4   3   2     2.872767342803   112.42329086   183.71064130
 C      3   2   1     3.438636377895   102.59189233    71.00491748
 C      6   3   2     2.647663014989   123.45338729    51.41914185
 C      7   6   3     2.641935114523   120.80668074   180.00003011
 C      8   7   6     2.631240471150   120.15348295     0.00000000
 C      9   8   7     2.630476835854   119.76391829     0.00000000
 C     10   9   8     2.640662053550   120.03929615     0.00000000
 H      1   2   3     2.069280448518   109.99290349   177.28362162
 H      1   2   3     2.070306680852   111.52702473    57.77240898
 H      1   2   3     2.069507351186   111.76710778   296.78824834
 H      2   1   3     2.068609685633   109.62517550   124.35599708
 H      2   1   3     2.071039999175   108.58743374   240.56381745
 H      4   3   2     2.071039302116   107.99982974    63.93244361
 H      4   3   2     2.068612458555   111.29972176   307.13639253
 H      5   4   3     2.070305766181   111.52700455   302.22748939
 H      5   4   3     2.069279923469   109.99292751   182.71626974
 H      5   4   3     2.069508665299   111.76712268    63.21163072
 H      7   6   3     2.053001886250   120.94987546     0.00000000
 H      8   7   6     2.053812925213   119.88677788   180.00004747
 H      9   8   7     2.053418243430   120.14133302   180.00001342
 H     10   9   8     2.053586769345   120.11007169   180.00000148
 H     11  10   9     2.056692913342   118.67651627   179.99996435

---------------------
BASIS SET INFORMATION
---------------------
There are 3 groups of distinct atoms

 Group   1 Type C   : 7s4p1d contracted to 3s2p1d pattern {511/31/1}
 Group   2 Type P   : 10s7p1d contracted to 4s3p1d pattern {5311/511/1}
 Group   3 Type H   : 4s1p contracted to 2s1p pattern {31/1}

Atom   0C    basis set group =>   1
Atom   1C    basis set group =>   1
Atom   2P    basis set group =>   2
Atom   3C    basis set group =>   1
Atom   4C    basis set group =>   1
Atom   5C    basis set group =>   1
Atom   6C    basis set group =>   1
Atom   7C    basis set group =>   1
Atom   8C    basis set group =>   1
Atom   9C    basis set group =>   1
Atom  10C    basis set group =>   1
Atom  11H    basis set group =>   3
Atom  12H    basis set group =>   3
Atom  13H    basis set group =>   3
Atom  14H    basis set group =>   3
Atom  15H    basis set group =>   3
Atom  16H    basis set group =>   3
Atom  17H    basis set group =>   3
Atom  18H    basis set group =>   3
Atom  19H    basis set group =>   3
Atom  20H    basis set group =>   3
Atom  21H    basis set group =>   3
Atom  22H    basis set group =>   3
Atom  23H    basis set group =>   3
Atom  24H    basis set group =>   3
Atom  25H    basis set group =>   3
---------------------------------
AUXILIARY/J BASIS SET INFORMATION
---------------------------------
There are 3 groups of distinct atoms

 Group   1 Type C   : 12s5p4d2f1g contracted to 6s4p3d1f1g pattern {711111/2111/211/2/1}
 Group   2 Type P   : 14s5p5d2f1g contracted to 8s4p3d1f1g pattern {71111111/2111/311/2/1}
 Group   3 Type H   : 5s2p1d contracted to 3s1p1d pattern {311/2/1}

Atom   0C    basis set group =>   1
Atom   1C    basis set group =>   1
Atom   2P    basis set group =>   2
Atom   3C    basis set group =>   1
Atom   4C    basis set group =>   1
Atom   5C    basis set group =>   1
Atom   6C    basis set group =>   1
Atom   7C    basis set group =>   1
Atom   8C    basis set group =>   1
Atom   9C    basis set group =>   1
Atom  10C    basis set group =>   1
Atom  11H    basis set group =>   3
Atom  12H    basis set group =>   3
Atom  13H    basis set group =>   3
Atom  14H    basis set group =>   3
Atom  15H    basis set group =>   3
Atom  16H    basis set group =>   3
Atom  17H    basis set group =>   3
Atom  18H    basis set group =>   3
Atom  19H    basis set group =>   3
Atom  20H    basis set group =>   3
Atom  21H    basis set group =>   3
Atom  22H    basis set group =>   3
Atom  23H    basis set group =>   3
Atom  24H    basis set group =>   3
Atom  25H    basis set group =>   3


           ************************************************************
           *        Program running with 6 parallel MPI-processes     *
           *              working on a common directory               *
           ************************************************************
------------------------------------------------------------------------------
                             ORCA STARTUP CALCULATIONS
                           -- RI-GTO INTEGRALS CHOSEN --
------------------------------------------------------------------------------
------------------------------------------------------------------------------
                   ___                                                        
                  /   \      - P O W E R E D   B Y -                         
                 /     \                                                     
                 |  |  |   _    _      __       _____    __    __             
                 |  |  |  | |  | |    /  \     |  _  \  |  |  /  |          
                  \  \/   | |  | |   /    \    | | | |  |  | /  /          
                 / \  \   | |__| |  /  /\  \   | |_| |  |  |/  /          
                |  |  |   |  __  | /  /__\  \  |    /   |      \           
                |  |  |   | |  | | |   __   |  |    \   |  |\   \          
                \     /   | |  | | |  |  |  |  | |\  \  |  | \   \       
                 \___/    |_|  |_| |__|  |__|  |_| \__\ |__|  \__/        
                                                                              
                      - O R C A' S   B I G   F R I E N D -                    
                                      &                                       
                       - I N T E G R A L  F E E D E R -                       
                                                                              
 v1 FN, 2020, v2 2021, v3 2022-2024                                           
------------------------------------------------------------------------------


----------------------
SHARK INTEGRAL PACKAGE
----------------------

Number of atoms                             ...     26
Number of basis functions                   ...    233
Number of shells                            ...    113
Maximum angular momentum                    ...      2
Integral batch strategy                     ... SHARK/LIBINT Hybrid
RI-J (if used) integral strategy            ... SPLIT-RIJ (Revised 2003 algorithm where possible)
Printlevel                                  ...      1
Contraction scheme used                     ... SEGMENTED contraction
Prescreening option                         ... SCHWARTZ
   Thresh                                   ... 2.500e-11
   Tcut                                     ... 2.500e-12
   Tpresel                                  ... 2.500e-12 
Coulomb Range Separation                    ... NOT USED
Exchange Range Separation                   ... NOT USED
Multipole approximations                    ... NOT USED
Finite Nucleus Model                        ... NOT USED
CABS basis                                  ... NOT available
Auxiliary Coulomb fitting basis             ... AVAILABLE
   # of basis functions in Aux-J            ...    706
   # of shells in Aux-J                     ...    242
   Maximum angular momentum in Aux-J        ...      4
Auxiliary J/K fitting basis                 ... NOT available
Auxiliary Correlation fitting basis         ... NOT available
Auxiliary 'external' fitting basis          ... NOT available

Checking pre-screening integrals            ... done (  0.0 sec) Dimension = 113
Check shell pair data                       ... done (  0.0 sec)
Shell pair information
Shell pair cut-off parameter TPreSel        ...   2.5e-12
Total number of shell pairs                 ...      6441
Shell pairs after pre-screening             ...      5689
Total number of primitive shell pairs       ...     22989
Primitive shell pairs kept                  ...     13951
          la=0 lb=0:   1869 shell pairs
          la=1 lb=0:   2153 shell pairs
          la=1 lb=1:    633 shell pairs
          la=2 lb=0:    621 shell pairs
          la=2 lb=1:    358 shell pairs
          la=2 lb=2:     55 shell pairs

Calculating one electron integrals          ... done (  0.0 sec)
Calculating RI/J V-Matrix + Cholesky decomp.... done (  0.0 sec)
Calculating Nuclear repulsion               ... done (  0.0 sec) ENN=    690.640311935156 Eh

Diagonalization of the overlap matrix:
Smallest eigenvalue                        ... 2.882e-04
Time for diagonalization                   ...    0.006 sec
Threshold for overlap eigenvalues          ... 1.000e-07
Number of eigenvalues below threshold      ... 0
Time for construction of square roots      ...    0.004 sec
Total time needed                          ...    0.011 sec

-------------------
DFT GRID GENERATION
-------------------

General Integration Accuracy     IntAcc      ... 4.388
Radial Grid Type                 RadialGrid  ... OptM3 with GC (2021)
Angular Grid (max. ang.)         AngularGrid ... 4 (Lebedev-302)
Angular grid pruning method      GridPruning ... 4 (adaptive)
Weight generation scheme         WeightScheme... mBecke (2022)
Basis function cutoff            BFCut       ... 1.0000e-11
Integration weight cutoff        WCut        ... 1.0000e-14
Partially contracted basis set               ... off
Rotationally invariant grid construction     ... off
Angular grids for H and He will be reduced by one unit

Total number of grid points                  ...   115086
Total number of batches                      ...     1812
Average number of points per batch           ...       63
Average number of grid points per atom       ...     4426
Initializing property integral containers    ... done (  0.0 sec)

SHARK setup successfully completed in   0.6 seconds

Maximum memory used throughout the entire STARTUP-calculation: 30.4 MB


           ************************************************************
           *        Program running with 6 parallel MPI-processes     *
           *              working on a common directory               *
           ************************************************************
-------------------------------------------------------------------------------
                                 ORCA GUESS
                   Start orbitals & Density for SCF / CASSCF
-------------------------------------------------------------------------------

------------
SCF SETTINGS
------------
Hamiltonian:
 Density Functional     Method          .... DFT(GTOs)
 Exchange Functional    Exchange        .... B88
   X-Alpha parameter    XAlpha          ....  0.666667
   Becke's b parameter  XBeta           ....  0.004200
 Correlation Functional Correlation     .... P86
 LDA part of GGA corr.  LDAOpt          .... PW91-LDA
 Gradients option       PostSCFGGA      .... off
   NL short-range parameter             ....  4.400000
 RI-approximation to the Coulomb term is turned on
   Number of AuxJ basis functions       .... 706


General Settings:
 Integral files         IntName         .... data/geom_opt_P_BP86/74149/74149
 Hartree-Fock type      HFTyp           .... RHF
 Total Charge           Charge          ....    0
 Multiplicity           Mult            ....    1
 Number of Electrons    NEL             ....   90
 Basis Dimension        Dim             ....  233
 Nuclear Repulsion      ENuc            ....    690.6403119352 Eh

Convergence Acceleration:
 AO-DIIS                CNVDIIS         .... on
   Start iteration      DIISMaxIt       ....    12
   Startup error        DIISStart       ....  0.200000
   # of expansion vecs  DIISMaxEq       ....     5
   Bias factor          DIISBfac        ....   1.050
   Max. coefficient     DIISMaxC        ....  10.000
 MO-DIIS                CNVKDIIS        .... off
 Trust-Rad. Augm. Hess. CNVTRAH         .... auto
   Auto Start mean grad. ratio tolernc. ....  1.125000
   Auto Start start iteration           ....    50
   Auto Start num. interpolation iter.  ....    10
   Max. Number of Micro iterations      ....    24
   Max. Number of Macro iterations      .... Maxiter - #DIIS iter
   Number of Davidson start vectors     ....     2
   Converg. threshold    (grad. norm)   ....   1.000e-05
   Grad. Scal. Fac. for Micro threshold ....   0.100
   Minimum threshold for Micro iter.    ....   1.000e-02
   NR start threshold (gradient norm)   ....   1.000e-04
   Initial trust radius                 ....   0.400
   Minimum AH scaling param. (alpha)    ....   1.000
   Maximum AH scaling param. (alpha)    .... 1000.000
   Quad. conv. algorithm                .... NR
   White noise on init. David. guess    .... on
   Maximum white noise                  ....   0.010
   Pseudo random numbers                .... off
   Inactive MOs                         .... canonical
   Orbital update algorithm             .... Taylor
   Preconditioner                       .... Diag
   Full preconditioner red. dimension   ....   250
 SOSCF                  CNVSOSCF        .... on
   Start iteration      SOSCFMaxIt      ....   150
   Startup grad/error   SOSCFStart      ....  0.003300
   Hessian update       SOSCFHessUp     .... L-BFGS
 Level Shifting         CNVShift        .... on
   Level shift para.    LevelShift      ....    0.2500
   Turn off err/grad.   ShiftErr        ....    0.0010
 Zerner damping         CNVZerner       .... off
 Static damping         CNVDamp         .... on
   Fraction old density DampFac         ....    0.7000
   Max. Damping (<1)    DampMax         ....    0.9800
   Min. Damping (>=0)   DampMin         ....    0.0000
   Turn off err/grad.   DampErr         ....    0.1000

SCF Procedure:
 Maximum # iterations   MaxIter         ....   125
 SCF integral mode      SCFMode         .... Direct
   Integral package                     .... SHARK and LIBINT hybrid scheme
 Reset frequency        DirectResetFreq ....    20
 Integral Threshold     Thresh          ....  2.500e-11 Eh
 Primitive CutOff       TCut            ....  2.500e-12 Eh

Convergence Tolerance:
 Convergence Check Mode ConvCheckMode   .... Total+1el-Energy
 Convergence forced     ConvForced      .... 0
 Energy Change          TolE            ....  1.000e-08 Eh
 1-El. energy change                    ....  1.000e-05 Eh
 Orbital Gradient       TolG            ....  1.000e-05
 Orbital Rotation angle TolX            ....  1.000e-05
 DIIS Error             TolErr          ....  5.000e-07

------------------------------
INITIAL GUESS: MODEL POTENTIAL
------------------------------
Loading Hartree-Fock densities                     ... done
Calculating cut-offs                               ... done
Initializing the effective Hamiltonian             ... done
Setting up the integral package (SHARK)            ... done
Starting the Coulomb interaction                   ... done (   0.1 sec)
Making the grid                                    ... done (   0.1 sec)
Mapping shells                                     ... done
Starting the XC term evaluation                    ... done (   0.1 sec)
  promolecular density results
     # of electrons  =     89.990273772
     EX              =    -78.507317838
     EC              =     -3.326360464
     EX+EC           =    -81.833678302
Transforming the Hamiltonian                       ... done (   0.0 sec)
Diagonalizing the Hamiltonian                      ... done (   0.0 sec)
Back transforming the eigenvectors                 ... done (   0.0 sec)
Now organizing SCF variables                       ... done
                      ------------------
                      INITIAL GUESS DONE (   0.3 sec)
                      ------------------
             **** ENERGY FILE WAS UPDATED (data/geom_opt_P_BP86/74149/74149.en.tmp) ****
Finished Guess after   0.4 sec
Maximum memory used throughout the entire GUESS-calculation: 16.4 MB


           ************************************************************
           *        Program running with 6 parallel MPI-processes     *
           *              working on a common directory               *
           ************************************************************

-------------------------------------------------------------------------------------------
                                      ORCA LEAN-SCF
                              memory conserving SCF solver
-------------------------------------------------------------------------------------------

----------------------------------------D-I-I-S--------------------------------------------
Iteration    Energy (Eh)           Delta-E    RMSDP     MaxDP     DIISErr   Damp  Time(sec)
-------------------------------------------------------------------------------------------
               ***  Starting incremental Fock matrix formation  ***
    1    -730.8185746510041554     0.00e+00  2.67e-03  7.53e-02  1.60e-01  0.700   0.5
    2    -730.9506729669710694    -1.32e-01  1.91e-03  4.69e-02  7.57e-02  0.700   0.4
                               ***Turning on AO-DIIS***
    3    -730.9979937571929440    -4.73e-02  8.78e-04  4.20e-02  2.08e-02  0.700   0.4
    4    -731.0255286187054935    -2.75e-02  1.67e-03  9.54e-02  8.16e-03  0.000   0.4
    5    -731.0873366442790484    -6.18e-02  2.99e-04  1.04e-02  6.02e-03  0.000   0.4
                              *** Initializing SOSCF ***
---------------------------------------S-O-S-C-F--------------------------------------
Iteration    Energy (Eh)           Delta-E    RMSDP     MaxDP     MaxGrad    Time(sec)
--------------------------------------------------------------------------------------
    6    -731.0879123345800963    -5.76e-04  1.08e-04  1.86e-03  1.51e-03     0.5
               *** Restarting incremental Fock matrix formation ***
    7    -731.0879546722298983    -4.23e-05  7.67e-05  1.78e-03  2.16e-04     0.5
    8    -731.0879550993099656    -4.27e-07  2.48e-05  5.54e-04  2.99e-04     0.4
    9    -731.0879582616994412    -3.16e-06  2.87e-05  9.80e-04  1.93e-04     0.4
   10    -731.0879575515266424     7.10e-07  1.50e-05  4.01e-04  1.93e-04     0.4
   11    -731.0879589199387283    -1.37e-06  7.69e-06  3.90e-04  1.96e-05     0.4
   12    -731.0879589089922774     1.09e-08  3.52e-06  2.04e-04  3.82e-05     0.3
   13    -731.0879589436865444    -3.47e-08  3.25e-06  1.37e-04  2.06e-05     0.4
   14    -731.0879589368230427     6.86e-09  2.21e-06  1.25e-04  2.06e-05     0.4
                 **** Energy Check signals convergence ****

               *****************************************************
               *                     SUCCESS                       *
               *           SCF CONVERGED AFTER  14 CYCLES          *
               *****************************************************

             **** ENERGY FILE WAS UPDATED (data/geom_opt_P_BP86/74149/74149.en.tmp) ****

----------------
TOTAL SCF ENERGY
----------------

Total Energy       :       -731.08795893682304 Eh          -19893.91475 eV

Components:
Nuclear Repulsion  :        690.64031193515643 Eh           18793.27832 eV
Electronic Energy  :      -1421.72827087197948 Eh          -38687.19307 eV
One Electron Energy:      -2367.63642458724053 Eh          -64426.66250 eV
Two Electron Energy:        945.90815371526105 Eh           25739.46943 eV

Virial components:
Potential Energy   :      -1456.44795276789500 Eh          -39631.96364 eV
Kinetic Energy     :        725.35999383107196 Eh           19738.04890 eV
Virial Ratio       :          2.00789672046221

DFT components:
N(Alpha)           :       44.999910372925 electrons
N(Beta)            :       44.999910372925 electrons
N(Total)           :       89.999820745849 electrons
E(X)               :      -79.773942537072 Eh       
E(C)               :       -3.328813649761 Eh       
E(XC)              :      -83.102756186833 Eh       

---------------
SCF CONVERGENCE
---------------

  Last Energy change         ...   -6.8635e-09  Tolerance :   1.0000e-08
  Last MAX-Density change    ...    1.2473e-04  Tolerance :   1.0000e-07
  Last RMS-Density change    ...    2.2113e-06  Tolerance :   5.0000e-09
  Last DIIS Error            ...    1.5101e-03  Tolerance :   5.0000e-07
  Last Orbital Gradient      ...    2.0609e-05  Tolerance :   1.0000e-05
  Last Orbital Rotation      ...    3.7183e-05  Tolerance :   1.0000e-05


----------------
ORBITAL ENERGIES
----------------

  NO   OCC          E(Eh)            E(eV) 
   0   2.0000     -76.323120     -2076.8577 
   1   2.0000      -9.921570      -269.9797 
   2   2.0000      -9.920218      -269.9428 
   3   2.0000      -9.919889      -269.9339 
   4   2.0000      -9.919266      -269.9170 
   5   2.0000      -9.918574      -269.8981 
   6   2.0000      -9.918304      -269.8908 
   7   2.0000      -9.909781      -269.6589 
   8   2.0000      -9.909767      -269.6585 
   9   2.0000      -9.902548      -269.4620 
  10   2.0000      -9.902543      -269.4619 
  11   2.0000      -6.294149      -171.2725 
  12   2.0000      -4.515653      -122.8772 
  13   2.0000      -4.515320      -122.8681 
  14   2.0000      -4.511619      -122.7674 
  15   2.0000      -0.777993       -21.1703 
  16   2.0000      -0.710778       -19.3413 
  17   2.0000      -0.680579       -18.5195 
  18   2.0000      -0.673612       -18.3299 
  19   2.0000      -0.671624       -18.2758 
  20   2.0000      -0.589308       -16.0359 
  21   2.0000      -0.548094       -14.9144 
  22   2.0000      -0.541165       -14.7258 
  23   2.0000      -0.536061       -14.5870 
  24   2.0000      -0.491588       -13.3768 
  25   2.0000      -0.454447       -12.3661 
  26   2.0000      -0.413709       -11.2576 
  27   2.0000      -0.402997       -10.9661 
  28   2.0000      -0.400573       -10.9001 
  29   2.0000      -0.395837       -10.7713 
  30   2.0000      -0.392649       -10.6845 
  31   2.0000      -0.377184       -10.2637 
  32   2.0000      -0.362158        -9.8548 
  33   2.0000      -0.353836        -9.6284 
  34   2.0000      -0.335439        -9.1278 
  35   2.0000      -0.330226        -8.9859 
  36   2.0000      -0.319699        -8.6994 
  37   2.0000      -0.311734        -8.4827 
  38   2.0000      -0.307495        -8.3674 
  39   2.0000      -0.300205        -8.1690 
  40   2.0000      -0.277508        -7.5514 
  41   2.0000      -0.274593        -7.4721 
  42   2.0000      -0.235090        -6.3971 
  43   2.0000      -0.232394        -6.3238 
  44   2.0000      -0.189411        -5.1541 
  45   0.0000      -0.055949        -1.5224 
  46   0.0000      -0.044810        -1.2193 
  47   0.0000       0.034459         0.9377 
  48   0.0000       0.034794         0.9468 
  49   0.0000       0.039727         1.0810 
  50   0.0000       0.058648         1.5959 
  51   0.0000       0.068886         1.8745 
  52   0.0000       0.080211         2.1826 
  53   0.0000       0.081955         2.2301 
  54   0.0000       0.091309         2.4846 
  55   0.0000       0.104321         2.8387 
*Only the first 10 virtual orbitals were printed.

                    ********************************
                    * MULLIKEN POPULATION ANALYSIS *
                    ********************************

-----------------------
MULLIKEN ATOMIC CHARGES
-----------------------
   0 C :   -0.020817
   1 C :   -0.176512
   2 P :    0.134685
   3 C :   -0.176334
   4 C :   -0.020963
   5 C :   -0.108180
   6 C :   -0.000018
   7 C :    0.010553
   8 C :    0.012416
   9 C :    0.005986
  10 C :    0.014365
  11 H :    0.027744
  12 H :    0.033600
  13 H :    0.038989
  14 H :    0.030441
  15 H :    0.047696
  16 H :    0.047671
  17 H :    0.030431
  18 H :    0.033617
  19 H :    0.027760
  20 H :    0.039021
  21 H :   -0.010918
  22 H :   -0.007034
  23 H :   -0.002973
  24 H :   -0.003261
  25 H :   -0.007967
Sum of atomic charges:   -0.0000000

--------------------------------
MULLIKEN REDUCED ORBITAL CHARGES
--------------------------------
  0 C s       :     2.989702  s :     2.989702
      pz      :     1.019887  p :     3.004023
      px      :     1.023660
      py      :     0.960476
      dz2     :     0.004150  d :     0.027091
      dxz     :     0.004213
      dyz     :     0.007136
      dx2y2   :     0.006710
      dxy     :     0.004882

  1 C s       :     3.083043  s :     3.083043
      pz      :     1.020437  p :     3.064011
      px      :     1.030869
      py      :     1.012705
      dz2     :     0.006435  d :     0.029459
      dxz     :     0.003363
      dyz     :     0.007377
      dx2y2   :     0.007463
      dxy     :     0.004821

  2 P s       :     5.796788  s :     5.796788
      pz      :     3.262882  p :     8.897182
      px      :     2.771878
      py      :     2.862423
      dz2     :     0.021818  d :     0.171346
      dxz     :     0.041846
      dyz     :     0.025394
      dx2y2   :     0.044986
      dxy     :     0.037302

  3 C s       :     3.082973  s :     3.082973
      pz      :     1.022976  p :     3.063902
      px      :     1.032325
      py      :     1.008601
      dz2     :     0.008755  d :     0.029458
      dxz     :     0.003069
      dyz     :     0.005638
      dx2y2   :     0.008051
      dxy     :     0.003946

  4 C s       :     2.989751  s :     2.989751
      pz      :     1.008196  p :     3.004120
      px      :     1.014507
      py      :     0.981418
      dz2     :     0.008894  d :     0.027092
      dxz     :     0.002722
      dyz     :     0.003289
      dx2y2   :     0.007749
      dxy     :     0.004437

  5 C s       :     3.075681  s :     3.075681
      pz      :     0.993947  p :     2.997388
      px      :     1.001060
      py      :     1.002381
      dz2     :     0.008823  d :     0.035111
      dxz     :     0.010990
      dyz     :     0.005333
      dx2y2   :     0.005334
      dxy     :     0.004632

  6 C s       :     3.217960  s :     3.217960
      pz      :     0.932161  p :     2.749123
      px      :     0.857521
      py      :     0.959440
      dz2     :     0.007526  d :     0.032935
      dxz     :     0.011504
      dyz     :     0.004823
      dx2y2   :     0.004221
      dxy     :     0.004861

  7 C s       :     3.168859  s :     3.168859
      pz      :     0.853254  p :     2.787696
      px      :     0.965106
      py      :     0.969336
      dz2     :     0.008038  d :     0.032892
      dxz     :     0.009153
      dyz     :     0.003199
      dx2y2   :     0.006020
      dxy     :     0.006482

  8 C s       :     3.167908  s :     3.167908
      pz      :     0.945439  p :     2.786550
      px      :     0.865681
      py      :     0.975430
      dz2     :     0.008353  d :     0.033126
      dxz     :     0.010460
      dyz     :     0.005313
      dx2y2   :     0.005269
      dxy     :     0.003731

  9 C s       :     3.171203  s :     3.171203
      pz      :     0.932810  p :     2.790062
      px      :     0.888351
      py      :     0.968900
      dz2     :     0.007825  d :     0.032749
      dxz     :     0.011000
      dyz     :     0.004826
      dx2y2   :     0.004358
      dxy     :     0.004740

 10 C s       :     3.230351  s :     3.230351
      pz      :     0.849316  p :     2.722493
      px      :     0.922043
      py      :     0.951134
      dz2     :     0.007946  d :     0.032790
      dxz     :     0.009103
      dyz     :     0.003187
      dx2y2   :     0.006053
      dxy     :     0.006501

 11 H s       :     0.949444  s :     0.949444
      pz      :     0.008392  p :     0.022811
      px      :     0.008213
      py      :     0.006206

 12 H s       :     0.943753  s :     0.943753
      pz      :     0.011383  p :     0.022647
      px      :     0.005393
      py      :     0.005871

 13 H s       :     0.938060  s :     0.938060
      pz      :     0.006312  p :     0.022950
      px      :     0.012153
      py      :     0.004485

 14 H s       :     0.947036  s :     0.947036
      pz      :     0.011454  p :     0.022522
      px      :     0.005191
      py      :     0.005878

 15 H s       :     0.929774  s :     0.929774
      pz      :     0.005879  p :     0.022530
      px      :     0.011941
      py      :     0.004710

 16 H s       :     0.929800  s :     0.929800
      pz      :     0.005790  p :     0.022529
      px      :     0.011974
      py      :     0.004765

 17 H s       :     0.947045  s :     0.947045
      pz      :     0.012176  p :     0.022523
      px      :     0.005022
      py      :     0.005325

 18 H s       :     0.943737  s :     0.943737
      pz      :     0.012327  p :     0.022647
      px      :     0.005125
      py      :     0.005195

 19 H s       :     0.949430  s :     0.949430
      pz      :     0.005286  p :     0.022810
      px      :     0.006316
      py      :     0.011208

 20 H s       :     0.938030  s :     0.938030
      pz      :     0.005635  p :     0.022949
      px      :     0.012353
      py      :     0.004961

 21 H s       :     0.988212  s :     0.988212
      pz      :     0.006634  p :     0.022706
      px      :     0.010012
      py      :     0.006060

 22 H s       :     0.984644  s :     0.984644
      pz      :     0.012568  p :     0.022391
      px      :     0.003891
      py      :     0.005932

 23 H s       :     0.980626  s :     0.980626
      pz      :     0.005638  p :     0.022347
      px      :     0.011901
      py      :     0.004808

 24 H s       :     0.980880  s :     0.980880
      pz      :     0.006538  p :     0.022381
      px      :     0.009951
      py      :     0.005892

 25 H s       :     0.985430  s :     0.985430
      pz      :     0.012842  p :     0.022537
      px      :     0.003902
      py      :     0.005792



                     *******************************
                     * LOEWDIN POPULATION ANALYSIS *
                     *******************************

----------------------
LOEWDIN ATOMIC CHARGES
----------------------
   0 C :   -0.078303
   1 C :   -0.186719
   2 P :    0.453479
   3 C :   -0.186693
   4 C :   -0.078320
   5 C :   -0.179994
   6 C :   -0.028941
   7 C :   -0.028428
   8 C :   -0.023653
   9 C :   -0.028608
  10 C :   -0.028119
  11 H :    0.027811
  12 H :    0.026965
  13 H :    0.027500
  14 H :    0.015604
  15 H :    0.028741
  16 H :    0.028727
  17 H :    0.015612
  18 H :    0.026971
  19 H :    0.027813
  20 H :    0.027502
  21 H :    0.023592
  22 H :    0.029360
  23 H :    0.030304
  24 H :    0.030568
  25 H :    0.027230

-------------------------------
LOEWDIN REDUCED ORBITAL CHARGES
-------------------------------
  0 C s       :     2.839835  s :     2.839835
      pz      :     1.073354  p :     3.167259
      px      :     1.071813
      py      :     1.022092
      dz2     :     0.011800  d :     0.071209
      dxz     :     0.011288
      dyz     :     0.017251
      dx2y2   :     0.019422
      dxy     :     0.011447

  1 C s       :     2.892733  s :     2.892733
      pz      :     1.087420  p :     3.219750
      px      :     1.079298
      py      :     1.053032
      dz2     :     0.017153  d :     0.074236
      dxz     :     0.009407
      dyz     :     0.016920
      dx2y2   :     0.020036
      dxy     :     0.010720

  2 P s       :     5.288444  s :     5.288444
      pz      :     3.344976  p :     9.026427
      px      :     2.799255
      py      :     2.882196
      dz2     :     0.028458  d :     0.231650
      dxz     :     0.057862
      dyz     :     0.031813
      dx2y2   :     0.062898
      dxy     :     0.050619

  3 C s       :     2.892733  s :     2.892733
      pz      :     1.073127  p :     3.219724
      px      :     1.071317
      py      :     1.075280
      dz2     :     0.021509  d :     0.074236
      dxz     :     0.007877
      dyz     :     0.014342
      dx2y2   :     0.020024
      dxy     :     0.010484

  4 C s       :     2.839836  s :     2.839836
      pz      :     1.058071  p :     3.167275
      px      :     1.062126
      py      :     1.047079
      dz2     :     0.022360  d :     0.071209
      dxz     :     0.007332
      dyz     :     0.009623
      dx2y2   :     0.019715
      dxy     :     0.012179

  5 C s       :     2.913917  s :     2.913917
      pz      :     1.084460  p :     3.173766
      px      :     1.089810
      py      :     0.999496
      dz2     :     0.024411  d :     0.092311
      dxz     :     0.031117
      dyz     :     0.013514
      dx2y2   :     0.012803
      dxy     :     0.010466

  6 C s       :     2.866681  s :     2.866681
      pz      :     1.051018  p :     3.071905
      px      :     1.047684
      py      :     0.973203
      dz2     :     0.021852  d :     0.090355
      dxz     :     0.033619
      dyz     :     0.011777
      dx2y2   :     0.011928
      dxy     :     0.011178

  7 C s       :     2.864323  s :     2.864323
      pz      :     1.030981  p :     3.074909
      px      :     1.065344
      py      :     0.978583
      dz2     :     0.021505  d :     0.089196
      dxz     :     0.027529
      dyz     :     0.007309
      dx2y2   :     0.017298
      dxy     :     0.015556

  8 C s       :     2.863660  s :     2.863660
      pz      :     1.052770  p :     3.070283
      px      :     1.043040
      py      :     0.974473
      dz2     :     0.023802  d :     0.089711
      dxz     :     0.029988
      dyz     :     0.013433
      dx2y2   :     0.013609
      dxy     :     0.008879

  9 C s       :     2.864329  s :     2.864329
      pz      :     1.049374  p :     3.075437
      px      :     1.048540
      py      :     0.977523
      dz2     :     0.022494  d :     0.088843
      dxz     :     0.031522
      dyz     :     0.011824
      dx2y2   :     0.012164
      dxy     :     0.010840

 10 C s       :     2.871673  s :     2.871673
      pz      :     1.033963  p :     3.066800
      px      :     1.066154
      py      :     0.966683
      dz2     :     0.021842  d :     0.089646
      dxz     :     0.027019
      dyz     :     0.007286
      dx2y2   :     0.017872
      dxy     :     0.015626

 11 H s       :     0.906221  s :     0.906221
      pz      :     0.023778  p :     0.065968
      px      :     0.023262
      py      :     0.018928

 12 H s       :     0.906984  s :     0.906984
      pz      :     0.034481  p :     0.066051
      px      :     0.013164
      py      :     0.018406

 13 H s       :     0.906119  s :     0.906119
      pz      :     0.016055  p :     0.066381
      px      :     0.036835
      py      :     0.013491

 14 H s       :     0.913019  s :     0.913019
      pz      :     0.038487  p :     0.071377
      px      :     0.014354
      py      :     0.018536

 15 H s       :     0.901652  s :     0.901652
      pz      :     0.016011  p :     0.069607
      px      :     0.039231
      py      :     0.014365

 16 H s       :     0.901666  s :     0.901666
      pz      :     0.015253  p :     0.069607
      px      :     0.038966
      py      :     0.015388

 17 H s       :     0.913013  s :     0.913013
      pz      :     0.039202  p :     0.071375
      px      :     0.013686
      py      :     0.018487

 18 H s       :     0.906978  s :     0.906978
      pz      :     0.038882  p :     0.066051
      px      :     0.013015
      py      :     0.014155

 19 H s       :     0.906220  s :     0.906220
      pz      :     0.013621  p :     0.065967
      px      :     0.017277
      py      :     0.035070

 20 H s       :     0.906117  s :     0.906117
      pz      :     0.014894  p :     0.066381
      px      :     0.038359
      py      :     0.013129

 21 H s       :     0.907155  s :     0.907155
      pz      :     0.020797  p :     0.069252
      px      :     0.030793
      py      :     0.017662

 22 H s       :     0.902367  s :     0.902367
      pz      :     0.038527  p :     0.068273
      px      :     0.012238
      py      :     0.017509

 23 H s       :     0.901601  s :     0.901601
      pz      :     0.017501  p :     0.068095
      px      :     0.036529
      py      :     0.014065

 24 H s       :     0.901238  s :     0.901238
      pz      :     0.020120  p :     0.068194
      px      :     0.030711
      py      :     0.017363

 25 H s       :     0.903590  s :     0.903590
      pz      :     0.040032  p :     0.069179
      px      :     0.011860
      py      :     0.017287



                      *****************************
                      * MAYER POPULATION ANALYSIS *
                      *****************************

  NA   - Mulliken gross atomic population
  ZA   - Total nuclear charge
  QA   - Mulliken gross atomic charge
  VA   - Mayer's total valence
  BVA  - Mayer's bonded valence
  FA   - Mayer's free valence

  ATOM       NA         ZA         QA         VA         BVA        FA
  0 C      6.0208     6.0000    -0.0208     3.9937     3.9937    -0.0000
  1 C      6.1765     6.0000    -0.1765     3.9908     3.9908    -0.0000
  2 P     14.8653    15.0000     0.1347     3.0564     3.0564    -0.0000
  3 C      6.1763     6.0000    -0.1763     3.9907     3.9907    -0.0000
  4 C      6.0210     6.0000    -0.0210     3.9938     3.9938    -0.0000
  5 C      6.1082     6.0000    -0.1082     3.7539     3.7539    -0.0000
  6 C      6.0000     6.0000    -0.0000     3.8742     3.8742    -0.0000
  7 C      5.9894     6.0000     0.0106     3.8555     3.8555    -0.0000
  8 C      5.9876     6.0000     0.0124     3.8284     3.8284    -0.0000
  9 C      5.9940     6.0000     0.0060     3.8443     3.8443     0.0000
 10 C      5.9856     6.0000     0.0144     3.8685     3.8685    -0.0000
 11 H      0.9723     1.0000     0.0277     0.9850     0.9850    -0.0000
 12 H      0.9664     1.0000     0.0336     0.9931     0.9931    -0.0000
 13 H      0.9610     1.0000     0.0390     0.9950     0.9950    -0.0000
 14 H      0.9696     1.0000     0.0304     0.9851     0.9851    -0.0000
 15 H      0.9523     1.0000     0.0477     0.9761     0.9761    -0.0000
 16 H      0.9523     1.0000     0.0477     0.9761     0.9761    -0.0000
 17 H      0.9696     1.0000     0.0304     0.9851     0.9851    -0.0000
 18 H      0.9664     1.0000     0.0336     0.9931     0.9931    -0.0000
 19 H      0.9722     1.0000     0.0278     0.9850     0.9850    -0.0000
 20 H      0.9610     1.0000     0.0390     0.9949     0.9949    -0.0000
 21 H      1.0109     1.0000    -0.0109     0.9885     0.9885    -0.0000
 22 H      1.0070     1.0000    -0.0070     0.9779     0.9779    -0.0000
 23 H      1.0030     1.0000    -0.0030     0.9782     0.9782    -0.0000
 24 H      1.0033     1.0000    -0.0033     0.9783     0.9783     0.0000
 25 H      1.0080     1.0000    -0.0080     0.9977     0.9977    -0.0000

  Mayer bond orders larger than 0.100000
B(  0-C ,  1-C ) :   1.0935 B(  0-C , 11-H ) :   0.9606 B(  0-C , 12-H ) :   0.9641 
B(  0-C , 13-H ) :   0.9684 B(  1-C ,  2-P ) :   0.9742 B(  1-C , 14-H ) :   0.9222 
B(  1-C , 15-H ) :   0.9395 B(  2-P ,  3-C ) :   0.9740 B(  2-P ,  5-C ) :   0.9270 
B(  3-C ,  4-C ) :   1.0936 B(  3-C , 16-H ) :   0.9395 B(  3-C , 17-H ) :   0.9222 
B(  4-C , 18-H ) :   0.9641 B(  4-C , 19-H ) :   0.9606 B(  4-C , 20-H ) :   0.9684 
B(  5-C ,  6-C ) :   1.3440 B(  5-C , 10-C ) :   1.3776 B(  6-C ,  7-C ) :   1.4054 
B(  6-C , 21-H ) :   0.9745 B(  7-C ,  8-C ) :   1.3735 B(  7-C , 22-H ) :   0.9785 
B(  8-C ,  9-C ) :   1.3855 B(  8-C , 23-H ) :   0.9806 B(  9-C , 10-C ) :   1.3832 
B(  9-C , 24-H ) :   0.9814 B( 10-C , 25-H ) :   0.9812 

-------
TIMINGS
-------

Total SCF time: 0 days 0 hours 0 min 5 sec 

Total time                  ....       5.771 sec
Sum of individual times     ....       5.716 sec  ( 99.0%)

SCF preparation             ....       0.083 sec  (  1.4%)
Fock matrix formation       ....       5.159 sec  ( 89.4%)
  Startup                   ....       0.032 sec  (  0.6% of F)
  Split-RI-J                ....       1.540 sec  ( 29.9% of F)
  XC integration            ....       3.450 sec  ( 66.9% of F)
    Basis function eval.    ....       0.978 sec  ( 28.3% of XC)
    Density eval.           ....       0.789 sec  ( 22.9% of XC)
    XC-Functional eval.     ....       0.104 sec  (  3.0% of XC)
    XC-Potential eval.      ....       0.743 sec  ( 21.5% of XC)
Diagonalization             ....       0.000 sec  (  0.0%)
Density matrix formation    ....       0.072 sec  (  1.2%)
Total Energy calculation    ....       0.031 sec  (  0.5%)
Population analysis         ....       0.046 sec  (  0.8%)
Orbital Transformation      ....       0.033 sec  (  0.6%)
Orbital Orthonormalization  ....       0.000 sec  (  0.0%)
DIIS solution               ....       0.164 sec  (  2.8%)
SOSCF solution              ....       0.128 sec  (  2.2%)
Finished LeanSCF after   5.8 sec

Maximum memory used throughout the entire LEANSCF-calculation: 23.1 MB


-------------------------------------------------------------------------------
                          DFT DISPERSION CORRECTION                            
                                                                               
                              DFTD3 V3.1  Rev 1                                
                          USING Becke-Johnson damping                          
-------------------------------------------------------------------------------
The BP86 functional is recognized
Active option DFTDOPT                   ...         4   

molecular C6(AA) [au] = 7328.505603 


            DFT-D V3
 parameters
 s6 scaling factor         :     1.0000 
 a1 scaling factor         :     0.3946 
 s8 scaling factor         :     3.2822 
 a2 scaling factor         :     4.8516 
 ad hoc parameters k1-k3   :    16.0000     1.3333    -4.0000 

 Edisp/kcal,au: -30.368238934039  -0.048394864062 
 E6   /kcal   : -11.161189786 
 E8   /kcal   : -19.207049148 
 % E8         :  63.247161581 

-------------------------   ----------------
Dispersion correction           -0.048394864
-------------------------   ----------------


-------------------------   --------------------
FINAL SINGLE POINT ENERGY      -731.136353800885
-------------------------   --------------------



           ************************************************************
           *        Program running with 6 parallel MPI-processes     *
           *              working on a common directory               *
           ************************************************************
------------------------------------------------------------------------------
                         ORCA SCF GRADIENT CALCULATION
------------------------------------------------------------------------------

Nuc. rep. gradient        (SHARK) ... done (  0.0 sec)
HCore & Overlap gradient  (SHARK) ... done (  0.1 sec)
Split-RIJ-J gradient      (SHARK) ... done (  0.4 sec)
XC gradient                       ... done (  2.0 sec)
Dispersion correction             ... done (  0.1 sec)

-------------------
DISPERSION GRADIENT
-------------------

   1   C   :   -0.000405217   -0.000601127   -0.000092646
   2   C   :   -0.000554264   -0.000397649   -0.000086448
   3   P   :   -0.000440230   -0.000119232    0.000516728
   4   C   :   -0.000404753    0.000497707    0.000247527
   5   C   :   -0.000203936    0.000604252    0.000356969
   6   C   :    0.000576765   -0.000079018   -0.000046363
   7   C   :    0.000601018   -0.000041137   -0.000158775
   8   C   :    0.000453953    0.000071255   -0.000394251
   9   C   :    0.000210324   -0.000008881   -0.000070348
  10   C   :    0.000491793   -0.000086615    0.000012045
  11   C   :    0.000293860   -0.000030943   -0.000048598
  12   H   :   -0.000114568   -0.000220393   -0.000102624
  13   H   :   -0.000122583   -0.000289187    0.000022972
  14   H   :   -0.000148355   -0.000424648   -0.000121047
  15   H   :   -0.000262570   -0.000105944   -0.000177473
  16   H   :   -0.000250939   -0.000118758   -0.000015754
  17   H   :   -0.000203280    0.000166649    0.000090705
  18   H   :   -0.000200760    0.000264210   -0.000039402
  19   H   :   -0.000036420    0.000226808    0.000215442
  20   H   :   -0.000035067    0.000255699    0.000074961
  21   H   :   -0.000006822    0.000422934    0.000195108
  22   H   :    0.000060792    0.000132631   -0.000382787
  23   H   :    0.000071516    0.000079267   -0.000244525
  24   H   :    0.000218513    0.000000918   -0.000100283
  25   H   :    0.000213579   -0.000077854    0.000113107
  26   H   :    0.000197652   -0.000120945    0.000235760

Difference to translation invariance:
           :   -0.0000000000    0.0000000000   -0.0000000000

Difference to rotation invariance:
           :   -0.0000000000    0.0000000000    0.0000000000

Norm of the Dispersion gradient    ...    0.0023661038
RMS gradient                       ...    0.0002679085
MAX gradient                       ...    0.0006042516

------------------
CARTESIAN GRADIENT
------------------

   1   C   :    0.001338891   -0.001766901    0.000940996
   2   C   :   -0.004277131    0.007429169    0.001582233
   3   P   :    0.010140640    0.006209710   -0.021080798
   4   C   :   -0.006359202   -0.005117550   -0.003022483
   5   C   :    0.001646601    0.000267119    0.001666604
   6   C   :   -0.001884636   -0.000727042    0.002840157
   7   C   :   -0.005761442   -0.000394048    0.003687475
   8   C   :    0.005034167   -0.000820163    0.000003066
   9   C   :   -0.002539691    0.000361994    0.000148974
  10   C   :    0.002013727    0.000245784   -0.001556731
  11   C   :   -0.003563058    0.000541998    0.000108188
  12   H   :    0.005040924    0.005791710    0.006021298
  13   H   :   -0.000033863    0.004033849   -0.007970361
  14   H   :   -0.008851740    0.001314784    0.002617852
  15   H   :   -0.000281947   -0.006755070    0.010218976
  16   H   :    0.008571891   -0.004543303   -0.004742644
  17   H   :    0.009971590    0.003834643   -0.001628830
  18   H   :    0.000544495   -0.001652030    0.012073723
  19   H   :   -0.000321756    0.002229508   -0.008642493
  20   H   :    0.002498690   -0.009421247    0.000348824
  21   H   :   -0.009070775   -0.000067888    0.002134485
  22   H   :    0.009540420   -0.003232099    0.004298464
  23   H   :   -0.000777857   -0.003316824    0.009232742
  24   H   :   -0.008914569   -0.000118037    0.004297525
  25   H   :   -0.007593290    0.003201458   -0.005186328
  26   H   :    0.003888919    0.002470478   -0.008390915

Difference to translation invariance:
           :   -0.0000000000    0.0000000000   -0.0000000000

Difference to rotation invariance:
           :   -0.0000616600    0.0000958855    0.0001490708

Norm of the Cartesian gradient     ...    0.0491666762
RMS gradient                       ...    0.0055670298
MAX gradient                       ...    0.0210807981

-------
TIMINGS
-------

Total SCF gradient time     ....        2.593 sec

Densities                   ....       0.001 sec  (  0.0%)
One electron gradient       ....       0.110 sec  (  4.2%)
RI-J Coulomb gradient       ....       0.393 sec  ( 15.2%)
XC gradient                 ....       2.004 sec  ( 77.3%)

Maximum memory used throughout the entire SCFGRAD-calculation: 32.4 MB
------------------------------------------------------------------------------
                         ORCA GEOMETRY RELAXATION STEP
------------------------------------------------------------------------------

Reading the OPT-File                    .... done
Getting information on internals        .... done
Copying old internal coords+grads       .... done
Making the new internal coordinates     .... (2022 redundants) done
Validating the new internal coordinates .... (2022 redundants) done
Calculating the B-matrix                .... done
Calculating the G,G- and P matrices     .... done
Transforming gradient to internals      .... done
Projecting the internal gradient        .... done
Number of atoms                         ....  26
Number of internal coordinates          .... 121
Current Energy                          ....  -731.136353801 Eh
Current gradient norm                   ....     0.049166676 Eh/bohr
Maximum allowed component of the step   ....  0.300
Current trust radius                    ....  0.300
Evaluating the initial hessian          ....  (Almloef) done
Projecting the Hessian                  .... done
Forming the augmented Hessian           .... done
Diagonalizing the augmented Hessian     .... done
Last element of RFO vector              ....  0.985475871
Lowest eigenvalues of augmented Hessian:
 -0.007560405  0.003570962  0.003658591  0.003838543  0.011930703
Length of the computed step             ....  0.172318284
The final length of the internal step   ....  0.172318284
Converting the step to Cartesian space:
 Initial RMS(Int)=    0.0156652986
Transforming coordinates:
 Iter   0:  RMS(Cart)=    0.0388300699 RMS(Int)=    1.2772741860
done
Storing new coordinates                 .... done

                                .--------------------.
          ----------------------|Geometry convergence|-------------------------
          Item                value                   Tolerance       Converged
          ---------------------------------------------------------------------
          RMS gradient        0.0048903377            0.0001000000      NO
          MAX gradient        0.0137791437            0.0003000000      NO
          RMS step            0.0156652986            0.0020000000      NO
          MAX step            0.0485782250            0.0040000000      NO
          ........................................................
          Max(Bonds)      0.0177      Max(Angles)    1.37
          Max(Dihed)        2.78      Max(Improp)    0.00
          ---------------------------------------------------------------------

The optimization has not yet converged - more geometry cycles are needed


    ---------------------------------------------------------------------------
                         Redundant Internal Coordinates
                            (Angstroem and degrees)

        Definition                    Value    dE/dq     Step     New-Value
    ----------------------------------------------------------------------------
     1. B(C   1,C   0)                1.5202 -0.009789  0.0131    1.5333   
[...]
  0 C s       :     2.852871  s :     2.852871
      pz      :     1.070843  p :     3.162969
      px      :     1.070113
      py      :     1.022013
      dz2     :     0.009769  d :     0.068065
      dxz     :     0.011193
      dyz     :     0.018133
      dx2y2   :     0.018688
      dxy     :     0.010282

  1 C s       :     2.909054  s :     2.909054
      pz      :     1.081725  p :     3.210073
      px      :     1.077891
      py      :     1.050456
      dz2     :     0.013670  d :     0.070277
      dxz     :     0.009908
      dyz     :     0.018082
      dx2y2   :     0.018886
      dxy     :     0.009729

  2 P s       :     5.336664  s :     5.336664
      pz      :     3.318248  p :     9.002759
      px      :     2.799327
      py      :     2.885184
      dz2     :     0.026914  d :     0.211570
      dxz     :     0.054137
      dyz     :     0.029706
      dx2y2   :     0.058865
      dxy     :     0.041948

  3 C s       :     2.909710  s :     2.909710
      pz      :     1.070770  p :     3.207087
      px      :     1.066411
      py      :     1.069907
      dz2     :     0.021003  d :     0.070327
      dxz     :     0.008122
      dyz     :     0.011588
      dx2y2   :     0.019614
      dxy     :     0.009999

  4 C s       :     2.853107  s :     2.853107
      pz      :     1.058457  p :     3.162969
      px      :     1.058795
      py      :     1.045716
      dz2     :     0.021102  d :     0.068108
      dxz     :     0.007947
      dyz     :     0.008112
      dx2y2   :     0.019954
      dxy     :     0.010992

  5 C s       :     2.926539  s :     2.926539
      pz      :     1.083809  p :     3.159575
      px      :     1.086568
      py      :     0.989197
      dz2     :     0.024261  d :     0.088082
      dxz     :     0.030518
      dyz     :     0.012556
      dx2y2   :     0.011626
      dxy     :     0.009120

  6 C s       :     2.874929  s :     2.874929
      pz      :     1.054059  p :     3.071758
      px      :     1.045920
      py      :     0.971779
      dz2     :     0.022316  d :     0.087557
      dxz     :     0.033306
      dyz     :     0.010889
      dx2y2   :     0.011534
      dxy     :     0.009512

  7 C s       :     2.873201  s :     2.873201
      pz      :     1.031772  p :     3.072292
      px      :     1.064421
      py      :     0.976100
      dz2     :     0.021799  d :     0.086271
      dxz     :     0.027731
      dyz     :     0.005931
      dx2y2   :     0.016403
      dxy     :     0.014406

  8 C s       :     2.873924  s :     2.873924
      pz      :     1.053663  p :     3.068292
      px      :     1.041485
      py      :     0.973143
      dz2     :     0.023823  d :     0.085729
      dxz     :     0.029931
      dyz     :     0.012292
      dx2y2   :     0.012149
      dxy     :     0.007534

  9 C s       :     2.873484  s :     2.873484
      pz      :     1.050105  p :     3.072374
      px      :     1.047046
      py      :     0.975223
      dz2     :     0.022661  d :     0.085793
      dxz     :     0.031353
      dyz     :     0.010933
      dx2y2   :     0.011675
      dxy     :     0.009171

 10 C s       :     2.879397  s :     2.879397
      pz      :     1.035553  p :     3.068269
      px      :     1.066428
      py      :     0.966289
      dz2     :     0.022270  d :     0.087133
      dxz     :     0.027391
      dyz     :     0.005906
      dx2y2   :     0.017011
      dxy     :     0.014555

 11 H s       :     0.906039  s :     0.906039
      pz      :     0.023713  p :     0.063590
      px      :     0.021909
      py      :     0.017968

 12 H s       :     0.906452  s :     0.906452
      pz      :     0.032350  p :     0.063754
      px      :     0.012340
      py      :     0.019064

 13 H s       :     0.904729  s :     0.904729
      pz      :     0.015602  p :     0.064421
      px      :     0.036678
      py      :     0.012141

 14 H s       :     0.913590  s :     0.913590
      pz      :     0.035454  p :     0.068420
      px      :     0.013525
      py      :     0.019440

 15 H s       :     0.903654  s :     0.903654
      pz      :     0.015903  p :     0.067112
      px      :     0.038232
      py      :     0.012978

 16 H s       :     0.904680  s :     0.904680
      pz      :     0.014534  p :     0.067051
      px      :     0.037856
      py      :     0.014661

 17 H s       :     0.912922  s :     0.912922
      pz      :     0.039369  p :     0.068117
      px      :     0.012473
      py      :     0.016275

 18 H s       :     0.906964  s :     0.906964
      pz      :     0.038443  p :     0.063735
      px      :     0.012277
      py      :     0.013015

 19 H s       :     0.906008  s :     0.906008
      pz      :     0.012726  p :     0.063592
      px      :     0.015307
      py      :     0.035559

 20 H s       :     0.904415  s :     0.904415
      pz      :     0.014728  p :     0.064393
      px      :     0.037447
      py      :     0.012218

 21 H s       :     0.907099  s :     0.907099
      pz      :     0.019813  p :     0.066915
      px      :     0.031392
      py      :     0.015710

 22 H s       :     0.901787  s :     0.901787
      pz      :     0.038781  p :     0.065882
      px      :     0.011177
      py      :     0.015924

 23 H s       :     0.901218  s :     0.901218
      pz      :     0.016655  p :     0.065837
      px      :     0.035654
      py      :     0.013529

 24 H s       :     0.900844  s :     0.900844
      pz      :     0.019677  p :     0.065867
      px      :     0.030673
      py      :     0.015516

 25 H s       :     0.903844  s :     0.903844
      pz      :     0.040064  p :     0.066862
      px      :     0.011077
      py      :     0.015722



                      *****************************
                      * MAYER POPULATION ANALYSIS *
                      *****************************

  NA   - Mulliken gross atomic population
  ZA   - Total nuclear charge
  QA   - Mulliken gross atomic charge
  VA   - Mayer's total valence
  BVA  - Mayer's bonded valence
  FA   - Mayer's free valence

  ATOM       NA         ZA         QA         VA         BVA        FA
  0 C      6.0388     6.0000    -0.0388     3.9892     3.9892    -0.0000
  1 C      6.1945     6.0000    -0.1945     3.9824     3.9824    -0.0000
  2 P     14.8462    15.0000     0.1538     3.0228     3.0228    -0.0000
  3 C      6.1896     6.0000    -0.1896     3.9784     3.9784    -0.0000
  4 C      6.0403     6.0000    -0.0403     3.9895     3.9895    -0.0000
  5 C      6.1323     6.0000    -0.1323     3.7808     3.7808    -0.0000
  6 C      6.0024     6.0000    -0.0024     3.8796     3.8796    -0.0000
  7 C      5.9969     6.0000     0.0031     3.8581     3.8581    -0.0000
  8 C      5.9989     6.0000     0.0011     3.8323     3.8323     0.0000
  9 C      6.0002     6.0000    -0.0002     3.8428     3.8428    -0.0000
 10 C      5.9906     6.0000     0.0094     3.8717     3.8717     0.0000
 11 H      0.9644     1.0000     0.0356     0.9835     0.9835    -0.0000
 12 H      0.9608     1.0000     0.0392     0.9898     0.9898     0.0000
 13 H      0.9530     1.0000     0.0470     0.9953     0.9953    -0.0000
 14 H      0.9622     1.0000     0.0378     0.9846     0.9846    -0.0000
 15 H      0.9472     1.0000     0.0528     0.9731     0.9731     0.0000
 16 H      0.9477     1.0000     0.0523     0.9731     0.9731    -0.0000
 17 H      0.9620     1.0000     0.0380     0.9853     0.9853    -0.0000
 18 H      0.9615     1.0000     0.0385     0.9898     0.9898     0.0000
 19 H      0.9644     1.0000     0.0356     0.9838     0.9838    -0.0000
 20 H      0.9522     1.0000     0.0478     0.9941     0.9941     0.0000
 21 H      1.0050     1.0000    -0.0050     0.9895     0.9895    -0.0000
 22 H      0.9987     1.0000     0.0013     0.9784     0.9784     0.0000
 23 H      0.9946     1.0000     0.0054     0.9786     0.9786    -0.0000
 24 H      0.9952     1.0000     0.0048     0.9788     0.9788     0.0000
 25 H      1.0004     1.0000    -0.0004     0.9957     0.9957     0.0000

  Mayer bond orders larger than 0.100000
B(  0-C ,  1-C ) :   1.0887 B(  0-C , 11-H ) :   0.9622 B(  0-C , 12-H ) :   0.9642 
B(  0-C , 13-H ) :   0.9667 B(  1-C ,  2-P ) :   0.9706 B(  1-C , 14-H ) :   0.9238 
B(  1-C , 15-H ) :   0.9388 B(  2-P ,  3-C ) :   0.9693 B(  2-P ,  5-C ) :   0.9173 
B(  3-C ,  4-C ) :   1.0880 B(  3-C , 16-H ) :   0.9399 B(  3-C , 17-H ) :   0.9254 
B(  4-C , 18-H ) :   0.9645 B(  4-C , 19-H ) :   0.9619 B(  4-C , 20-H ) :   0.9673 
B(  5-C ,  6-C ) :   1.3495 B(  5-C , 10-C ) :   1.3905 B(  6-C ,  7-C ) :   1.4111 
B(  6-C , 21-H ) :   0.9664 B(  7-C ,  8-C ) :   1.3708 B(  7-C , 22-H ) :   0.9740 
B(  8-C ,  9-C ) :   1.3901 B(  8-C , 23-H ) :   0.9755 B(  9-C , 10-C ) :   1.3790 
B(  9-C , 24-H ) :   0.9767 B( 10-C , 25-H ) :   0.9742 

-------
TIMINGS
-------

Total SCF time: 0 days 0 hours 0 min 2 sec 

Total time                  ....       2.573 sec
Sum of individual times     ....       2.519 sec  ( 97.9%)

SCF preparation             ....       0.088 sec  (  3.4%)
Fock matrix formation       ....       2.207 sec  ( 85.8%)
  Startup                   ....       0.016 sec  (  0.7% of F)
  Split-RI-J                ....       0.675 sec  ( 30.6% of F)
  XC integration            ....       1.455 sec  ( 65.9% of F)
    Basis function eval.    ....       0.397 sec  ( 27.3% of XC)
    Density eval.           ....       0.335 sec  ( 23.0% of XC)
    XC-Functional eval.     ....       0.056 sec  (  3.8% of XC)
    XC-Potential eval.      ....       0.314 sec  ( 21.6% of XC)
Diagonalization             ....       0.000 sec  (  0.0%)
Density matrix formation    ....       0.027 sec  (  1.0%)
Total Energy calculation    ....       0.012 sec  (  0.5%)
Population analysis         ....       0.059 sec  (  2.3%)
Orbital Transformation      ....       0.017 sec  (  0.7%)
Orbital Orthonormalization  ....       0.000 sec  (  0.0%)
DIIS solution               ....       0.019 sec  (  0.7%)
SOSCF solution              ....       0.090 sec  (  3.5%)
Finished LeanSCF after   2.6 sec

Maximum memory used throughout the entire LEANSCF-calculation: 24.2 MB


-------------------------------------------------------------------------------
                          DFT DISPERSION CORRECTION                            
                                                                               
                              DFTD3 V3.1  Rev 1                                
                          USING Becke-Johnson damping                          
-------------------------------------------------------------------------------
The BP86 functional is recognized
Active option DFTDOPT                   ...         4   

molecular C6(AA) [au] = 7342.654797 


            DFT-D V3
 parameters
 s6 scaling factor         :     1.0000 
 a1 scaling factor         :     0.3946 
 s8 scaling factor         :     3.2822 
 a2 scaling factor         :     4.8516 
 ad hoc parameters k1-k3   :    16.0000     1.3333    -4.0000 

 Edisp/kcal,au: -30.453360287519  -0.048530513558 
 E6   /kcal   : -11.195699212 
 E8   /kcal   : -19.257661075 
 % E8         :  63.236571904 

-------------------------   ----------------
Dispersion correction           -0.048530514
-------------------------   ----------------


-------------------------   --------------------
FINAL SINGLE POINT ENERGY      -731.141657750175
-------------------------   --------------------

                                *** OPTIMIZATION RUN DONE ***



           ************************************************************
           *        Program running with 6 parallel MPI-processes     *
           *              working on a common directory               *
           ************************************************************

------------------------------------------------------------------------------
                              ORCA PROPERTY CALCULATIONS
------------------------------------------------------------------------------

GBWName                                 ... data/geom_opt_P_BP86/74149/74149.gbw
Number of atoms                         ...     26
Number of basis functions               ...    233
Max core memory                         ...   1024 MB

Electric properties:
Dipole moment                           ... YES
Quadrupole moment                       ...  NO
Static polarizability (Dipole/Dipole)   ...  NO
Static polarizability (Dipole/Quad.)    ...  NO
Static polarizability (Quad./Quad.)     ...  NO
Static polarizability (Velocity)        ...  NO

Atomic electric properties:
Dipole moment                           ...  NO
Quadrupole moment                       ...  NO
Static polarizability                   ...  NO

Choice of electric origin               ... Center of mass
Position of electric origin             ...     0.285141    -0.139935     0.225441

General magnetic properties:
Magnetizability                         ...  NO

EPR properties:
g-Tensor (aka g-matrix)                 ...  NO
Zero-Field splitting spin-orbit         ...  NO
Zero-field splitting spin-spin          ...  NO
Hyperfine couplings                     ...  NO (   0 nuclei)
Quadrupole couplings                    ...  NO (   0 nuclei)
Contact density                         ...  NO (   0 nuclei)

NMR properties:
Chemical shifts                         ...  NO (   0 nuclei)
Spin-rotation constants                 ...  NO (   0 nuclei)
Spin-spin couplings                     ...  NO (   0 nuclei,    0 pairs)

Choice of magnetic origin               ... GIAO
Position of magnetic origin             ...     0.000000     0.000000     0.000000

Properties with geometric perturbations:
SCF Hessian                             ...  NO
IR spectrum                             ...  NO
VCD spectrum                            ...  NO
X-ray spectroscopy properties:
SCF XES/XAS/RIXS spectra                ...  NO


-------------
DIPOLE MOMENT
-------------

Method             : SCF
Type of density    : Electron Density
Multiplicity       :   1
Irrep              :   0
Energy             :  -731.0931272366168514 Eh
Relativity type    : 
Basis              : AO
                                X                 Y                 Z
Electronic contribution:      4.913678727      -1.680652325       2.061912306
Nuclear contribution   :     -4.886168782       1.853946454      -2.507743658
                        -----------------------------------------
Total Dipole Moment    :      0.027509945       0.173294130      -0.445831351
                        -----------------------------------------
Magnitude (a.u.)       :      0.479117153
Magnitude (Debye)      :      1.217819022



--------------------
Rotational spectrum 
--------------------
 
Rotational constants in cm-1:             0.040493             0.024010             0.018918 
Rotational constants in MHz :          1213.951112           719.815249           567.162356 

Dipole components along the rotational axes: 
x,y,z [a.u.] :     0.145911    -0.019963     0.455922 
x,y,z [Debye]:     0.370877    -0.050743     1.158861 

 

Dipole moment calculation done in   0.0 sec 

Maximum memory used throughout the entire PROP-calculation: 11.8 MB

--------------------------------
SUGGESTED CITATIONS FOR THIS RUN
--------------------------------

Below you find a list of papers that are relevant to this ORCA run
We neither can nor want to force you to cite these papers, but we appreciate if you do
You receive ORCA, which is the product of decades of hard work by many enthusiastic individuals, for free
The only thing we kindly ask in return is that you cite our papers,
We deeply appreciate it, if you show your appreciation for ORCA by not just citing the generic ORCA reference.

Please note that relegating all ORCA citations to the supporting information does *not* help us.
SI sections are not indexed - citations you put there will not count into any citation statistics
But we need these citations in order to attract the funding resources that allow us to do what we are doing

Therefore, if you are a happy ORCA user, please consider citing a few of the papers listed below in the main body of your paper

In addition to the list printed below, the program has created the file data/geom_opt_P_BP86/74149/74149.bibtex that contains the list in bibtex format
You can import this file easily into all common literature databanks and citation aid programs


List of essential papers. We consider these as the minimum necessary citations

  1. Neese,F.
     Software update: the ORCA program system, version 5.0
     WIRES Comput. Molec. Sci., 2022 12(1)e1606
     doi.org/10.1002/wcms.1606

List of papers to cite with high priority. The work reported in these papers was absolutely
necessary for this run to complete.
Our perspective: the developers of density functionals and basis sets usually get cited in chemistry papers
Good! But without the algorithms to do something with them, the functionals or basis sets would not do anything.
Hence, in our opinion, the algorithm design and method developments papers are equally worthy of getting cited

  1. Neese,F.
     An improvement of the resolution of the identity approximation for the formation of the Coulomb matrix
     J. Comp. Chem., 2003 24(14)1740-1747
     doi.org/10.1002/jcc.10318
  2. Neese,F.
     The SHARK Integral Generation and Digestion System
     J. Comp. Chem., 2022  1-16
     doi.org/10.1002/jcc.26942
  3. Grimme,S.; Antony,J.; Ehrlich,S.; Krieg,H.
     A consistent and accurate ab initio parametrization of density functional dispersion correction (DFT-D) for the 94 elements H-Pu
     J. Chem. Phys., 2010 132 154104-XXXX
     doi.org/10.1063/1.3382344
  4. Grimme,S.; Ehrlich,S.; Goerigk,L.
     Effect of the damping function in dispersion corrected density functional theory
     J. Comput. Chem., 2011 32(7)1456-1465
     doi.org/10.1002/jcc.21759

List of suggested additional citations. These are papers that are important in the 'surrounding' of 
of this run, or papers that preceded the highly important papers. If you like your results we are grateful for a citation.

  1. Neese,F.
     The ORCA program system
     WIRES Comput. Molec. Sci., 2012 2(1)73-78
     doi.org/10.1002/wcms.81
  2. Neese,F.
     Software update: the ORCA program system, version 4.0
     WIRES Comput. Molec. Sci., 2018 8(1)1-6
     doi.org/10.1002/wcms.1327
  3. Neese,F.; Wennmohs,F.; Becker,U.; Riplinger,C.
     The ORCA quantum chemistry program package
     J. Chem. Phys., 2020 152 Art. No. L224108
     doi.org/10.1063/5.0004608

List of optional additional citations

  1. Neese,F.
     Approximate second-order SCF convergence for spin unrestricted wavefunctions
     Chem. Phys. Lett., 2000 325(1-3)93-98
     doi.org/10.1016/s0009-2614(00)00662-x

Timings for individual modules:

Sum of individual times          ...       88.564 sec (=   1.476 min)
Startup calculation              ...        9.083 sec (=   0.151 min)  10.3 %
SCF iterations                   ...       48.231 sec (=   0.804 min)  54.5 %
Property calculations            ...        0.145 sec (=   0.002 min)   0.2 %
SCF Gradient evaluation          ...       30.994 sec (=   0.517 min)  35.0 %
Geometry relaxation              ...        0.111 sec (=   0.002 min)   0.1 %
                             ****ORCA TERMINATED NORMALLY****
TOTAL RUN TIME: 0 days 0 hours 1 minutes 30 seconds 757 msec
