
                                 *****************
                                 * O   R   C   A *
                                 *****************

                                            #,                                       
                                            ###                                      
                                            ####                                     
                                            #####                                    
                                            ######                                   
                                           ########,                                 
                                     ,,################,,,,,                         
                               ,,#################################,,                 
                          ,,##########################################,,             
                       ,#########################################, ''#####,          
                    ,#############################################,,   '####,        
                  ,##################################################,,,,####,       
                ,###########''''           ''''###############################       
              ,#####''   ,,,,##########,,,,          '''####'''          '####       
            ,##' ,,,,###########################,,,                        '##       
           ' ,,###''''                  '''############,,,                           
         ,,##''                                '''############,,,,        ,,,,,,###''
      ,#''                                            '''#######################'''  
     '                                                          ''''####''''         
             ,#######,   #######,   ,#######,      ##                                
            ,#'     '#,  ##    ##  ,#'     '#,    #''#        ,####,   ,####,        
            ##       ##  ##   ,#'  ##            #'  '#       #'       #'  '#        
            ##       ##  #######   ##           ,######,      #####,   #    #        
            '#,     ,#'  ##    ##  '#,     ,#' ,#      #,     #,   #   #,  ,#        
             '#######'   ##     ##  '#######'  #'      '#     '####' # '####'        



                #########################################################
                #                        -***-                          #
                #          Department of theory and spectroscopy        #
                #                                                       #
                #                      Frank Neese                      #
                #                                                       #
                #     Directorship, Architecture, Infrastructure        #
                #                    SHARK, DRIVERS                     #
                #        Core code/Algorithms in most modules           #
                #                                                       #
                #        Max Planck Institute fuer Kohlenforschung      #
                #                Kaiser Wilhelm Platz 1                 #
                #                 D-45470 Muelheim/Ruhr                 #
                #                      Germany                          #
                #                                                       #
                #                  All rights reserved                  #
                #                        -***-                          #
                #########################################################


                         Program Version 6.0.0  -   RELEASE   -


 With contributions from (in alphabetic order):
   Daniel Aravena         : Magnetic Suceptibility
   Michael Atanasov       : Ab Initio Ligand Field Theory (pilot matlab implementation)
   Alexander A. Auer      : GIAO ZORA, VPT2 properties, NMR spectrum
   Ute Becker             : All parallelization in ORCA, NUMFREQ, NUMCALC
   Giovanni Bistoni       : ED, misc. LED, open-shell LED, HFLD
   Martin Brehm           : Molecular dynamics
   Dmytro Bykov           : pre 5.0 version of the SCF Hessian
   Marcos Casanova-Páez   : Triplet and SCS-CIS(D). UHF-(DLPNO)-IP/EA/STEOM-CCSD. UHF-CVS-IP/STEOM-CCSD
   Vijay G. Chilkuri      : MRCI spin determinant printing, contributions to CSF-ICE
   Pauline Colinet        : FMM embedding
   Dipayan Datta          : RHF DLPNO-CCSD density
   Achintya Kumar Dutta   : EOM-CC, STEOM-CC
   Nicolas Foglia         : Exact transition moments, OPA infrastructure, MCD improvements
   Dmitry Ganyushin       : Spin-Orbit,Spin-Spin,Magnetic field MRCI
   Miquel Garcia          : C-PCM and meta-GGA Hessian, CCSD/C-PCM, Gaussian charge scheme
   Tiago L. C. Gouveia    : GS-ROHF, GS-ROCIS
   Yang Guo               : DLPNO-NEVPT2, F12-NEVPT2, CIM, IAO-localization
   Andreas Hansen         : Spin unrestricted coupled pair/coupled cluster methods
   Ingolf Harden          : AUTO-CI MPn and infrastructure 
   Benjamin Helmich-Paris : MC-RPA, TRAH-(SCF,CASSCF), AVAS, COSX integrals, SCF dyn. polar.
   Lee Huntington         : MR-EOM, pCC
   Robert Izsak           : Overlap fitted RIJCOSX, COSX-SCS-MP3, EOM
   Riya Kayal             : Wick's Theorem for AUTO-CI, AUTO-CI UHF-CCSDT
   Emily Kempfer          : AUTO-CI, RHF CISDT and CCSDT
   Christian Kollmar      : KDIIS, OOCD, Brueckner-CCSD(T), CCSD density, CASPT2, CASPT2-K, improved NEVPT2
   Axel Koslowski         : Symmetry handling
   Simone Kossmann        : Meta GGA functionals, TD-DFT gradient, OOMP2, (MP2 Hessian; deprecated post 5.0)
   Lucas Lang             : DCDCAS
   Marvin Lechner         : AUTO-CI (C++ implementation), FIC-MRCC
   Spencer Leger          : CASSCF response
   Dagmar Lenk            : GEPOL surface, SMD, ORCA-2-JSON
   Dimitrios Liakos       : Extrapolation schemes; Compound Job, initial MDCI parallelization
   Dimitrios Manganas     : Further ROCIS development; embedding schemes. LFT, Crystal Embedding
   Dimitrios Pantazis     : SARC Basis sets
   Anastasios Papadopoulos: AUTO-CI, single reference methods and gradients
   Taras Petrenko         : pre 6.0 DFT Hessian and TD-DFT gradient, (ASA, deprecated), ECA, 1-Electron XAS/XES, NRVS
   Peter Pinski           : DLPNO-MP2, DLPNO-MP2 Gradient
   Christoph Reimann      : Effective Core Potentials
   Marius Retegan         : Local ZFS, SOC
   Christoph Riplinger    : Optimizer, TS searches, QM/MM, DLPNO-CCSD(T), (RO)-DLPNO pert. Triples
   Michael Roemelt        : Original ROCIS implementation
   Masaaki Saitow         : Open-shell DLPNO-CCSD energy and density
   Barbara Sandhoefer     : DKH picture change effects
   Kantharuban Sivalingam : CASSCF convergence/infrastructure, NEVPT2 and variants, FIC-MRCI
   Bernardo de Souza      : ESD, SOC TD-DFT
   Georgi Stoychev        : AutoAux, RI-MP2 NMR, DLPNO-MP2 response, X2C
   Van Anh Tran           : RI-MP2 g-tensors
   Willem Van den Heuvel  : Paramagnetic NMR
   Zikuan Wang            : NOTCH, Electric field optimization 
   Frank Wennmohs         : Technical directorship and infrastructure
   Hang Xu                : AUTO-CI-Response properties 


 We gratefully acknowledge several colleagues who have allowed us to
 interface, adapt or use parts of their codes:
   Stefan Grimme, W. Hujo, H. Kruse, P. Pracht,  : VdW corrections, initial TS optimization,
                  C. Bannwarth, S. Ehlert,         DFT functionals, gCP, sTDA/sTD-DF
                  L. Wittmann, M. Mueller
   Ed Valeev, F. Pavosevic, A. Kumar             : LibInt (2-el integral package), F12 methods
   Garnet Chan, S. Sharma, J. Yang, R. Olivares  : DMRG
   Ulf Ekstrom                                   : XCFun DFT Library
   Mihaly Kallay                                 : mrcc  (arbitrary order and MRCC methods)
   Frank Weinhold                                : gennbo (NPA and NBO analysis)
   Simon Mueller                                 : openCOSMO-RS
   Christopher J. Cramer and Donald G. Truhlar   : smd solvation model
   Lars Goerigk                                  : TD-DFT with DH, B97 family of functionals
   V. Asgeirsson, H. Jonsson                     : NEB implementation
   FAccTs GmbH                                   : IRC, NEB, NEB-TS, DLPNO-Multilevel, CI-OPT
                                                   MM, QMMM, 2- and 3-layer-ONIOM, Crystal-QMMM,
                                                   LR-CPCM, SF, NACMEs, symmetry and pop. for TD-DFT,
                                                   nearIR, NL-DFT gradient (VV10), updates on ESD,
                                                   ML-optimized integration grids, MBIS, APM,
                                                   GOAT, DOCKER, SOLVATOR, interface openCOSMO-RS
   S Lehtola, MJT Oliveira, MAL Marques          : LibXC Library
   Liviu Ungur et al                             : ANISO software


 Your calculation uses the libint2 library for the computation of 2-el integrals
 For citations please refer to: http://libint.valeyev.net

 Your ORCA version has been built with support for libXC version: 6.2.2
 For citations please refer to: https://libxc.gitlab.io

 This ORCA versions uses:
   CBLAS   interface :  Fast vector & matrix operations
   LAPACKE interface :  Fast linear algebra routines
   Shared memory     :  Shared parallel matrices


Your calculation utilizes the atom-pairwise dispersion correction
with the Becke-Johnson damping scheme (D3BJ)


Warning: RI is on but no J-basis has been assigned. Assigning Def2/J (nothing to worry about!)
================================================================================

----- Orbital basis set information -----
Your calculation utilizes the basis: def2-SVP
   F. Weigend and R. Ahlrichs, Phys. Chem. Chem. Phys. 7, 3297 (2005).

----- AuxJ basis set information -----
Your calculation utilizes the auxiliary basis: def2/J
   F. Weigend, Phys. Chem. Chem. Phys. 8, 1057 (2006).

================================================================================
                                        WARNINGS
                       Please study these warnings very carefully!
================================================================================


WARNING: Geometry Optimization
  ===> : Switching off AutoStart
         For restart on a previous wavefunction, please use MOREAD

================================================================================
                                       INPUT FILE
================================================================================
NAME = data/geom_opt_PO_BP86/316378/316378.inp
|  1> ! RI BP86 def2-SVP D3BJ TIGHTSCF Opt
|  2> %pal
|  3> nprocs 6
|  4> end
|  5> 
|  6> * xyz 0 1
|  7> C     -2.545318   -0.974418   -1.243425
|  8> C     -1.160800   -1.292557   -0.659155
|  9> C     -0.540154   -2.398495   -1.551954
| 10> C     -1.336951   -1.900585    0.738953
| 11> P     -0.021215    0.183597   -0.732056
| 12> O      0.202180    0.494869   -2.200539
| 13> C      1.511284   -0.224414    0.103344
| 14> C      2.681502   -0.329171   -0.666451
| 15> C      3.907948   -0.639733   -0.077528
| 16> C      3.984544   -0.850530    1.295508
| 17> C      2.835718   -0.750175    2.075648
| 18> C      1.608728   -0.438700    1.483308
| 19> C     -0.790636    1.708824    0.021797
| 20> C     -1.543215    1.487434    1.335579
| 21> C     -1.757235    2.381201   -0.978829
| 22> C      0.335195    2.737718    0.289527
| 23> H     -2.456810   -0.488403   -2.220416
| 24> H     -3.114240   -0.312733   -0.586696
| 25> H     -3.143568   -1.883375   -1.375294
| 26> H     -0.438476   -2.057996   -2.587835
| 27> H      0.459544   -2.672519   -1.199188
| 28> H     -1.155330   -3.305314   -1.556284
| 29> H     -2.056142   -2.728100    0.721254
| 30> H     -1.698873   -1.173702    1.465545
| 31> H     -0.396184   -2.308368    1.119452
| 32> H      2.634941   -0.163570   -1.742562
| 33> H      4.800735   -0.714879   -0.692967
| 34> H      4.938508   -1.092136    1.756634
| 35> H      2.894870   -0.915079    3.148690
| 36> H      0.734728   -0.372918    2.121515
| 37> H     -2.431717    0.869295    1.190766
| 38> H     -1.887340    2.438571    1.759198
| 39> H     -0.915962    1.009105    2.089139
| 40> H     -2.600063    1.735405   -1.228962
| 41> H     -1.247809    2.629495   -1.915826
| 42> H     -2.169184    3.311804   -0.571476
| 43> H      0.931560    2.905333   -0.613949
| 44> H     -0.069862    3.703628    0.611957
| 45> H      1.015098    2.391591    1.073577
| 46> **                         ****END OF INPUT****
================================================================================

                       *****************************
                       * Geometry Optimization Run *
                       *****************************

Geometry optimization settings:
Update method            Update   .... BFGS
Choice of coordinates    CoordSys .... (2022) Redundant Internals
Initial Hessian          InHess   .... Almloef's Model
Max. no of cycles        MaxIter  .... 117

Convergence Tolerances:
Energy Change            TolE     ....  5.0000e-06 Eh
Max. Gradient            TolMAXG  ....  3.0000e-04 Eh/bohr
RMS Gradient             TolRMSG  ....  1.0000e-04 Eh/bohr
Max. Displacement        TolMAXD  ....  4.0000e-03 bohr
RMS Displacement         TolRMSD  ....  2.0000e-03 bohr
Strict Convergence                .... False

------------------------------------------------------------------------------
                        ORCA OPTIMIZATION COORDINATE SETUP
------------------------------------------------------------------------------

The optimization will be done in redundant internal coordinates (2022)
Making redundant internal coordinates   ...  (2022 redundants) done
Evaluating the initial hessian          ...  (Almloef) done
Evaluating the coordinates              ...  done
Calculating the B-matrix                .... done
Calculating the G-matrix                .... done
Diagonalizing the G-matrix              .... done
Small eigenvalue found = 7.831e-03
Small eigenvalue found = 9.238e-03
Small eigenvalue found = 1.420e-02
Small eigenvalue found = 1.875e-02
Small eigenvalue found = 2.722e-02
The first mode is                       ....   77
The number of degrees of freedom        ....  111

    -----------------------------------------------------------------
                    Redundant Internal Coordinates


    -----------------------------------------------------------------
         Definition                    Initial Value    Approx d2E/dq
    -----------------------------------------------------------------
      1. B(C   1,C   0)                  1.5361         0.365353   
      2. B(C   2,C   1)                  1.5509         0.345925   
      3. B(C   3,C   1)                  1.5347         0.367123   
      4. B(P   4,C   1)                  1.8663         0.365056   
      5. B(O   5,P   4)                  1.5176         1.176859   
      6. B(C   6,P   4)                  1.7925         0.478774   
      7. B(C   7,C   6)                  1.4046         0.592116   
      8. B(C   8,C   7)                  1.3955         0.612276   
      9. B(C   9,C   8)                  1.3912         0.621972   
     10. B(C  10,C   9)                  1.3923         0.619547   
     11. B(C  11,C  10)                  1.3976         0.607512   
     12. B(C  11,C   6)                  1.3999         0.602486   
     13. B(C  12,P   4)                  1.8672         0.363757   
     14. B(C  13,C  12)                  1.5302         0.373345   
     15. B(C  14,C  12)                  1.5452         0.353281   
     16. B(C  15,C  12)                  1.5485         0.349052   
     17. B(H  16,C   0)                  1.0948         0.353824   
     18. B(H  17,C   0)                  1.0922         0.357267   
     19. B(H  18,C   0)                  1.0961         0.352085   
     20. B(H  19,C   2)                  1.0951         0.353367   
     21. B(H  20,C   2)                  1.0950         0.353603   
     22. B(H  21,C   2)                  1.0958         0.352507   
     23. B(H  22,C   3)                  1.0965         0.351593   
     24. B(H  23,C   3)                  1.0896         0.360597   
     25. B(H  24,C   3)                  1.0937         0.355281   
     26. B(H  25,C   7)                  1.0898         0.360400   
     27. B(H  26,C   8)                  1.0870         0.364145   
     28. B(H  27,C   9)                  1.0868         0.364405   
     29. B(H  28,C  10)                  1.0872         0.363757   
     30. B(H  29,C  11)                  1.0842         0.367841   
     31. B(H  30,C  13)                  1.0920         0.357441   
     32. B(H  31,C  13)                  1.0966         0.351471   
     33. B(H  32,C  13)                  1.0909         0.358890   
     34. B(H  33,C  14)                  1.0909         0.358963   
     35. B(H  34,C  14)                  1.0950         0.353485   
     36. B(H  35,C  14)                  1.0962         0.351987   
     37. B(H  36,C  15)                  1.0955         0.352960   
     38. B(H  37,C  15)                  1.0959         0.352369   
     39. B(H  38,C  15)                  1.0940         0.354865   
     40. A(H  16,C   0,H  18)          107.7519         0.289016   
     41. A(C   1,C   0,H  17)          111.4867         0.322718   
     42. A(C   1,C   0,H  16)          111.0093         0.322207   
     43. A(C   1,C   0,H  18)          111.4662         0.321947   
     44. A(H  17,C   0,H  18)          106.8839         0.289455   
     45. A(H  16,C   0,H  17)          108.0454         0.289679   
     46. A(C   2,C   1,C   3)          106.7281         0.357557   
     47. A(C   0,C   1,C   3)          108.9721         0.360899   
     48. A(C   2,C   1,P   4)          107.2881         0.380002   
     49. A(C   0,C   1,C   2)          106.8235         0.357263   
     50. A(C   3,C   1,P   4)          114.7733         0.383946   
     51. A(C   0,C   1,P   4)          111.8206         0.383623   
     52. A(H  20,C   2,H  21)          107.8621         0.289042   
     53. A(H  19,C   2,H  21)          107.7992         0.289012   
     54. A(H  19,C   2,H  20)          107.3246         0.289152   
     55. A(C   1,C   2,H  21)          111.5751         0.319146   
     56. A(C   1,C   2,H  19)          111.0971         0.319273   
     57. A(C   1,C   2,H  20)          110.9993         0.319308   
     58. A(H  23,C   3,H  24)          107.6049         0.290288   
     59. A(H  22,C   3,H  23)          107.2386         0.289813   
     60. A(C   1,C   3,H  22)          111.0734         0.322128   
     61. A(C   1,C   3,H  23)          112.4141         0.323466   
     62. A(C   1,C   3,H  24)          111.4645         0.322679   
     63. A(H  22,C   3,H  24)          106.7635         0.289139   
     64. A(C   1,P   4,O   5)          106.8524         0.502727   
     65. A(C   6,P   4,C  12)          110.4916         0.428553   
     66. A(O   5,P   4,C  12)          106.4852         0.502393   
     67. A(C   1,P   4,C  12)          112.2531         0.408339   
     68. A(O   5,P   4,C   6)          111.8268         0.528916   
     69. A(C   1,P   4,C   6)          108.8936         0.428827   
     70. A(C   7,C   6,C  11)          118.0883         0.428283   
     71. A(P   4,C   6,C  11)          123.6269         0.439826   
     72. A(P   4,C   6,C   7)          118.2841         0.438450   
     73. A(C   8,C   7,H  25)          119.2150         0.352211   
     74. A(C   6,C   7,H  25)          119.6199         0.350224   
     75. A(C   6,C   7,C   8)          121.1649         0.429523   
     76. A(C   9,C   8,H  26)          120.2053         0.353767   
     77. A(C   7,C   8,H  26)          119.8873         0.352827   
     78. A(C   7,C   8,C   9)          119.9073         0.433336   
     79. A(C  10,C   9,H  27)          120.1703         0.353576   
     80. A(C   8,C   9,H  27)          120.0512         0.353810   
     81. A(C   8,C   9,C  10)          119.7784         0.434257   
     82. A(C  11,C  10,H  28)          119.9895         0.352298   
     83. A(C   9,C  10,H  28)          119.8136         0.353469   
     84. A(C   9,C  10,C  11)          120.1969         0.432424   
     85. A(C  10,C  11,H  29)          118.1473         0.352964   
     86. A(C   6,C  11,H  29)          120.9879         0.352468   
     87. A(C   6,C  11,C  10)          120.8641         0.430260   
     88. A(C  14,C  12,C  15)          106.1195         0.355774   
     89. A(C  13,C  12,C  15)          107.7746         0.359130   
     90. A(P   4,C  12,C  15)          108.2376         0.380360   
     91. A(C  13,C  12,C  14)          108.1370         0.359867   
     92. A(P   4,C  12,C  14)          110.5949         0.381155   
     93. A(P   4,C  12,C  13)          115.5382         0.384831   
     94. A(H  31,C  13,H  32)          107.0913         0.289582   
     95. A(H  30,C  13,H  32)          108.1333         0.290348   
     96. A(C  12,C  13,H  32)          111.9455         0.324107   
     97. A(H  30,C  13,H  31)          106.6704         0.289398   
     98. A(C  12,C  13,H  31)          111.1323         0.322998   
     99. A(C  12,C  13,H  30)          111.6052         0.323892   
    100. A(H  33,C  14,H  34)          107.3052         0.289850   
    101. A(C  12,C  14,H  34)          111.2082         0.320390   
    102. A(C  12,C  14,H  33)          111.9747         0.321196   
    103. A(H  34,C  14,H  35)          107.4759         0.288960   
    104. A(H  33,C  14,H  35)          107.3034         0.289657   
    105. A(C  12,C  14,H  35)          111.3364         0.320167   
    106. A(H  37,C  15,H  38)          107.3200         0.289186   
    107. A(H  36,C  15,H  38)          107.5274         0.289262   
    108. A(C  12,C  15,H  38)          111.4412         0.319963   
    109. A(H  36,C  15,H  37)          107.9995         0.288942   
    110. A(C  12,C  15,H  37)          111.5787         0.319595   
    111. A(C  12,C  15,H  36)          110.7860         0.319682   
    112. D(C   2,C   1,C   0,H  16)    -68.1014         0.010688   
    113. D(C   3,C   1,C   0,H  18)    -62.9268         0.010688   
    114. D(C   3,C   1,C   0,H  17)     56.4258         0.010688   
    115. D(C   2,C   1,C   0,H  18)     52.0291         0.010688   
    116. D(C   2,C   1,C   0,H  17)    171.3817         0.010688   
    117. D(C   3,C   1,C   0,H  16)    176.9427         0.010688   
    118. D(H  20,C   2,C   1,P   4)     59.4226         0.009660   
    119. D(H  20,C   2,C   1,C   3)    -64.0673         0.009660   
    120. D(H  19,C   2,C   1,P   4)    -59.9165         0.009660   
    121. D(H  19,C   2,C   1,C   0)     60.1365         0.009660   
    122. D(H  20,C   2,C   1,C   0)    179.4756         0.009660   
    123. D(H  19,C   2,C   1,C   3)    176.5936         0.009660   
    124. D(H  22,C   3,C   1,P   4)    177.0505         0.010785   
    125. D(H  22,C   3,C   1,C   2)    -64.2339         0.010785   
    126. D(H  22,C   3,C   1,C   0)     50.7837         0.010785   
    127. D(H  23,C   3,C   1,P   4)     56.8863         0.010785   
    128. D(H  23,C   3,C   1,C   2)    175.6019         0.010785   
    129. D(H  23,C   3,C   1,C   0)    -69.3805         0.010785   
    130. D(C   6,P   4,C   1,C   3)     49.9897         0.003437   
    131. D(C   6,P   4,C   1,C   2)    -68.4112         0.003437   
    132. D(C   6,P   4,C   1,C   0)    174.7728         0.003437   
    133. D(O   5,P   4,C   1,C   3)    170.9392         0.003437   
    134. D(O   5,P   4,C   1,C   2)     52.5383         0.003437   
    135. D(O   5,P   4,C   1,C   0)    -64.2777         0.003437   
    136. D(C  11,C   6,P   4,O   5)    174.2508         0.004639   
    137. D(C  11,C   6,P   4,C   1)    -67.8994         0.004639   
    138. D(C   7,C   6,P   4,C  12)   -123.8597         0.004639   
    139. D(C   7,C   6,P   4,C   1)    112.4153         0.004639   
    140. D(C   7,C   6,P   4,O   5)     -5.4345         0.004639   
    141. D(C   8,C   7,C   6,C  11)      0.0978         0.024136   
    142. D(C   8,C   7,C   6,P   4)    179.8008         0.024136   
    143. D(H  25,C   7,C   6,C  11)   -179.7709         0.024136   
    144. D(H  25,C   7,C   6,P   4)     -0.0679         0.024136   
    145. D(H  26,C   8,C   7,H  25)     -0.0877         0.025902   
    146. D(H  26,C   8,C   7,C   6)   -179.9570         0.025902   
    147. D(C   9,C   8,C   7,H  25)    179.8314         0.025902   
    148. D(C   9,C   8,C   7,C   6)     -0.0379         0.025902   
    149. D(H  27,C   9,C   8,H  26)     -0.0578         0.026779   
    150. D(H  27,C   9,C   8,C   7)   -179.9766         0.026779   
    151. D(C  10,C   9,C   8,H  26)    179.9092         0.026779   
    152. D(C  10,C   9,C   8,C   7)     -0.0097         0.026779   
    153. D(H  28,C  10,C   9,H  27)     -0.0505         0.026558   
    154. D(H  28,C  10,C   9,C   8)    179.9826         0.026558   
    155. D(C  11,C  10,C   9,H  27)    179.9617         0.026558   
    156. D(C  11,C  10,C   9,C   8)     -0.0052         0.026558   
    157. D(H  29,C  11,C  10,H  28)     -0.2306         0.025478   
    158. D(H  29,C  11,C  10,C   9)    179.7572         0.025478   
    159. D(C   6,C  11,C  10,H  28)   -179.9197         0.025478   
    160. D(C   6,C  11,C  10,C   9)      0.0681         0.025478   
    161. D(H  29,C  11,C   6,C   7)   -179.7928         0.025035   
    162. D(H  29,C  11,C   6,P   4)      0.5213         0.025035   
    163. D(C  10,C  11,C   6,C   7)     -0.1126         0.025035   
    164. D(C  10,C  11,C   6,P   4)   -179.7985         0.025035   
    165. D(C  14,C  12,P   4,O   5)     36.2818         0.003423   
    166. D(C  14,C  12,P   4,C   1)    -80.3178         0.003423   
    167. D(C  13,C  12,P   4,C   6)    -78.8453         0.003423   
    168. D(C  13,C  12,P   4,O   5)    159.5182         0.003423   
    169. D(C  14,C  12,P   4,C   6)    157.9184         0.003423   
    170. D(C  13,C  12,P   4,C   1)     42.9185         0.003423   
    171. D(H  31,C  13,C  12,P   4)    174.9251         0.011131   
    172. D(H  30,C  13,C  12,C  15)    172.7049         0.011131   
    173. D(H  30,C  13,C  12,C  14)     58.3861         0.011131   
    174. D(H  30,C  13,C  12,P   4)    -66.1370         0.011131   
    175. D(H  31,C  13,C  12,C  15)     53.7669         0.011131   
    176. D(H  31,C  13,C  12,C  14)    -60.5518         0.011131   
    177. D(H  34,C  14,C  12,C  15)     60.4733         0.010041   
    178. D(H  34,C  14,C  12,C  13)    175.8804         0.010041   
    179. D(H  34,C  14,C  12,P   4)    -56.6951         0.010041   
    180. D(H  33,C  14,C  12,C  15)   -179.4839         0.010041   
    181. D(H  33,C  14,C  12,C  13)    -64.0768         0.010041   
    182. D(H  33,C  14,C  12,P   4)     63.3477         0.010041   
    183. D(H  37,C  15,C  12,C  14)     53.9035         0.009821   
    184. D(H  37,C  15,C  12,C  13)    -61.7495         0.009821   
    185. D(H  37,C  15,C  12,P   4)    172.6379         0.009821   
    186. D(H  36,C  15,C  12,C  14)    -66.4648         0.009821   
    187. D(H  36,C  15,C  12,C  13)    177.8822         0.009821   
    188. D(H  36,C  15,C  12,P   4)     52.2696         0.009821   
    -----------------------------------------------------------------

Number of atoms                         .... 39
Number of degrees of freedom            .... 188


         *************************************************************
         *                GEOMETRY OPTIMIZATION CYCLE   1            *
         *************************************************************
---------------------------------
CARTESIAN COORDINATES (ANGSTROEM)
---------------------------------
  C     -2.545318   -0.974418   -1.243425
  C     -1.160800   -1.292557   -0.659155
  C     -0.540154   -2.398495   -1.551954
  C     -1.336951   -1.900585    0.738953
  P     -0.021215    0.183597   -0.732056
  O      0.202180    0.494869   -2.200539
  C      1.511284   -0.224414    0.103344
  C      2.681502   -0.329171   -0.666451
  C      3.907948   -0.639733   -0.077528
  C      3.984544   -0.850530    1.295508
  C      2.835718   -0.750175    2.075648
  C      1.608728   -0.438700    1.483308
  C     -0.790636    1.708824    0.021797
  C     -1.543215    1.487434    1.335579
  C     -1.757235    2.381201   -0.978829
  C      0.335195    2.737718    0.289527
  H     -2.456810   -0.488403   -2.220416
  H     -3.114240   -0.312733   -0.586696
  H     -3.143568   -1.883375   -1.375294
  H     -0.438476   -2.057996   -2.587835
  H      0.459544   -2.672519   -1.199188
  H     -1.155330   -3.305314   -1.556284
  H     -2.056142   -2.728100    0.721254
  H     -1.698873   -1.173702    1.465545
  H     -0.396184   -2.308368    1.119452
  H      2.634941   -0.163570   -1.742562
  H      4.800735   -0.714879   -0.692967
  H      4.938508   -1.092136    1.756634
  H      2.894870   -0.915079    3.148690
  H      0.734728   -0.372918    2.121515
  H     -2.431717    0.869295    1.190766
  H     -1.887340    2.438571    1.759198
  H     -0.915962    1.009105    2.089139
  H     -2.600063    1.735405   -1.228962
  H     -1.247809    2.629495   -1.915826
  H     -2.169184    3.311804   -0.571476
  H      0.931560    2.905333   -0.613949
  H     -0.069862    3.703628    0.611957
  H      1.015098    2.391591    1.073577

----------------------------
CARTESIAN COORDINATES (A.U.)
----------------------------
  NO LB      ZA    FRAG     MASS         X           Y           Z
   0 C     6.0000    0    12.011   -4.809954   -1.841383   -2.349733
   1 C     6.0000    0    12.011   -2.193594   -2.442579   -1.245622
   2 C     6.0000    0    12.011   -1.020743   -4.532499   -2.932768
   3 C     6.0000    0    12.011   -2.526471   -3.591585    1.396419
   4 P    15.0000    0    30.974   -0.040091    0.346948   -1.383385
   5 O     8.0000    0    15.999    0.382065    0.935167   -4.158416
   6 C     6.0000    0    12.011    2.855913   -0.424081    0.195292
   7 C     6.0000    0    12.011    5.067304   -0.622043   -1.259410
   8 C     6.0000    0    12.011    7.384951   -1.208920   -0.146507
   9 C     6.0000    0    12.011    7.529697   -1.607269    2.448155
  10 C     6.0000    0    12.011    5.358730   -1.417625    3.922406
  11 C     6.0000    0    12.011    3.040055   -0.829023    2.803046
  12 C     6.0000    0    12.011   -1.494086    3.229209    0.041190
  13 C     6.0000    0    12.011   -2.916254    2.810843    2.523879
  14 C     6.0000    0    12.011   -3.320693    4.499818   -1.849719
  15 C     6.0000    0    12.011    0.633427    5.173537    0.547127
  16 H     1.0000    0     1.008   -4.642698   -0.922948   -4.195978
  17 H     1.0000    0     1.008   -5.885061   -0.590980   -1.108695
  18 H     1.0000    0     1.008   -5.940483   -3.559063   -2.598929
  19 H     1.0000    0     1.008   -0.828600   -3.889049   -4.890299
  20 H     1.0000    0     1.008    0.868412   -5.050329   -2.266137
  21 H     1.0000    0     1.008   -2.183257   -6.246138   -2.940951
  22 H     1.0000    0     1.008   -3.885545   -5.155362    1.362973
  23 H     1.0000    0     1.008   -3.210405   -2.217975    2.769479
  24 H     1.0000    0     1.008   -0.748679   -4.362183    2.115458
  25 H     1.0000    0     1.008    4.979317   -0.309103   -3.292965
  26 H     1.0000    0     1.008    9.072074   -1.350926   -1.309518
  27 H     1.0000    0     1.008    9.332428   -2.063838    3.319557
  28 H     1.0000    0     1.008    5.470511   -1.729249    5.950162
  29 H     1.0000    0     1.008    1.388435   -0.704713    4.009082
  30 H     1.0000    0     1.008   -4.595279    1.642729    2.250222
  31 H     1.0000    0     1.008   -3.566556    4.608231    3.324402
  32 H     1.0000    0     1.008   -1.730917    1.906932    3.947901
  33 H     1.0000    0     1.008   -4.913407    3.279440   -2.322402
  34 H     1.0000    0     1.008   -2.358017    4.969025   -3.620386
  35 H     1.0000    0     1.008   -4.099164    6.258403   -1.079933
  36 H     1.0000    0     1.008    1.760393    5.490284   -1.160195
  37 H     1.0000    0     1.008   -0.132020    6.998843    1.156431
  38 H     1.0000    0     1.008    1.918257    4.519452    2.028767

--------------------------------
INTERNAL COORDINATES (ANGSTROEM)
--------------------------------
 C      0   0   0     0.000000000000     0.00000000     0.00000000
 C      1   0   0     1.536057924866     0.00000000     0.00000000
 C      2   1   0     1.550932097663   106.82349667     0.00000000
 C      2   1   3     1.534742064078   108.97209295   245.04409483
 P      2   1   3     1.866279496684   111.82055375   117.09636229
 O      5   2   1     1.517642219134   106.85239604   295.72226663
 C      5   2   1     1.792461804648   108.89356457   174.77276264
 C      7   5   2     1.404623984772   118.28410011   112.41529915
 C      8   7   5     1.395510245999   121.16491855   179.80082864
 C      9   8   7     1.391233330438   119.90730975   359.96214070
 C     10   9   8     1.392296923756   119.77841914     0.00000000
 C     11  10   9     1.397636509013   120.19689524     0.00000000
 C      5   2   1     1.867249426932   112.25309881    52.10124018
 C     13   5   2     1.530167254540   115.53823303    42.91854634
 C     13   5   2     1.545204468284   110.59494641   279.68222117
 C     13   5   2     1.548482372098   108.23759061   163.82652879
 H      1   2   3     1.094785668690   111.00930544   291.89860435
 H      1   2   3     1.092150292199   111.48674197   171.38169502
 H      1   2   3     1.096127421202   111.46623239    52.02914376
 H      3   2   1     1.095138087570   111.09709552    60.13651407
 H      3   2   1     1.094956206675   110.99933353   179.47562385
 H      3   2   1     1.095801514252   111.57506124   299.81260605
 H      4   2   1     1.096508104989   111.07336951    50.78374291
 H      4   2   1     1.089624873173   112.41409839   290.61953288
 H      4   2   1     1.093667688276   111.46454997   169.70713670
 H      8   7   5     1.089773601370   119.61992197   359.93210036
 H      9   8   7     1.086959388113   119.88731107   180.04304455
 H     10   9   8     1.086764905768   120.05123033   180.02336920
 H     11  10   9     1.087249475550   119.81362606   179.98256724
 H     12  11  10     1.084210056388   118.14733161   179.75717964
 H     14  13   5     1.092017597062   111.60516688   293.86297577
 H     14  13   5     1.096602327900   111.13231390   174.92506714
 H     14  13   5     1.090915960031   111.94554187    55.22662110
 H     15  13   5     1.090861140975   111.97469606    63.34774188
 H     15  13   5     1.095047093928   111.20818606   303.30487136
 H     15  13   5     1.096202713379   111.33637482   183.47694070
 H     16  13   5     1.095451908587   110.78601662    52.26960000
 H     16  13   5     1.095908028189   111.57865694   172.63790852
 H     16  13   5     1.093986467941   111.44118126   292.58976948

---------------------------
INTERNAL COORDINATES (A.U.)
---------------------------
 C      0   0   0     0.000000000000     0.00000000     0.00000000
 C      1   0   0     2.902728803837     0.00000000     0.00000000
 C      2   1   0     2.930836916891   106.82349667     0.00000000
 C      2   1   3     2.900242187316   108.97209295   245.04409483
 P      2   1   3     3.526757138085   111.82055375   117.09636229
 O      5   2   1     2.867928163440   106.85239604   295.72226663
 C      5   2   1     3.387261916299   108.89356457   174.77276264
 C      7   5   2     2.654354652357   118.28410011   112.41529915
 C      8   7   5     2.637132182020   121.16491855   179.80082864
 C      9   8   7     2.629049982911   119.90730975   359.96214070
 C     10   9   8     2.631059883000   119.77841914     0.00000000
 C     11  10   9     2.641150236804   120.19689524     0.00000000
 C      5   2   1     3.528590040623   112.25309881    52.10124018
 C     13   5   2     2.891597050174   115.53823303    42.91854634
 C     13   5   2     2.920013265969   110.59494641   279.68222117
 C     13   5   2     2.926207606469   108.23759061   163.82652879
 H      1   2   3     2.068845089167   111.00930544   291.89860435
 H      1   2   3     2.063864949338   111.48674197   171.38169502
 H      1   2   3     2.071380633952   111.46623239    52.02914376
 H      3   2   1     2.069511064333   111.09709552    60.13651407
 H      3   2   1     2.069167359253   110.99933353   179.47562385
 H      3   2   1     2.070764759073   111.57506124   299.81260605
 H      4   2   1     2.072100022055   111.07336951    50.78374291
 H      4   2   1     2.059092599005   112.41409839   290.61953288
 H      4   2   1     2.066732412360   111.46454997   169.70713670
 H      8   7   5     2.059373654566   119.61992197   359.93210036
 H      9   8   7     2.054055562227   119.88731107   180.04304455
 H     10   9   8     2.053688043857   120.05123033   180.02336920
 H     11  10   9     2.054603748039   119.81362606   179.98256724
 H     12  11  10     2.048860078217   118.14733161   179.75717964
 H     14  13   5     2.063614191871   111.60516688   293.86297577
 H     14  13   5     2.072278077551   111.13231390   174.92506714
 H     14  13   5     2.061532399582   111.94554187    55.22662110
 H     15  13   5     2.061428806579   111.97469606    63.34774188
 H     15  13   5     2.069339111271   111.20818606   303.30487136
 H     15  13   5     2.071522915547   111.33637482   183.47694070
 H     16  13   5     2.070104100110   110.78601662    52.26960000
 H     16  13   5     2.070966041243   111.57865694   172.63790852
 H     16  13   5     2.067334818624   111.44118126   292.58976948

---------------------
BASIS SET INFORMATION
---------------------
There are 4 groups of distinct atoms

 Group   1 Type C   : 7s4p1d contracted to 3s2p1d pattern {511/31/1}
 Group   2 Type P   : 10s7p1d contracted to 4s3p1d pattern {5311/511/1}
 Group   3 Type O   : 7s4p1d contracted to 3s2p1d pattern {511/31/1}
 Group   4 Type H   : 4s1p contracted to 2s1p pattern {31/1}

Atom   0C    basis set group =>   1
Atom   1C    basis set group =>   1
Atom   2C    basis set group =>   1
Atom   3C    basis set group =>   1
Atom   4P    basis set group =>   2
Atom   5O    basis set group =>   3
Atom   6C    basis set group =>   1
Atom   7C    basis set group =>   1
Atom   8C    basis set group =>   1
Atom   9C    basis set group =>   1
Atom  10C    basis set group =>   1
Atom  11C    basis set group =>   1
Atom  12C    basis set group =>   1
Atom  13C    basis set group =>   1
Atom  14C    basis set group =>   1
Atom  15C    basis set group =>   1
Atom  16H    basis set group =>   4
Atom  17H    basis set group =>   4
Atom  18H    basis set group =>   4
Atom  19H    basis set group =>   4
Atom  20H    basis set group =>   4
Atom  21H    basis set group =>   4
Atom  22H    basis set group =>   4
Atom  23H    basis set group =>   4
Atom  24H    basis set group =>   4
Atom  25H    basis set group =>   4
Atom  26H    basis set group =>   4
Atom  27H    basis set group =>   4
Atom  28H    basis set group =>   4
Atom  29H    basis set group =>   4
Atom  30H    basis set group =>   4
Atom  31H    basis set group =>   4
Atom  32H    basis set group =>   4
Atom  33H    basis set group =>   4
Atom  34H    basis set group =>   4
Atom  35H    basis set group =>   4
Atom  36H    basis set group =>   4
Atom  37H    basis set group =>   4
Atom  38H    basis set group =>   4
---------------------------------
AUXILIARY/J BASIS SET INFORMATION
---------------------------------
There are 4 groups of distinct atoms

 Group   1 Type C   : 12s5p4d2f1g contracted to 6s4p3d1f1g pattern {711111/2111/211/2/1}
 Group   2 Type P   : 14s5p5d2f1g contracted to 8s4p3d1f1g pattern {71111111/2111/311/2/1}
 Group   3 Type O   : 12s5p4d2f1g contracted to 6s4p3d1f1g pattern {711111/2111/211/2/1}
 Group   4 Type H   : 5s2p1d contracted to 3s1p1d pattern {311/2/1}

Atom   0C    basis set group =>   1
Atom   1C    basis set group =>   1
Atom   2C    basis set group =>   1
Atom   3C    basis set group =>   1
Atom   4P    basis set group =>   2
Atom   5O    basis set group =>   3
Atom   6C    basis set group =>   1
Atom   7C    basis set group =>   1
Atom   8C    basis set group =>   1
Atom   9C    basis set group =>   1
Atom  10C    basis set group =>   1
Atom  11C    basis set group =>   1
Atom  12C    basis set group =>   1
Atom  13C    basis set group =>   1
Atom  14C    basis set group =>   1
Atom  15C    basis set group =>   1
Atom  16H    basis set group =>   4
Atom  17H    basis set group =>   4
Atom  18H    basis set group =>   4
Atom  19H    basis set group =>   4
Atom  20H    basis set group =>   4
Atom  21H    basis set group =>   4
Atom  22H    basis set group =>   4
Atom  23H    basis set group =>   4
Atom  24H    basis set group =>   4
Atom  25H    basis set group =>   4
Atom  26H    basis set group =>   4
Atom  27H    basis set group =>   4
Atom  28H    basis set group =>   4
Atom  29H    basis set group =>   4
Atom  30H    basis set group =>   4
Atom  31H    basis set group =>   4
Atom  32H    basis set group =>   4
Atom  33H    basis set group =>   4
Atom  34H    basis set group =>   4
Atom  35H    basis set group =>   4
Atom  36H    basis set group =>   4
Atom  37H    basis set group =>   4
Atom  38H    basis set group =>   4


           ************************************************************
           *        Program running with 6 parallel MPI-processes     *
           *              working on a common directory               *
           ************************************************************
------------------------------------------------------------------------------
                             ORCA STARTUP CALCULATIONS
                           -- RI-GTO INTEGRALS CHOSEN --
------------------------------------------------------------------------------
------------------------------------------------------------------------------
                   ___                                                        
                  /   \      - P O W E R E D   B Y -                         
                 /     \                                                     
                 |  |  |   _    _      __       _____    __    __             
                 |  |  |  | |  | |    /  \     |  _  \  |  |  /  |          
                  \  \/   | |  | |   /    \    | | | |  |  | /  /          
                 / \  \   | |__| |  /  /\  \   | |_| |  |  |/  /          
                |  |  |   |  __  | /  /__\  \  |    /   |      \           
                |  |  |   | |  | | |   __   |  |    \   |  |\   \          
                \     /   | |  | | |  |  |  |  | |\  \  |  | \   \       
                 \___/    |_|  |_| |__|  |__|  |_| \__\ |__|  \__/        
                                                                              
                      - O R C A' S   B I G   F R I E N D -                    
                                      &                                       
                       - I N T E G R A L  F E E D E R -                       
                                                                              
 v1 FN, 2020, v2 2021, v3 2022-2024                                           
------------------------------------------------------------------------------


----------------------
SHARK INTEGRAL PACKAGE
----------------------

Number of atoms                             ...     39
Number of basis functions                   ...    343
Number of shells                            ...    167
Maximum angular momentum                    ...      2
Integral batch strategy                     ... SHARK/LIBINT Hybrid
RI-J (if used) integral strategy            ... SPLIT-RIJ (Revised 2003 algorithm where possible)
Printlevel                                  ...      1
Contraction scheme used                     ... SEGMENTED contraction
Prescreening option                         ... SCHWARTZ
   Thresh                                   ... 2.500e-11
   Tcut                                     ... 2.500e-12
   Tpresel                                  ... 2.500e-12 
Coulomb Range Separation                    ... NOT USED
Exchange Range Separation                   ... NOT USED
Multipole approximations                    ... NOT USED
Finite Nucleus Model                        ... NOT USED
CABS basis                                  ... NOT available
Auxiliary Coulomb fitting basis             ... AVAILABLE
   # of basis functions in Aux-J            ...   1039
   # of shells in Aux-J                     ...    357
   Maximum angular momentum in Aux-J        ...      4
Auxiliary J/K fitting basis                 ... NOT available
Auxiliary Correlation fitting basis         ... NOT available
Auxiliary 'external' fitting basis          ... NOT available

Checking pre-screening integrals            ... done (  0.0 sec) Dimension = 167
Check shell pair data                       ... done (  0.0 sec)
Shell pair information
Shell pair cut-off parameter TPreSel        ...   2.5e-12
Total number of shell pairs                 ...     14028
Shell pairs after pre-screening             ...     12014
Total number of primitive shell pairs       ...     49428
Primitive shell pairs kept                  ...     28233
          la=0 lb=0:   4035 shell pairs
          la=1 lb=0:   4571 shell pairs
          la=1 lb=1:   1321 shell pairs
          la=2 lb=0:   1275 shell pairs
          la=2 lb=1:    711 shell pairs
          la=2 lb=2:    101 shell pairs

Calculating one electron integrals          ... done (  0.0 sec)
Calculating RI/J V-Matrix + Cholesky decomp.... done (  0.1 sec)
Calculating Nuclear repulsion               ... done (  0.0 sec) ENN=   1355.131769618422 Eh

Diagonalization of the overlap matrix:
Smallest eigenvalue                        ... 2.722e-04
Time for diagonalization                   ...    0.015 sec
Threshold for overlap eigenvalues          ... 1.000e-07
Number of eigenvalues below threshold      ... 0
Time for construction of square roots      ...    0.010 sec
Total time needed                          ...    0.026 sec

-------------------
DFT GRID GENERATION
-------------------

General Integration Accuracy     IntAcc      ... 4.388
Radial Grid Type                 RadialGrid  ... OptM3 with GC (2021)
Angular Grid (max. ang.)         AngularGrid ... 4 (Lebedev-302)
Angular grid pruning method      GridPruning ... 4 (adaptive)
Weight generation scheme         WeightScheme... mBecke (2022)
Basis function cutoff            BFCut       ... 1.0000e-11
Integration weight cutoff        WCut        ... 1.0000e-14
Partially contracted basis set               ... off
Rotationally invariant grid construction     ... off
Angular grids for H and He will be reduced by one unit

Total number of grid points                  ...   168973
Total number of batches                      ...     2661
Average number of points per batch           ...       63
Average number of grid points per atom       ...     4333
Initializing property integral containers    ... done (  0.0 sec)

SHARK setup successfully completed in   1.2 seconds

Maximum memory used throughout the entire STARTUP-calculation: 48.5 MB


           ************************************************************
           *        Program running with 6 parallel MPI-processes     *
           *              working on a common directory               *
           ************************************************************
-------------------------------------------------------------------------------
                                 ORCA GUESS
                   Start orbitals & Density for SCF / CASSCF
-------------------------------------------------------------------------------

------------
SCF SETTINGS
------------
Hamiltonian:
 Density Functional     Method          .... DFT(GTOs)
 Exchange Functional    Exchange        .... B88
   X-Alpha parameter    XAlpha          ....  0.666667
   Becke's b parameter  XBeta           ....  0.004200
 Correlation Functional Correlation     .... P86
 LDA part of GGA corr.  LDAOpt          .... PW91-LDA
 Gradients option       PostSCFGGA      .... off
   NL short-range parameter             ....  4.400000
 RI-approximation to the Coulomb term is turned on
   Number of AuxJ basis functions       .... 1039


General Settings:
 Integral files         IntName         .... data/geom_opt_PO_BP86/316378/316378
 Hartree-Fock type      HFTyp           .... RHF
 Total Charge           Charge          ....    0
 Multiplicity           Mult            ....    1
 Number of Electrons    NEL             ....  130
 Basis Dimension        Dim             ....  343
 Nuclear Repulsion      ENuc            ....   1355.1317696184 Eh

Convergence Acceleration:
 AO-DIIS                CNVDIIS         .... on
   Start iteration      DIISMaxIt       ....    12
   Startup error        DIISStart       ....  0.200000
   # of expansion vecs  DIISMaxEq       ....     5
   Bias factor          DIISBfac        ....   1.050
   Max. coefficient     DIISMaxC        ....  10.000
 MO-DIIS                CNVKDIIS        .... off
 Trust-Rad. Augm. Hess. CNVTRAH         .... auto
   Auto Start mean grad. ratio tolernc. ....  1.125000
   Auto Start start iteration           ....    50
   Auto Start num. interpolation iter.  ....    10
   Max. Number of Micro iterations      ....    24
   Max. Number of Macro iterations      .... Maxiter - #DIIS iter
   Number of Davidson start vectors     ....     2
   Converg. threshold    (grad. norm)   ....   1.000e-05
   Grad. Scal. Fac. for Micro threshold ....   0.100
   Minimum threshold for Micro iter.    ....   1.000e-02
   NR start threshold (gradient norm)   ....   1.000e-04
   Initial trust radius                 ....   0.400
   Minimum AH scaling param. (alpha)    ....   1.000
   Maximum AH scaling param. (alpha)    .... 1000.000
   Quad. conv. algorithm                .... NR
   White noise on init. David. guess    .... on
   Maximum white noise                  ....   0.010
   Pseudo random numbers                .... off
   Inactive MOs                         .... canonical
   Orbital update algorithm             .... Taylor
   Preconditioner                       .... Diag
   Full preconditioner red. dimension   ....   250
 SOSCF                  CNVSOSCF        .... on
   Start iteration      SOSCFMaxIt      ....   150
   Startup grad/error   SOSCFStart      ....  0.003300
   Hessian update       SOSCFHessUp     .... L-BFGS
 Level Shifting         CNVShift        .... on
   Level shift para.    LevelShift      ....    0.2500
   Turn off err/grad.   ShiftErr        ....    0.0010
 Zerner damping         CNVZerner       .... off
 Static damping         CNVDamp         .... on
   Fraction old density DampFac         ....    0.7000
   Max. Damping (<1)    DampMax         ....    0.9800
   Min. Damping (>=0)   DampMin         ....    0.0000
   Turn off err/grad.   DampErr         ....    0.1000

SCF Procedure:
 Maximum # iterations   MaxIter         ....   125
 SCF integral mode      SCFMode         .... Direct
   Integral package                     .... SHARK and LIBINT hybrid scheme
 Reset frequency        DirectResetFreq ....    20
 Integral Threshold     Thresh          ....  2.500e-11 Eh
 Primitive CutOff       TCut            ....  2.500e-12 Eh

Convergence Tolerance:
 Convergence Check Mode ConvCheckMode   .... Total+1el-Energy
 Convergence forced     ConvForced      .... 0
 Energy Change          TolE            ....  1.000e-08 Eh
 1-El. energy change                    ....  1.000e-05 Eh
 Orbital Gradient       TolG            ....  1.000e-05
 Orbital Rotation angle TolX            ....  1.000e-05
 DIIS Error             TolErr          ....  5.000e-07

------------------------------
INITIAL GUESS: MODEL POTENTIAL
------------------------------
Loading Hartree-Fock densities                     ... done
Calculating cut-offs                               ... done
Initializing the effective Hamiltonian             ... done
Setting up the integral package (SHARK)            ... done
Starting the Coulomb interaction                   ... done (   0.2 sec)
Making the grid                                    ... done (   0.2 sec)
Mapping shells                                     ... done
Starting the XC term evaluation                    ... done (   0.2 sec)
  promolecular density results
     # of electrons  =    129.997924156
     EX              =   -109.698261957
     EC              =     -4.814340502
     EX+EC           =   -114.512602459
Transforming the Hamiltonian                       ... done (   0.0 sec)
Diagonalizing the Hamiltonian                      ... done (   0.0 sec)
Back transforming the eigenvectors                 ... done (   0.0 sec)
Now organizing SCF variables                       ... done
                      ------------------
                      INITIAL GUESS DONE (   0.6 sec)
                      ------------------
             **** ENERGY FILE WAS UPDATED (data/geom_opt_PO_BP86/316378/316378.en.tmp) ****
Finished Guess after   0.7 sec
Maximum memory used throughout the entire GUESS-calculation: 27.1 MB


           ************************************************************
           *        Program running with 6 parallel MPI-processes     *
           *              working on a common directory               *
           ************************************************************

-------------------------------------------------------------------------------------------
                                      ORCA LEAN-SCF
                              memory conserving SCF solver
-------------------------------------------------------------------------------------------

----------------------------------------D-I-I-S--------------------------------------------
Iteration    Energy (Eh)           Delta-E    RMSDP     MaxDP     DIISErr   Damp  Time(sec)
-------------------------------------------------------------------------------------------
               ***  Starting incremental Fock matrix formation  ***
    1    -962.8923358556041876     0.00e+00  3.60e-03  1.54e-01  3.34e-01  0.700   1.0
    2    -963.1482948438494986    -2.56e-01  2.12e-03  7.34e-02  8.02e-02  0.700   0.9
                               ***Turning on AO-DIIS***
    3    -963.2269491760359870    -7.87e-02  7.00e-04  1.95e-02  2.57e-02  0.700   0.9
    4    -963.2793937481640114    -5.24e-02  1.15e-03  4.51e-02  1.24e-02  0.000   0.9
    5    -963.3984573458931209    -1.19e-01  2.96e-04  7.26e-03  8.12e-03  0.000   0.9
                              *** Initializing SOSCF ***
---------------------------------------S-O-S-C-F--------------------------------------
Iteration    Energy (Eh)           Delta-E    RMSDP     MaxDP     MaxGrad    Time(sec)
--------------------------------------------------------------------------------------
    6    -963.3997594353124896    -1.30e-03  1.09e-04  2.78e-03  1.63e-03     0.9
               *** Restarting incremental Fock matrix formation ***
    7    -963.3998421781195702    -8.27e-05  8.87e-05  2.46e-03  3.69e-04     0.9
    8    -963.3998259477082229     1.62e-05  4.80e-05  1.92e-03  1.03e-03     0.9
    9    -963.3998536552510359    -2.77e-05  2.81e-05  9.80e-04  2.62e-04     0.8
   10    -963.3998510566682398     2.60e-06  1.65e-05  6.14e-04  2.81e-04     0.8
   11    -963.3998554213605985    -4.36e-06  1.11e-05  5.15e-04  5.54e-05     0.8
   12    -963.3998548805564042     5.41e-07  8.26e-06  4.00e-04  9.04e-05     0.8
   13    -963.3998555494288212    -6.69e-07  3.69e-06  1.66e-04  1.31e-05     0.9
   14    -963.3998555075229433     4.19e-08  2.28e-06  8.60e-05  3.10e-05     0.8
   15    -963.3998555719660999    -6.44e-08  5.94e-07  2.45e-05  5.78e-06     0.7
   16    -963.3998555703221882     1.64e-09  3.98e-07  1.76e-05  1.25e-05     0.7
                 **** Energy Check signals convergence ****

               *****************************************************
               *                     SUCCESS                       *
               *           SCF CONVERGED AFTER  16 CYCLES          *
               *****************************************************

             **** ENERGY FILE WAS UPDATED (data/geom_opt_PO_BP86/316378/316378.en.tmp) ****

----------------
TOTAL SCF ENERGY
----------------

Total Energy       :       -963.39985557032219 Eh          -26215.44284 eV

Components:
Nuclear Repulsion  :       1355.13176961842214 Eh           36875.01014 eV
Electronic Energy  :      -2318.53162518874433 Eh          -63090.45298 eV
One Electron Energy:      -4006.31052933594810 Eh         -109017.25183 eV
Two Electron Energy:       1687.77890414720355 Eh           45926.79886 eV

Virial components:
Potential Energy   :      -1918.24989137406465 Eh          -52198.23325 eV
Kinetic Energy     :        954.85003580374257 Eh           25982.79041 eV
Virial Ratio       :          2.00895409692202

DFT components:
N(Alpha)           :       64.999928765983 electrons
N(Beta)            :       64.999928765983 electrons
N(Total)           :      129.999857531965 electrons
E(X)               :     -111.630031952208 Eh       
E(C)               :       -4.800476718317 Eh       
E(XC)              :     -116.430508670525 Eh       

---------------
SCF CONVERGENCE
---------------

  Last Energy change         ...   -1.6439e-09  Tolerance :   1.0000e-08
  Last MAX-Density change    ...    1.7585e-05  Tolerance :   1.0000e-07
  Last RMS-Density change    ...    3.9777e-07  Tolerance :   5.0000e-09
  Last DIIS Error            ...    1.6267e-03  Tolerance :   5.0000e-07
  Last Orbital Gradient      ...    1.2519e-05  Tolerance :   1.0000e-05
  Last Orbital Rotation      ...    1.8308e-05  Tolerance :   1.0000e-05


----------------
ORBITAL ENERGIES
----------------

  NO   OCC          E(Eh)            E(eV) 
   0   2.0000     -76.401501     -2078.9905 
   1   2.0000     -18.698387      -508.8090 
   2   2.0000      -9.933347      -270.3001 
   3   2.0000      -9.933190      -270.2958 
   4   2.0000      -9.931666      -270.2544 
   5   2.0000      -9.928707      -270.1739 
   6   2.0000      -9.928335      -270.1637 
   7   2.0000      -9.928113      -270.1577 
   8   2.0000      -9.926909      -270.1249 
   9   2.0000      -9.925834      -270.0957 
  10   2.0000      -9.912907      -269.7439 
  11   2.0000      -9.908515      -269.6244 
  12   2.0000      -9.906323      -269.5648 
  13   2.0000      -9.905339      -269.5380 
  14   2.0000      -9.901220      -269.4259 
  15   2.0000      -9.900163      -269.3971 
  16   2.0000      -6.361099      -173.0943 
  17   2.0000      -4.582332      -124.6916 
  18   2.0000      -4.582214      -124.6884 
  19   2.0000      -4.581801      -124.6772 
  20   2.0000      -0.840683       -22.8762 
  21   2.0000      -0.786100       -21.3909 
  22   2.0000      -0.740844       -20.1594 
  23   2.0000      -0.731469       -19.9043 
  24   2.0000      -0.689327       -18.7575 
  25   2.0000      -0.681597       -18.5472 
  26   2.0000      -0.623365       -16.9626 
  27   2.0000      -0.619737       -16.8639 
  28   2.0000      -0.612871       -16.6771 
  29   2.0000      -0.609513       -16.5857 
  30   2.0000      -0.581459       -15.8223 
  31   2.0000      -0.554101       -15.0779 
  32   2.0000      -0.534987       -14.5577 
  33   2.0000      -0.499711       -13.5978 
  34   2.0000      -0.487059       -13.2535 
  35   2.0000      -0.449694       -12.2368 
  36   2.0000      -0.424286       -11.5454 
  37   2.0000      -0.421910       -11.4808 
  38   2.0000      -0.417524       -11.3614 
  39   2.0000      -0.406577       -11.0635 
  40   2.0000      -0.396096       -10.7783 
  41   2.0000      -0.393810       -10.7161 
  42   2.0000      -0.388090       -10.5605 
  43   2.0000      -0.385861       -10.4998 
  44   2.0000      -0.382257       -10.4018 
  45   2.0000      -0.360364        -9.8060 
  46   2.0000      -0.352854        -9.6017 
  47   2.0000      -0.347247        -9.4491 
  48   2.0000      -0.345976        -9.4145 
  49   2.0000      -0.341284        -9.2868 
  50   2.0000      -0.337268        -9.1775 
  51   2.0000      -0.322365        -8.7720 
  52   2.0000      -0.321019        -8.7354 
  53   2.0000      -0.316998        -8.6260 
  54   2.0000      -0.309684        -8.4269 
  55   2.0000      -0.302798        -8.2396 
  56   2.0000      -0.297602        -8.0982 
  57   2.0000      -0.291835        -7.9412 
  58   2.0000      -0.287780        -7.8309 
  59   2.0000      -0.279023        -7.5926 
  60   2.0000      -0.276583        -7.5262 
  61   2.0000      -0.244784        -6.6609 
  62   2.0000      -0.242607        -6.6017 
  63   2.0000      -0.205260        -5.5854 
  64   2.0000      -0.198026        -5.3886 
  65   0.0000      -0.066500        -1.8096 
  66   0.0000      -0.052826        -1.4375 
  67   0.0000       0.011949         0.3252 
  68   0.0000       0.028793         0.7835 
  69   0.0000       0.040259         1.0955 
  70   0.0000       0.055200         1.5021 
  71   0.0000       0.057964         1.5773 
  72   0.0000       0.065689         1.7875 
  73   0.0000       0.068305         1.8587 
  74   0.0000       0.070216         1.9107 
  75   0.0000       0.083890         2.2828 
*Only the first 10 virtual orbitals were printed.

                    ********************************
                    * MULLIKEN POPULATION ANALYSIS *
                    ********************************

-----------------------
MULLIKEN ATOMIC CHARGES
-----------------------
   0 C :    0.042932
   1 C :   -0.397368
   2 C :    0.042952
   3 C :    0.046085
   4 P :    0.576353
   5 O :   -0.475147
   6 C :   -0.091603
   7 C :    0.006482
   8 C :    0.014300
   9 C :    0.016037
  10 C :    0.007837
  11 C :   -0.000566
  12 C :   -0.400908
  13 C :    0.051442
  14 C :    0.059073
  15 C :    0.040780
  16 H :    0.050320
  17 H :    0.021809
  18 H :    0.019640
  19 H :    0.042999
  20 H :    0.023177
  21 H :    0.019748
  22 H :    0.018773
  23 H :    0.004149
  24 H :    0.030038
  25 H :    0.017404
  26 H :    0.003169
  27 H :    0.001455
  28 H :   -0.003824
  29 H :   -0.007254
  30 H :    0.030468
  31 H :    0.018932
  32 H :    0.015749
  33 H :    0.007133
  34 H :    0.044913
  35 H :    0.015576
  36 H :    0.040531
  37 H :    0.022540
  38 H :    0.023876
Sum of atomic charges:   -0.0000000

--------------------------------
MULLIKEN REDUCED ORBITAL CHARGES
--------------------------------
  0 C s       :     2.990430  s :     2.990430
      pz      :     1.010856  p :     2.940575
      px      :     0.931653
      py      :     0.998066
      dz2     :     0.005192  d :     0.026062
      dxz     :     0.004701
      dyz     :     0.005208
      dx2y2   :     0.003340
      dxy     :     0.007621

  1 C s       :     3.266470  s :     3.266470
      pz      :     1.015043  p :     3.087569
      px      :     1.037576
      py      :     1.034950
      dz2     :     0.010102  d :     0.043328
      dxz     :     0.008402
      dyz     :     0.008412
      dx2y2   :     0.006515
      dxy     :     0.009898

  2 C s       :     2.996945  s :     2.996945
      pz      :     1.007521  p :     2.934543
      px      :     0.985865
      py      :     0.941157
      dz2     :     0.007645  d :     0.025560
      dxz     :     0.002811
      dyz     :     0.004059
      dx2y2   :     0.004749
      dxy     :     0.006296

  3 C s       :     2.974296  s :     2.974296
      pz      :     0.956641  p :     2.953312
      px      :     1.007048
      py      :     0.989623
      dz2     :     0.005586  d :     0.026308
      dxz     :     0.004781
      dyz     :     0.006820
      dx2y2   :     0.002306
      dxy     :     0.006815

  4 P s       :     5.275255  s :     5.275255
      pz      :     2.807925  p :     8.695347
      px      :     2.944906
      py      :     2.942515
      dz2     :     0.091602  d :     0.453046
      dxz     :     0.127917
      dyz     :     0.114197
      dx2y2   :     0.041769
      dxy     :     0.077560

  5 O s       :     3.822022  s :     3.822022
      pz      :     1.355350  p :     4.641442
      px      :     1.642227
      py      :     1.643865
      dz2     :     0.004739  d :     0.011683
      dxz     :     0.003157
      dyz     :     0.003295
      dx2y2   :     0.000256
      dxy     :     0.000236

  6 C s       :     3.067650  s :     3.067650
      pz      :     0.976804  p :     2.990566
      px      :     0.988143
      py      :     1.025620
      dz2     :     0.008773  d :     0.033387
      dxz     :     0.010894
      dyz     :     0.005884
      dx2y2   :     0.004048
      dxy     :     0.003789

  7 C s       :     3.247133  s :     3.247133
      pz      :     0.857234  p :     2.713723
      px      :     0.923672
      py      :     0.932817
      dz2     :     0.008827  d :     0.032661
      dxz     :     0.009520
      dyz     :     0.002629
      dx2y2   :     0.005527
      dxy     :     0.006158

  8 C s       :     3.172308  s :     3.172308
      pz      :     0.918226  p :     2.780567
      px      :     0.881461
      py      :     0.980879
      dz2     :     0.008352  d :     0.032826
      dxz     :     0.011880
      dyz     :     0.004944
      dx2y2   :     0.004243
      dxy     :     0.003407

  9 C s       :     3.171157  s :     3.171157
      pz      :     0.946133  p :     2.779566
      px      :     0.873451
      py      :     0.959982
      dz2     :     0.008958  d :     0.033240
      dxz     :     0.011316
      dyz     :     0.005606
      dx2y2   :     0.003922
      dxy     :     0.003438

 10 C s       :     3.173880  s :     3.173880
      pz      :     0.834366  p :     2.785565
      px      :     0.966671
      py      :     0.984527
      dz2     :     0.009237  d :     0.032718
      dxz     :     0.009405
      dyz     :     0.002621
      dx2y2   :     0.005509
      dxy     :     0.005946

 11 C s       :     3.213665  s :     3.213665
      pz      :     0.928004  p :     2.753675
      px      :     0.861624
      py      :     0.964046
      dz2     :     0.008010  d :     0.033227
      dxz     :     0.012313
      dyz     :     0.005213
      dx2y2   :     0.004167
      dxy     :     0.003523

 12 C s       :     3.266305  s :     3.266305
      pz      :     1.024563  p :     3.091372
      px      :     1.028690
      py      :     1.038119
      dz2     :     0.008845  d :     0.043231
      dxz     :     0.010210
      dyz     :     0.007906
      dx2y2   :     0.006891
      dxy     :     0.009377

 13 C s       :     2.973409  s :     2.973409
      pz      :     0.955777  p :     2.948432
      px      :     0.985097
      py      :     1.007559
      dz2     :     0.005237  d :     0.026717
      dxz     :     0.006337
      dyz     :     0.005677
      dx2y2   :     0.002697
      dxy     :     0.006769

 14 C s       :     2.983510  s :     2.983510
      pz      :     0.991173  p :     2.931831
      px      :     0.970382
      py      :     0.970275
      dz2     :     0.005155  d :     0.025586
      dxz     :     0.005814
      dyz     :     0.004362
      dx2y2   :     0.003110
      dxy     :     0.007145

 15 C s       :     2.992686  s :     2.992686
      pz      :     1.016716  p :     2.940723
      px      :     0.970720
      py      :     0.953287
      dz2     :     0.003494  d :     0.025811
      dxz     :     0.008490
      dyz     :     0.003429
      dx2y2   :     0.004852
      dxy     :     0.005546

 16 H s       :     0.926555  s :     0.926555
      pz      :     0.011478  p :     0.023126
      px      :     0.004502
      py      :     0.007146

 17 H s       :     0.954599  s :     0.954599
      pz      :     0.008024  p :     0.023592
      px      :     0.006732
      py      :     0.008836

 18 H s       :     0.957293  s :     0.957293
      pz      :     0.005675  p :     0.023067
      px      :     0.006793
      py      :     0.010600

 19 H s       :     0.933793  s :     0.933793
      pz      :     0.012035  p :     0.023208
      px      :     0.005327
      py      :     0.005846

 20 H s       :     0.953461  s :     0.953461
      pz      :     0.005877  p :     0.023361
      px      :     0.011913
      py      :     0.005572

 21 H s       :     0.957228  s :     0.957228
      pz      :     0.005262  p :     0.023024
      px      :     0.007574
      py      :     0.010188

 22 H s       :     0.958242  s :     0.958242
      pz      :     0.004367  p :     0.022985
      px      :     0.008877
      py      :     0.009741

 23 H s       :     0.971899  s :     0.971899
      pz      :     0.008130  p :     0.023952
      px      :     0.006751
      py      :     0.009070

 24 H s       :     0.946658  s :     0.946658
      pz      :     0.005430  p :     0.023305
      px      :     0.011365
      py      :     0.006510

 25 H s       :     0.959536  s :     0.959536
      pz      :     0.014383  p :     0.023060
      px      :     0.003869
      py      :     0.004808

 26 H s       :     0.974506  s :     0.974506
      pz      :     0.006954  p :     0.022326
      px      :     0.010459
      py      :     0.004913

 27 H s       :     0.976239  s :     0.976239
      pz      :     0.005539  p :     0.022306
      px      :     0.011457
      py      :     0.005309

 28 H s       :     0.981453  s :     0.981453
      pz      :     0.013428  p :     0.022370
      px      :     0.003756
      py      :     0.005187

 29 H s       :     0.984075  s :     0.984075
      pz      :     0.007229  p :     0.023178
      px      :     0.010559
      py      :     0.005390

 30 H s       :     0.946036  s :     0.946036
      pz      :     0.004857  p :     0.023496
      px      :     0.010261
      py      :     0.008377

 31 H s       :     0.958088  s :     0.958088
      pz      :     0.005743  p :     0.022980
      px      :     0.006034
      py      :     0.011204

 32 H s       :     0.960746  s :     0.960746
      pz      :     0.008472  p :     0.023505
      px      :     0.007744
      py      :     0.007289

 33 H s       :     0.969009  s :     0.969009
      pz      :     0.005796  p :     0.023858
      px      :     0.009812
      py      :     0.008250

 34 H s       :     0.931743  s :     0.931743
      pz      :     0.011090  p :     0.023344
      px      :     0.006810
      py      :     0.005444

 35 H s       :     0.961312  s :     0.961312
      pz      :     0.005915  p :     0.023112
      px      :     0.006295
      py      :     0.010902

 36 H s       :     0.936424  s :     0.936424
      pz      :     0.010873  p :     0.023045
      px      :     0.007122
      py      :     0.005050

 37 H s       :     0.954469  s :     0.954469
      pz      :     0.006313  p :     0.022991
      px      :     0.005675
      py      :     0.011003

 38 H s       :     0.952788  s :     0.952788
      pz      :     0.009350  p :     0.023335
      px      :     0.008189
      py      :     0.005796



                     *******************************
                     * LOEWDIN POPULATION ANALYSIS *
                     *******************************

----------------------
LOEWDIN ATOMIC CHARGES
----------------------
   0 C :   -0.058087
   1 C :   -0.181569
   2 C :   -0.058359
   3 C :   -0.066962
   4 P :    0.898280
   5 O :   -0.508911
   6 C :   -0.187570
   7 C :   -0.005872
   8 C :   -0.025099
   9 C :   -0.016072
  10 C :   -0.028519
  11 C :   -0.028928
  12 C :   -0.181955
  13 C :   -0.062920
  14 C :   -0.055550
  15 C :   -0.059750
  16 H :    0.032572
  17 H :    0.018290
  18 H :    0.029285
  19 H :    0.031586
  20 H :    0.024299
  21 H :    0.025793
  22 H :    0.028647
  23 H :    0.019083
  24 H :    0.025505
  25 H :    0.036961
  26 H :    0.034027
  27 H :    0.032323
  28 H :    0.031890
  29 H :    0.024435
  30 H :    0.021801
  31 H :    0.029643
  32 H :    0.018335
  33 H :    0.022346
  34 H :    0.034166
  35 H :    0.025642
  36 H :    0.030838
  37 H :    0.027569
  38 H :    0.022808

-------------------------------
LOEWDIN REDUCED ORBITAL CHARGES
-------------------------------
  0 C s       :     2.842327  s :     2.842327
      pz      :     1.064894  p :     3.145104
      px      :     1.012755
      py      :     1.067454
      dz2     :     0.013601  d :     0.070657
      dxz     :     0.013119
      dyz     :     0.014077
      dx2y2   :     0.010235
      dxy     :     0.019625

  1 C s       :     2.907254  s :     2.907254
      pz      :     1.045836  p :     3.174701
      px      :     1.060291
      py      :     1.068574
      dz2     :     0.023217  d :     0.099615
      dxz     :     0.018147
      dyz     :     0.020376
      dx2y2   :     0.014951
      dxy     :     0.022923

  2 C s       :     2.847220  s :     2.847220
      pz      :     1.057140  p :     3.142223
      px      :     1.056633
      py      :     1.028450
      dz2     :     0.019294  d :     0.068916
      dxz     :     0.007541
      dyz     :     0.012470
      dx2y2   :     0.012417
      dxy     :     0.017194

  3 C s       :     2.841502  s :     2.841502
      pz      :     1.022305  p :     3.153686
      px      :     1.069515
      py      :     1.061866
      dz2     :     0.016076  d :     0.071773
      dxz     :     0.011668
      dyz     :     0.019268
      dx2y2   :     0.006118
      dxy     :     0.018642

  4 P s       :     4.964979  s :     4.964979
      pz      :     2.780987  p :     8.501944
      px      :     2.860011
      py      :     2.860947
      dz2     :     0.133606  d :     0.634797
      dxz     :     0.175636
      dyz     :     0.153964
      dx2y2   :     0.056527
      dxy     :     0.115064

  5 O s       :     3.659499  s :     3.659499
      pz      :     1.483798  p :     4.831113
      px      :     1.674077
      py      :     1.673239
      dz2     :     0.009305  d :     0.018299
      dxz     :     0.003982
      dyz     :     0.004413
      dx2y2   :     0.000309
      dxy     :     0.000291

  6 C s       :     2.909970  s :     2.909970
      pz      :     1.087974  p :     3.187593
      px      :     1.087675
      py      :     1.011945
      dz2     :     0.026651  d :     0.090007
      dxz     :     0.031718
      dyz     :     0.012973
      dx2y2   :     0.010894
      dxy     :     0.007771

  7 C s       :     2.869266  s :     2.869266
      pz      :     1.055083  p :     3.047801
      px      :     1.054028
      py      :     0.938690
      dz2     :     0.024482  d :     0.088805
      dxz     :     0.028652
      dyz     :     0.005264
      dx2y2   :     0.016255
      dxy     :     0.014151

  8 C s       :     2.863432  s :     2.863432
      pz      :     1.057712  p :     3.072508
      px      :     1.046753
      py      :     0.968043
      dz2     :     0.025445  d :     0.089160
      dxz     :     0.034028
      dyz     :     0.011135
      dx2y2   :     0.011204
      dxy     :     0.007347

  9 C s       :     2.864305  s :     2.864305
      pz      :     1.065129  p :     3.061889
      px      :     1.044076
      py      :     0.952684
      dz2     :     0.026778  d :     0.089878
      dxz     :     0.032937
      dyz     :     0.012592
      dx2y2   :     0.010396
      dxy     :     0.007175

 10 C s       :     2.863769  s :     2.863769
      pz      :     1.039066  p :     3.076003
      px      :     1.063152
      py      :     0.973784
      dz2     :     0.025125  d :     0.088748
      dxz     :     0.028851
      dyz     :     0.005206
      dx2y2   :     0.015882
      dxy     :     0.013683

 11 C s       :     2.865277  s :     2.865277
      pz      :     1.057033  p :     3.072458
      px      :     1.050352
      py      :     0.965072
      dz2     :     0.024384  d :     0.091193
      dxz     :     0.036107
      dyz     :     0.011925
      dx2y2   :     0.011073
      dxy     :     0.007704

 12 C s       :     2.907043  s :     2.907043
      pz      :     1.053751  p :     3.175735
      px      :     1.052680
      py      :     1.069305
      dz2     :     0.019634  d :     0.099176
      dxz     :     0.025269
      dyz     :     0.017311
      dx2y2   :     0.013354
      dxy     :     0.023608

 13 C s       :     2.840741  s :     2.840741
      pz      :     1.027730  p :     3.149502
      px      :     1.051126
      py      :     1.070646
      dz2     :     0.014319  d :     0.072676
      dxz     :     0.018616
      dyz     :     0.014497
      dx2y2   :     0.007314
      dxy     :     0.017930

 14 C s       :     2.843489  s :     2.843489
      pz      :     1.049038  p :     3.142692
      px      :     1.041626
      py      :     1.052028
      dz2     :     0.012753  d :     0.069369
      dxz     :     0.016921
      dyz     :     0.012313
      dx2y2   :     0.007735
      dxy     :     0.019646

 15 C s       :     2.846605  s :     2.846605
      pz      :     1.070841  p :     3.143602
      px      :     1.035377
      py      :     1.037384
      dz2     :     0.010114  d :     0.069543
      dxz     :     0.021899
      dyz     :     0.008647
      dx2y2   :     0.011638
      dxy     :     0.017245

 16 H s       :     0.899106  s :     0.899106
      pz      :     0.036398  p :     0.068322
      px      :     0.013131
      py      :     0.018792

 17 H s       :     0.913530  s :     0.913530
      pz      :     0.023344  p :     0.068181
      px      :     0.021021
      py      :     0.023815

 18 H s       :     0.904489  s :     0.904489
      pz      :     0.013802  p :     0.066226
      px      :     0.021025
      py      :     0.031399

 19 H s       :     0.899859  s :     0.899859
      pz      :     0.039167  p :     0.068555
      px      :     0.013200
      py      :     0.016188

 20 H s       :     0.908647  s :     0.908647
[...]

 13 C s       :     2.853981  s :     2.853981
      pz      :     1.026517  p :     3.144105
      px      :     1.050292
      py      :     1.067296
      dz2     :     0.014235  d :     0.069231
      dxz     :     0.017599
      dyz     :     0.013664
      dx2y2   :     0.007095
      dxy     :     0.016638

 14 C s       :     2.855787  s :     2.855787
      pz      :     1.051983  p :     3.143235
      px      :     1.038359
      py      :     1.052893
      dz2     :     0.015817  d :     0.067527
      dxz     :     0.015213
      dyz     :     0.008672
      dx2y2   :     0.011585
      dxy     :     0.016240

 15 C s       :     2.857224  s :     2.857224
      pz      :     1.071261  p :     3.141511
      px      :     1.029734
      py      :     1.040516
      dz2     :     0.011134  d :     0.067707
      dxz     :     0.020069
      dyz     :     0.007203
      dx2y2   :     0.012765
      dxy     :     0.016536

 16 H s       :     0.899107  s :     0.899107
      pz      :     0.035600  p :     0.066288
      px      :     0.012685
      py      :     0.018002

 17 H s       :     0.912943  s :     0.912943
      pz      :     0.021941  p :     0.065161
      px      :     0.020859
      py      :     0.022362

 18 H s       :     0.905731  s :     0.905731
      pz      :     0.013049  p :     0.064157
      px      :     0.019896
      py      :     0.031211

 19 H s       :     0.897821  s :     0.897821
      pz      :     0.037647  p :     0.067879
      px      :     0.012779
      py      :     0.017453

 20 H s       :     0.905594  s :     0.905594
      pz      :     0.016258  p :     0.065042
      px      :     0.034918
      py      :     0.013867

 21 H s       :     0.908688  s :     0.908688
      pz      :     0.012910  p :     0.064290
      px      :     0.019883
      py      :     0.031497

 22 H s       :     0.903863  s :     0.903863
      pz      :     0.012285  p :     0.064292
      px      :     0.021303
      py      :     0.030704

 23 H s       :     0.910202  s :     0.910202
      pz      :     0.023621  p :     0.065945
      px      :     0.018236
      py      :     0.024088

 24 H s       :     0.903506  s :     0.903506
      pz      :     0.016583  p :     0.066328
      px      :     0.034795
      py      :     0.014950

 25 H s       :     0.890399  s :     0.890399
      pz      :     0.045031  p :     0.071950
      px      :     0.012812
      py      :     0.014107

 26 H s       :     0.898795  s :     0.898795
      pz      :     0.021135  p :     0.065897
      px      :     0.031143
      py      :     0.013619

 27 H s       :     0.899890  s :     0.899890
      pz      :     0.016104  p :     0.065857
      px      :     0.034791
      py      :     0.014962

 28 H s       :     0.900345  s :     0.900345
      pz      :     0.040413  p :     0.066027
      px      :     0.011111
      py      :     0.014502

 29 H s       :     0.905314  s :     0.905314
      pz      :     0.021943  p :     0.068527
      px      :     0.031924
      py      :     0.014660

 30 H s       :     0.909671  s :     0.909671
      pz      :     0.012615  p :     0.065407
      px      :     0.031111
      py      :     0.021681

 31 H s       :     0.902779  s :     0.902779
      pz      :     0.016458  p :     0.064223
      px      :     0.014734
      py      :     0.033030

 32 H s       :     0.910877  s :     0.910877
      pz      :     0.025767  p :     0.065553
      px      :     0.022361
      py      :     0.017425

 33 H s       :     0.910233  s :     0.910233
      pz      :     0.013114  p :     0.065448
      px      :     0.032042
      py      :     0.020292

 34 H s       :     0.895571  s :     0.895571
      pz      :     0.037387  p :     0.068495
      px      :     0.018601
      py      :     0.012507

 35 H s       :     0.908689  s :     0.908689
      pz      :     0.015032  p :     0.064278
      px      :     0.013944
      py      :     0.035302

 36 H s       :     0.899376  s :     0.899376
      pz      :     0.033740  p :     0.065951
      px      :     0.019715
      py      :     0.012497

 37 H s       :     0.907165  s :     0.907165
      pz      :     0.014364  p :     0.064219
      px      :     0.014756
      py      :     0.035099

 38 H s       :     0.905523  s :     0.905523
      pz      :     0.026360  p :     0.065890
      px      :     0.024072
      py      :     0.015458



                      *****************************
                      * MAYER POPULATION ANALYSIS *
                      *****************************

  NA   - Mulliken gross atomic population
  ZA   - Total nuclear charge
  QA   - Mulliken gross atomic charge
  VA   - Mayer's total valence
  BVA  - Mayer's bonded valence
  FA   - Mayer's free valence

  ATOM       NA         ZA         QA         VA         BVA        FA
  0 C      5.9756     6.0000     0.0244     3.9009     3.9009    -0.0000
  1 C      6.4053     6.0000    -0.4053     4.1084     4.1084    -0.0000
  2 C      5.9742     6.0000     0.0258     3.8959     3.8959    -0.0000
  3 C      5.9713     6.0000     0.0287     3.8899     3.8899    -0.0000
  4 P     14.4109    15.0000     0.5891     4.5617     4.5617    -0.0000
  5 O      8.4737     8.0000    -0.4737     2.1331     2.1331    -0.0000
  6 C      6.1367     6.0000    -0.1367     3.7787     3.7787    -0.0000
  7 C      5.9893     6.0000     0.0107     3.8855     3.8855    -0.0000
  8 C      5.9941     6.0000     0.0059     3.8159     3.8159    -0.0000
  9 C      5.9923     6.0000     0.0077     3.8229     3.8229    -0.0000
 10 C      6.0047     6.0000    -0.0047     3.8623     3.8623    -0.0000
 11 C      6.0066     6.0000    -0.0066     3.8630     3.8630    -0.0000
 12 C      6.4094     6.0000    -0.4094     4.1166     4.1166    -0.0000
 13 C      5.9673     6.0000     0.0327     3.9017     3.9017    -0.0000
 14 C      5.9652     6.0000     0.0348     3.9006     3.9006    -0.0000
 15 C      5.9735     6.0000     0.0265     3.8972     3.8972    -0.0000
 16 H      0.9464     1.0000     0.0536     1.0117     1.0117    -0.0000
 17 H      0.9687     1.0000     0.0313     0.9985     0.9985    -0.0000
 18 H      0.9748     1.0000     0.0252     0.9957     0.9957    -0.0000
 19 H      0.9463     1.0000     0.0537     1.0226     1.0226    -0.0000
 20 H      0.9646     1.0000     0.0354     1.0013     1.0013    -0.0000
 21 H      0.9766     1.0000     0.0234     0.9926     0.9926    -0.0000
 22 H      0.9745     1.0000     0.0255     0.9955     0.9955     0.0000
 23 H      0.9840     1.0000     0.0160     1.0126     1.0126     0.0000
 24 H      0.9594     1.0000     0.0406     1.0097     1.0097     0.0000
 25 H      0.9736     1.0000     0.0264     1.0241     1.0241    -0.0000
 26 H      0.9908     1.0000     0.0092     0.9798     0.9798    -0.0000
 27 H      0.9920     1.0000     0.0080     0.9788     0.9788     0.0000
 28 H      0.9975     1.0000     0.0025     0.9788     0.9788    -0.0000
 29 H      0.9993     1.0000     0.0007     0.9967     0.9967    -0.0000
 30 H      0.9619     1.0000     0.0381     0.9998     0.9998    -0.0000
 31 H      0.9736     1.0000     0.0264     0.9953     0.9953    -0.0000
 32 H      0.9750     1.0000     0.0250     1.0043     1.0043     0.0000
 33 H      0.9834     1.0000     0.0166     1.0095     1.0095     0.0000
 34 H      0.9438     1.0000     0.0562     1.0268     1.0268     0.0000
 35 H      0.9775     1.0000     0.0225     0.9938     0.9938    -0.0000
 36 H      0.9513     1.0000     0.0487     1.0125     1.0125    -0.0000
 37 H      0.9741     1.0000     0.0259     0.9949     0.9949    -0.0000
 38 H      0.9609     1.0000     0.0391     1.0003     1.0003    -0.0000

  Mayer bond orders larger than 0.100000
B(  0-C ,  1-C ) :   1.0312 B(  0-C , 16-H ) :   0.9492 B(  0-C , 17-H ) :   0.9524 
B(  0-C , 18-H ) :   0.9478 B(  1-C ,  2-C ) :   1.0135 B(  1-C ,  3-C ) :   1.0196 
B(  1-C ,  4-P ) :   0.8604 B(  2-C , 19-H ) :   0.9482 B(  2-C , 20-H ) :   0.9588 
B(  2-C , 21-H ) :   0.9503 B(  3-C , 22-H ) :   0.9457 B(  3-C , 23-H ) :   0.9539 
B(  3-C , 24-H ) :   0.9480 B(  4-P ,  5-O ) :   1.7965 B(  4-P ,  6-C ) :   0.8708 
B(  4-P , 12-C ) :   0.8512 B(  6-C ,  7-C ) :   1.3892 B(  6-C , 11-C ) :   1.3409 
B(  7-C ,  8-C ) :   1.3632 B(  7-C , 25-H ) :   0.9639 B(  8-C ,  9-C ) :   1.3786 
B(  8-C , 26-H ) :   0.9791 B(  9-C , 10-C ) :   1.3756 B(  9-C , 27-H ) :   0.9762 
B( 10-C , 11-C ) :   1.3973 B( 10-C , 28-H ) :   0.9753 B( 11-C , 29-H ) :   0.9631 
B( 12-C , 13-C ) :   1.0195 B( 12-C , 14-C ) :   1.0257 B( 12-C , 15-C ) :   1.0295 
B( 13-C , 30-H ) :   0.9495 B( 13-C , 31-H ) :   0.9414 B( 13-C , 32-H ) :   0.9543 
B( 14-C , 33-H ) :   0.9552 B( 14-C , 34-H ) :   0.9460 B( 14-C , 35-H ) :   0.9517 
B( 15-C , 36-H ) :   0.9527 B( 15-C , 37-H ) :   0.9510 B( 15-C , 38-H ) :   0.9522 


-------
TIMINGS
-------

Total SCF time: 0 days 0 hours 0 min 5 sec 

Total time                  ....       5.322 sec
Sum of individual times     ....       5.245 sec  ( 98.6%)

SCF preparation             ....       0.122 sec  (  2.3%)
Fock matrix formation       ....       4.727 sec  ( 88.8%)
  Startup                   ....       0.021 sec  (  0.4% of F)
  Split-RI-J                ....       1.534 sec  ( 32.5% of F)
  XC integration            ....       3.093 sec  ( 65.4% of F)
    Basis function eval.    ....       0.860 sec  ( 27.8% of XC)
    Density eval.           ....       0.947 sec  ( 30.6% of XC)
    XC-Functional eval.     ....       0.075 sec  (  2.4% of XC)
    XC-Potential eval.      ....       0.669 sec  ( 21.6% of XC)
Diagonalization             ....       0.000 sec  (  0.0%)
Density matrix formation    ....       0.046 sec  (  0.9%)
Total Energy calculation    ....       0.018 sec  (  0.3%)
Population analysis         ....       0.085 sec  (  1.6%)
Orbital Transformation      ....       0.035 sec  (  0.7%)
Orbital Orthonormalization  ....       0.000 sec  (  0.0%)
DIIS solution               ....       0.040 sec  (  0.8%)
SOSCF solution              ....       0.172 sec  (  3.2%)
Finished LeanSCF after   5.4 sec

Maximum memory used throughout the entire LEANSCF-calculation: 39.8 MB


-------------------------------------------------------------------------------
                          DFT DISPERSION CORRECTION                            
                                                                               
                              DFTD3 V3.1  Rev 1                                
                          USING Becke-Johnson damping                          
-------------------------------------------------------------------------------
The BP86 functional is recognized
Active option DFTDOPT                   ...         4   

molecular C6(AA) [au] = 14451.321174 


            DFT-D V3
 parameters
 s6 scaling factor         :     1.0000 
 a1 scaling factor         :     0.3946 
 s8 scaling factor         :     3.2822 
 a2 scaling factor         :     4.8516 
 ad hoc parameters k1-k3   :    16.0000     1.3333    -4.0000 

 Edisp/kcal,au: -54.251179643340  -0.086454748651 
 E6   /kcal   : -20.412821791 
 E8   /kcal   : -33.838357852 
 % E8         :  62.373496898 

-------------------------   ----------------
Dispersion correction           -0.086454749
-------------------------   ----------------


-------------------------   --------------------
FINAL SINGLE POINT ENERGY      -963.498450248901
-------------------------   --------------------

                                *** OPTIMIZATION RUN DONE ***



           ************************************************************
           *        Program running with 6 parallel MPI-processes     *
           *              working on a common directory               *
           ************************************************************

------------------------------------------------------------------------------
                              ORCA PROPERTY CALCULATIONS
------------------------------------------------------------------------------

GBWName                                 ... data/geom_opt_PO_BP86/316378/316378.gbw
Number of atoms                         ...     39
Number of basis functions               ...    343
Max core memory                         ...   1024 MB

Electric properties:
Dipole moment                           ... YES
Quadrupole moment                       ...  NO
Static polarizability (Dipole/Dipole)   ...  NO
Static polarizability (Dipole/Quad.)    ...  NO
Static polarizability (Quad./Quad.)     ...  NO
Static polarizability (Velocity)        ...  NO

Atomic electric properties:
Dipole moment                           ...  NO
Quadrupole moment                       ...  NO
Static polarizability                   ...  NO

Choice of electric origin               ... Center of mass
Position of electric origin             ...     0.616479    -0.021270    -0.253050

General magnetic properties:
Magnetizability                         ...  NO

EPR properties:
g-Tensor (aka g-matrix)                 ...  NO
Zero-Field splitting spin-orbit         ...  NO
Zero-field splitting spin-spin          ...  NO
Hyperfine couplings                     ...  NO (   0 nuclei)
Quadrupole couplings                    ...  NO (   0 nuclei)
Contact density                         ...  NO (   0 nuclei)

NMR properties:
Chemical shifts                         ...  NO (   0 nuclei)
Spin-rotation constants                 ...  NO (   0 nuclei)
Spin-spin couplings                     ...  NO (   0 nuclei,    0 pairs)

Choice of magnetic origin               ... GIAO
Position of magnetic origin             ...     0.000000     0.000000     0.000000

Properties with geometric perturbations:
SCF Hessian                             ...  NO
IR spectrum                             ...  NO
VCD spectrum                            ...  NO
X-ray spectroscopy properties:
SCF XES/XAS/RIXS spectra                ...  NO


-------------
DIPOLE MOMENT
-------------

Method             : SCF
Type of density    : Electron Density
Multiplicity       :   1
Irrep              :   0
Energy             :  -963.4119955002495317 Eh
Relativity type    : 
Basis              : AO
                                X                 Y                 Z
Electronic contribution:     13.175278025      -1.059036170      -2.858718096
Nuclear contribution   :    -13.364403784       0.789727848       4.138485540
                        -----------------------------------------
Total Dipole Moment    :     -0.189125759      -0.269308322       1.279767444
                        -----------------------------------------
Magnitude (a.u.)       :      1.321400861
Magnitude (Debye)      :      3.358734067



--------------------
Rotational spectrum 
--------------------
 
Rotational constants in cm-1:             0.022176             0.013349             0.011535 
Rotational constants in MHz :           664.827231           400.182399           345.808119 

Dipole components along the rotational axes: 
x,y,z [a.u.] :    -0.263307    -0.060363    -1.293494 
x,y,z [Debye]:    -0.669273    -0.153430    -3.287800 

 

Dipole moment calculation done in   0.0 sec 

Maximum memory used throughout the entire PROP-calculation: 19.6 MB

--------------------------------
SUGGESTED CITATIONS FOR THIS RUN
--------------------------------

Below you find a list of papers that are relevant to this ORCA run
We neither can nor want to force you to cite these papers, but we appreciate if you do
You receive ORCA, which is the product of decades of hard work by many enthusiastic individuals, for free
The only thing we kindly ask in return is that you cite our papers,
We deeply appreciate it, if you show your appreciation for ORCA by not just citing the generic ORCA reference.

Please note that relegating all ORCA citations to the supporting information does *not* help us.
SI sections are not indexed - citations you put there will not count into any citation statistics
But we need these citations in order to attract the funding resources that allow us to do what we are doing

Therefore, if you are a happy ORCA user, please consider citing a few of the papers listed below in the main body of your paper

In addition to the list printed below, the program has created the file data/geom_opt_PO_BP86/316378/316378.bibtex that contains the list in bibtex format
You can import this file easily into all common literature databanks and citation aid programs


List of essential papers. We consider these as the minimum necessary citations

  1. Neese,F.
     Software update: the ORCA program system, version 5.0
     WIRES Comput. Molec. Sci., 2022 12(1)e1606
     doi.org/10.1002/wcms.1606

List of papers to cite with high priority. The work reported in these papers was absolutely
necessary for this run to complete.
Our perspective: the developers of density functionals and basis sets usually get cited in chemistry papers
Good! But without the algorithms to do something with them, the functionals or basis sets would not do anything.
Hence, in our opinion, the algorithm design and method developments papers are equally worthy of getting cited

  1. Neese,F.
     An improvement of the resolution of the identity approximation for the formation of the Coulomb matrix
     J. Comp. Chem., 2003 24(14)1740-1747
     doi.org/10.1002/jcc.10318
  2. Neese,F.
     The SHARK Integral Generation and Digestion System
     J. Comp. Chem., 2022  1-16
     doi.org/10.1002/jcc.26942
  3. Grimme,S.; Antony,J.; Ehrlich,S.; Krieg,H.
     A consistent and accurate ab initio parametrization of density functional dispersion correction (DFT-D) for the 94 elements H-Pu
     J. Chem. Phys., 2010 132 154104-XXXX
     doi.org/10.1063/1.3382344
  4. Grimme,S.; Ehrlich,S.; Goerigk,L.
     Effect of the damping function in dispersion corrected density functional theory
     J. Comput. Chem., 2011 32(7)1456-1465
     doi.org/10.1002/jcc.21759

List of suggested additional citations. These are papers that are important in the 'surrounding' of 
of this run, or papers that preceded the highly important papers. If you like your results we are grateful for a citation.

  1. Neese,F.
     The ORCA program system
     WIRES Comput. Molec. Sci., 2012 2(1)73-78
     doi.org/10.1002/wcms.81
  2. Neese,F.
     Software update: the ORCA program system, version 4.0
     WIRES Comput. Molec. Sci., 2018 8(1)1-6
     doi.org/10.1002/wcms.1327
  3. Neese,F.; Wennmohs,F.; Becker,U.; Riplinger,C.
     The ORCA quantum chemistry program package
     J. Chem. Phys., 2020 152 Art. No. L224108
     doi.org/10.1063/5.0004608

List of optional additional citations

  1. Neese,F.
     Approximate second-order SCF convergence for spin unrestricted wavefunctions
     Chem. Phys. Lett., 2000 325(1-3)93-98
     doi.org/10.1016/s0009-2614(00)00662-x

Timings for individual modules:

Sum of individual times          ...      168.678 sec (=   2.811 min)
Startup calculation              ...       12.758 sec (=   0.213 min)   7.6 %
SCF iterations                   ...      100.912 sec (=   1.682 min)  59.8 %
Property calculations            ...        0.174 sec (=   0.003 min)   0.1 %
SCF Gradient evaluation          ...       54.669 sec (=   0.911 min)  32.4 %
Geometry relaxation              ...        0.165 sec (=   0.003 min)   0.1 %
                             ****ORCA TERMINATED NORMALLY****
TOTAL RUN TIME: 0 days 0 hours 2 minutes 50 seconds 611 msec
