
                                 *****************
                                 * O   R   C   A *
                                 *****************

                                            #,                                       
                                            ###                                      
                                            ####                                     
                                            #####                                    
                                            ######                                   
                                           ########,                                 
                                     ,,################,,,,,                         
                               ,,#################################,,                 
                          ,,##########################################,,             
                       ,#########################################, ''#####,          
                    ,#############################################,,   '####,        
                  ,##################################################,,,,####,       
                ,###########''''           ''''###############################       
              ,#####''   ,,,,##########,,,,          '''####'''          '####       
            ,##' ,,,,###########################,,,                        '##       
           ' ,,###''''                  '''############,,,                           
         ,,##''                                '''############,,,,        ,,,,,,###''
      ,#''                                            '''#######################'''  
     '                                                          ''''####''''         
             ,#######,   #######,   ,#######,      ##                                
            ,#'     '#,  ##    ##  ,#'     '#,    #''#        ,####,   ,####,        
            ##       ##  ##   ,#'  ##            #'  '#       #'       #'  '#        
            ##       ##  #######   ##           ,######,      #####,   #    #        
            '#,     ,#'  ##    ##  '#,     ,#' ,#      #,     #,   #   #,  ,#        
             '#######'   ##     ##  '#######'  #'      '#     '####' # '####'        



                #########################################################
                #                        -***-                          #
                #          Department of theory and spectroscopy        #
                #                                                       #
                #                      Frank Neese                      #
                #                                                       #
                #     Directorship, Architecture, Infrastructure        #
                #                    SHARK, DRIVERS                     #
                #        Core code/Algorithms in most modules           #
                #                                                       #
                #        Max Planck Institute fuer Kohlenforschung      #
                #                Kaiser Wilhelm Platz 1                 #
                #                 D-45470 Muelheim/Ruhr                 #
                #                      Germany                          #
                #                                                       #
                #                  All rights reserved                  #
                #                        -***-                          #
                #########################################################


                         Program Version 6.0.0  -   RELEASE   -


 With contributions from (in alphabetic order):
   Daniel Aravena         : Magnetic Suceptibility
   Michael Atanasov       : Ab Initio Ligand Field Theory (pilot matlab implementation)
   Alexander A. Auer      : GIAO ZORA, VPT2 properties, NMR spectrum
   Ute Becker             : All parallelization in ORCA, NUMFREQ, NUMCALC
   Giovanni Bistoni       : ED, misc. LED, open-shell LED, HFLD
   Martin Brehm           : Molecular dynamics
   Dmytro Bykov           : pre 5.0 version of the SCF Hessian
   Marcos Casanova-Páez   : Triplet and SCS-CIS(D). UHF-(DLPNO)-IP/EA/STEOM-CCSD. UHF-CVS-IP/STEOM-CCSD
   Vijay G. Chilkuri      : MRCI spin determinant printing, contributions to CSF-ICE
   Pauline Colinet        : FMM embedding
   Dipayan Datta          : RHF DLPNO-CCSD density
   Achintya Kumar Dutta   : EOM-CC, STEOM-CC
   Nicolas Foglia         : Exact transition moments, OPA infrastructure, MCD improvements
   Dmitry Ganyushin       : Spin-Orbit,Spin-Spin,Magnetic field MRCI
   Miquel Garcia          : C-PCM and meta-GGA Hessian, CCSD/C-PCM, Gaussian charge scheme
   Tiago L. C. Gouveia    : GS-ROHF, GS-ROCIS
   Yang Guo               : DLPNO-NEVPT2, F12-NEVPT2, CIM, IAO-localization
   Andreas Hansen         : Spin unrestricted coupled pair/coupled cluster methods
   Ingolf Harden          : AUTO-CI MPn and infrastructure 
   Benjamin Helmich-Paris : MC-RPA, TRAH-(SCF,CASSCF), AVAS, COSX integrals, SCF dyn. polar.
   Lee Huntington         : MR-EOM, pCC
   Robert Izsak           : Overlap fitted RIJCOSX, COSX-SCS-MP3, EOM
   Riya Kayal             : Wick's Theorem for AUTO-CI, AUTO-CI UHF-CCSDT
   Emily Kempfer          : AUTO-CI, RHF CISDT and CCSDT
   Christian Kollmar      : KDIIS, OOCD, Brueckner-CCSD(T), CCSD density, CASPT2, CASPT2-K, improved NEVPT2
   Axel Koslowski         : Symmetry handling
   Simone Kossmann        : Meta GGA functionals, TD-DFT gradient, OOMP2, (MP2 Hessian; deprecated post 5.0)
   Lucas Lang             : DCDCAS
   Marvin Lechner         : AUTO-CI (C++ implementation), FIC-MRCC
   Spencer Leger          : CASSCF response
   Dagmar Lenk            : GEPOL surface, SMD, ORCA-2-JSON
   Dimitrios Liakos       : Extrapolation schemes; Compound Job, initial MDCI parallelization
   Dimitrios Manganas     : Further ROCIS development; embedding schemes. LFT, Crystal Embedding
   Dimitrios Pantazis     : SARC Basis sets
   Anastasios Papadopoulos: AUTO-CI, single reference methods and gradients
   Taras Petrenko         : pre 6.0 DFT Hessian and TD-DFT gradient, (ASA, deprecated), ECA, 1-Electron XAS/XES, NRVS
   Peter Pinski           : DLPNO-MP2, DLPNO-MP2 Gradient
   Christoph Reimann      : Effective Core Potentials
   Marius Retegan         : Local ZFS, SOC
   Christoph Riplinger    : Optimizer, TS searches, QM/MM, DLPNO-CCSD(T), (RO)-DLPNO pert. Triples
   Michael Roemelt        : Original ROCIS implementation
   Masaaki Saitow         : Open-shell DLPNO-CCSD energy and density
   Barbara Sandhoefer     : DKH picture change effects
   Kantharuban Sivalingam : CASSCF convergence/infrastructure, NEVPT2 and variants, FIC-MRCI
   Bernardo de Souza      : ESD, SOC TD-DFT
   Georgi Stoychev        : AutoAux, RI-MP2 NMR, DLPNO-MP2 response, X2C
   Van Anh Tran           : RI-MP2 g-tensors
   Willem Van den Heuvel  : Paramagnetic NMR
   Zikuan Wang            : NOTCH, Electric field optimization 
   Frank Wennmohs         : Technical directorship and infrastructure
   Hang Xu                : AUTO-CI-Response properties 


 We gratefully acknowledge several colleagues who have allowed us to
 interface, adapt or use parts of their codes:
   Stefan Grimme, W. Hujo, H. Kruse, P. Pracht,  : VdW corrections, initial TS optimization,
                  C. Bannwarth, S. Ehlert,         DFT functionals, gCP, sTDA/sTD-DF
                  L. Wittmann, M. Mueller
   Ed Valeev, F. Pavosevic, A. Kumar             : LibInt (2-el integral package), F12 methods
   Garnet Chan, S. Sharma, J. Yang, R. Olivares  : DMRG
   Ulf Ekstrom                                   : XCFun DFT Library
   Mihaly Kallay                                 : mrcc  (arbitrary order and MRCC methods)
   Frank Weinhold                                : gennbo (NPA and NBO analysis)
   Simon Mueller                                 : openCOSMO-RS
   Christopher J. Cramer and Donald G. Truhlar   : smd solvation model
   Lars Goerigk                                  : TD-DFT with DH, B97 family of functionals
   V. Asgeirsson, H. Jonsson                     : NEB implementation
   FAccTs GmbH                                   : IRC, NEB, NEB-TS, DLPNO-Multilevel, CI-OPT
                                                   MM, QMMM, 2- and 3-layer-ONIOM, Crystal-QMMM,
                                                   LR-CPCM, SF, NACMEs, symmetry and pop. for TD-DFT,
                                                   nearIR, NL-DFT gradient (VV10), updates on ESD,
                                                   ML-optimized integration grids, MBIS, APM,
                                                   GOAT, DOCKER, SOLVATOR, interface openCOSMO-RS
   S Lehtola, MJT Oliveira, MAL Marques          : LibXC Library
   Liviu Ungur et al                             : ANISO software


 Your calculation uses the libint2 library for the computation of 2-el integrals
 For citations please refer to: http://libint.valeyev.net

 Your ORCA version has been built with support for libXC version: 6.2.2
 For citations please refer to: https://libxc.gitlab.io

 This ORCA versions uses:
   CBLAS   interface :  Fast vector & matrix operations
   LAPACKE interface :  Fast linear algebra routines
   Shared memory     :  Shared parallel matrices


Your calculation utilizes the atom-pairwise dispersion correction
with the Becke-Johnson damping scheme (D3BJ)


Warning: RI is on but no J-basis has been assigned. Assigning Def2/J (nothing to worry about!)
================================================================================

----- Orbital basis set information -----
Your calculation utilizes the basis: def2-SVP
   F. Weigend and R. Ahlrichs, Phys. Chem. Chem. Phys. 7, 3297 (2005).

----- AuxJ basis set information -----
Your calculation utilizes the auxiliary basis: def2/J
   F. Weigend, Phys. Chem. Chem. Phys. 8, 1057 (2006).

================================================================================
                                        WARNINGS
                       Please study these warnings very carefully!
================================================================================


WARNING: Geometry Optimization
  ===> : Switching off AutoStart
         For restart on a previous wavefunction, please use MOREAD

================================================================================
                                       INPUT FILE
================================================================================
NAME = data/geom_opt/521585/521585.inp
|  1> ! RIJONX B3LYP def2-SVP D3BJ TIGHTSCF Opt
|  2> %pal
|  3> nprocs 6
|  4> end
|  5> 
|  6> * xyz 0 1
|  7> C     -2.022785   -3.131530    0.450272
|  8> C     -2.577902   -2.139038    1.220651
|  9> O     -2.151621   -0.920613    0.803259
| 10> C     -1.292239   -1.123078   -0.238889
| 11> C     -1.200504   -2.476163   -0.498883
| 12> P     -0.461086    0.207899   -1.182809
| 13> C      1.304306   -0.271761   -1.101444
| 14> C      2.378981    0.555500   -1.361374
| 15> C      3.546824   -0.231993   -1.211236
| 16> C      3.113879   -1.493994   -0.884748
| 17> O      1.758896   -1.530477   -0.828340
| 18> C     -0.551128    1.637896   -0.042501
| 19> C     -1.704095    2.157662    0.511900
| 20> C     -1.314272    3.268942    1.299072
| 21> C      0.049028    3.369255    1.164798
| 22> O      0.517618    2.394774    0.345468
| 23> H     -2.188672   -4.193883    0.557983
| 24> H     -3.260715   -2.133182    2.058589
| 25> H     -0.603195   -2.939074   -1.272796
| 26> H      2.330000    1.605274   -1.617467
| 27> H      4.574207    0.082441   -1.326692
| 28> H      3.615480   -2.427945   -0.673706
| 29> H     -2.706924    1.775733    0.375987
| 30> H     -1.948595    3.914433    1.889572
| 31> H      0.794513    4.042924    1.563334
| 32> **                         ****END OF INPUT****
================================================================================

                       *****************************
                       * Geometry Optimization Run *
                       *****************************

Geometry optimization settings:
Update method            Update   .... BFGS
Choice of coordinates    CoordSys .... (2022) Redundant Internals
Initial Hessian          InHess   .... Almloef's Model
Max. no of cycles        MaxIter  .... 75

Convergence Tolerances:
Energy Change            TolE     ....  5.0000e-06 Eh
Max. Gradient            TolMAXG  ....  3.0000e-04 Eh/bohr
RMS Gradient             TolRMSG  ....  1.0000e-04 Eh/bohr
Max. Displacement        TolMAXD  ....  4.0000e-03 bohr
RMS Displacement         TolRMSD  ....  2.0000e-03 bohr
Strict Convergence                .... False

------------------------------------------------------------------------------
                        ORCA OPTIMIZATION COORDINATE SETUP
------------------------------------------------------------------------------

The optimization will be done in redundant internal coordinates (2022)
Making redundant internal coordinates   ...  (2022 redundants) done
Evaluating the initial hessian          ...  (Almloef) done
Evaluating the coordinates              ...  done
Calculating the B-matrix                .... done
Calculating the G-matrix                .... done
Diagonalizing the G-matrix              .... done
Small eigenvalue found = 7.811e-03
Small eigenvalue found = 7.811e-03
Small eigenvalue found = 2.983e-02
The first mode is                       ....   60
The number of degrees of freedom        ....   69

    -----------------------------------------------------------------
                    Redundant Internal Coordinates


    -----------------------------------------------------------------
         Definition                    Initial Value    Approx d2E/dq
    -----------------------------------------------------------------
      1. B(C   1,C   0)                  1.3736         0.663683   
      2. B(O   2,C   1)                  1.3566         0.632540   
      3. B(C   3,O   2)                  1.3659         0.611467   
      4. B(C   4,C   3)                  1.3809         0.646065   
      5. B(C   4,C   0)                  1.4165         0.566784   
      6. B(P   5,C   3)                  1.8312         0.415263   
      7. B(C   6,P   5)                  1.8312         0.415262   
      8. B(C   7,C   6)                  1.3809         0.646066   
      9. B(C   8,C   7)                  1.4165         0.566786   
     10. B(C   9,C   8)                  1.3736         0.663680   
     11. B(O  10,C   9)                  1.3566         0.632539   
     12. B(O  10,C   6)                  1.3659         0.611465   
     13. B(C  11,P   5)                  1.8312         0.415262   
     14. B(C  12,C  11)                  1.3809         0.646066   
     15. B(C  13,C  12)                  1.4165         0.566785   
     16. B(C  14,C  13)                  1.3736         0.663683   
     17. B(O  15,C  14)                  1.3566         0.632540   
     18. B(O  15,C  11)                  1.3659         0.611466   
     19. B(H  16,C   0)                  1.0806         0.372741   
     20. B(H  17,C   1)                  1.0809         0.372302   
     21. B(H  18,C   4)                  1.0817         0.371292   
     22. B(H  19,C   7)                  1.0817         0.371291   
     23. B(H  20,C   8)                  1.0806         0.372741   
     24. B(H  21,C   9)                  1.0809         0.372302   
     25. B(H  22,C  12)                  1.0817         0.371291   
     26. B(H  23,C  13)                  1.0806         0.372741   
     27. B(H  24,C  14)                  1.0809         0.372301   
     28. A(C   1,C   0,H  16)          126.3285         0.359108   
     29. A(C   1,C   0,C   4)          106.0282         0.432379   
     30. A(C   4,C   0,H  16)          127.6433         0.349630   
     31. A(C   0,C   1,O   2)          110.4508         0.438120   
     32. A(C   0,C   1,H  17)          133.9467         0.359036   
     33. A(O   2,C   1,H  17)          115.6024         0.353917   
     34. A(C   1,O   2,C   3)          107.4165         0.428885   
     35. A(O   2,C   3,P   5)          124.8292         0.427040   
     36. A(O   2,C   3,C   4)          109.3113         0.433350   
     37. A(C   4,C   3,P   5)          125.8026         0.434117   
     38. A(C   3,C   4,H  18)          126.2095         0.357232   
     39. A(C   0,C   4,H  18)          127.0110         0.349400   
     40. A(C   0,C   4,C   3)          106.7754         0.430294   
     41. A(C   3,P   5,C   6)          102.9608         0.427793   
     42. A(C   3,P   5,C  11)          102.9608         0.427794   
     43. A(C   6,P   5,C  11)          102.9608         0.427793   
     44. A(C   7,C   6,O  10)          109.3113         0.433349   
     45. A(P   5,C   6,O  10)          124.8292         0.427040   
     46. A(P   5,C   6,C   7)          125.8027         0.434117   
     47. A(C   6,C   7,H  19)          126.2094         0.357232   
     48. A(C   6,C   7,C   8)          106.7755         0.430294   
     49. A(C   8,C   7,H  19)          127.0109         0.349400   
     50. A(C   7,C   8,C   9)          106.0281         0.432379   
     51. A(C   9,C   8,H  20)          126.3285         0.359108   
     52. A(C   7,C   8,H  20)          127.6434         0.349630   
     53. A(C   8,C   9,O  10)          110.4507         0.438120   
     54. A(O  10,C   9,H  21)          115.6024         0.353917   
     55. A(C   8,C   9,H  21)          133.9467         0.359036   
     56. A(C   6,O  10,C   9)          107.4165         0.428884   
     57. A(C  12,C  11,O  15)          109.3113         0.433350   
     58. A(P   5,C  11,O  15)          124.8292         0.427040   
     59. A(P   5,C  11,C  12)          125.8026         0.434117   
     60. A(C  11,C  12,C  13)          106.7754         0.430294   
     61. A(C  13,C  12,H  22)          127.0110         0.349400   
     62. A(C  11,C  12,H  22)          126.2094         0.357232   
     63. A(C  12,C  13,C  14)          106.0282         0.432379   
     64. A(C  14,C  13,H  23)          126.3284         0.359108   
     65. A(C  12,C  13,H  23)          127.6434         0.349630   
     66. A(C  13,C  14,O  15)          110.4507         0.438120   
     67. A(O  15,C  14,H  24)          115.6024         0.353917   
     68. A(C  13,C  14,H  24)          133.9467         0.359036   
     69. A(C  11,O  15,C  14)          107.4165         0.428884   
     70. D(O   2,C   1,C   0,H  16)   -179.8763         0.030761   
     71. D(H  17,C   1,C   0,C   4)   -179.9960         0.030761   
     72. D(H  17,C   1,C   0,H  16)     -0.0061         0.030761   
     73. D(O   2,C   1,C   0,C   4)      0.1338         0.030761   
     74. D(C   3,O   2,C   1,H  17)    179.1857         0.029443   
     75. D(C   3,O   2,C   1,C   0)     -0.9179         0.029443   
     76. D(P   5,C   3,O   2,C   1)    178.7477         0.027377   
     77. D(C   4,C   3,O   2,C   1)      1.3600         0.027377   
     78. D(H  18,C   4,C   3,O   2)    179.4269         0.029038   
     79. D(C   0,C   4,C   3,P   5)   -178.6287         0.029038   
     80. D(H  18,C   4,C   0,H  16)     -0.0052         0.022026   
     81. D(C   0,C   4,C   3,O   2)     -1.2726         0.029038   
     82. D(H  18,C   4,C   0,C   1)    179.9845         0.022026   
     83. D(C   3,C   4,C   0,C   1)      0.6913         0.022026   
     84. D(C   3,C   4,C   0,H  16)   -179.2984         0.022026   
     85. D(H  18,C   4,C   3,P   5)      2.0709         0.029038   
     86. D(C  11,P   5,C   3,C   4)   -162.6682         0.003642   
     87. D(C  11,P   5,C   3,O   2)     20.3719         0.003642   
     88. D(C   6,P   5,C   3,C   4)    -55.8622         0.003642   
     89. D(C   6,P   5,C   3,O   2)    127.1779         0.003642   
     90. D(O  10,C   6,P   5,C  11)    127.1780         0.003642   
     91. D(O  10,C   6,P   5,C   3)     20.3720         0.003642   
     92. D(C   7,C   6,P   5,C  11)    -55.8622         0.003642   
     93. D(C   7,C   6,P   5,C   3)   -162.6682         0.003642   
     94. D(H  19,C   7,C   6,O  10)    179.4270         0.029038   
     95. D(H  19,C   7,C   6,P   5)      2.0710         0.029038   
     96. D(C   8,C   7,C   6,O  10)     -1.2727         0.029038   
     97. D(C   8,C   7,C   6,P   5)   -178.6287         0.029038   
     98. D(H  20,C   8,C   7,C   6)   -179.2984         0.022026   
     99. D(C   9,C   8,C   7,H  19)    179.9843         0.022026   
    100. D(C   9,C   8,C   7,C   6)      0.6913         0.022026   
    101. D(H  20,C   8,C   7,H  19)     -0.0054         0.022026   
    102. D(H  21,C   9,C   8,H  20)     -0.0060         0.030761   
    103. D(H  21,C   9,C   8,C   7)   -179.9959         0.030761   
    104. D(O  10,C   9,C   8,H  20)   -179.8762         0.030761   
    105. D(O  10,C   9,C   8,C   7)      0.1339         0.030761   
    106. D(C   6,O  10,C   9,H  21)    179.1855         0.029442   
    107. D(C   6,O  10,C   9,C   8)     -0.9181         0.029442   
    108. D(C   9,O  10,C   6,C   7)      1.3602         0.027377   
    109. D(C   9,O  10,C   6,P   5)    178.7478         0.027377   
    110. D(O  15,C  11,P   5,C   6)     20.3719         0.003642   
    111. D(O  15,C  11,P   5,C   3)    127.1779         0.003642   
    112. D(C  12,C  11,P   5,C   6)   -162.6684         0.003642   
    113. D(C  12,C  11,P   5,C   3)    -55.8624         0.003642   
    114. D(H  22,C  12,C  11,O  15)    179.4268         0.029038   
    115. D(H  22,C  12,C  11,P   5)      2.0710         0.029038   
    116. D(C  13,C  12,C  11,O  15)     -1.2729         0.029038   
    117. D(C  13,C  12,C  11,P   5)   -178.6287         0.029038   
    118. D(H  23,C  13,C  12,H  22)     -0.0054         0.022026   
    119. D(H  23,C  13,C  12,C  11)   -179.2984         0.022026   
    120. D(C  14,C  13,C  12,H  22)    179.9844         0.022026   
    121. D(C  14,C  13,C  12,C  11)      0.6914         0.022026   
    122. D(H  24,C  14,C  13,H  23)     -0.0063         0.030761   
    123. D(H  24,C  14,C  13,C  12)   -179.9963         0.030761   
    124. D(O  15,C  14,C  13,H  23)   -179.8761         0.030761   
    125. D(O  15,C  14,C  13,C  12)      0.1339         0.030761   
    126. D(C  11,O  15,C  14,H  24)    179.1857         0.029442   
    127. D(C  11,O  15,C  14,C  13)     -0.9182         0.029442   
    128. D(C  14,O  15,C  11,C  12)      1.3604         0.027377   
    129. D(C  14,O  15,C  11,P   5)    178.7479         0.027377   
    -----------------------------------------------------------------

Number of atoms                         .... 25
Number of degrees of freedom            .... 129


         *************************************************************
         *                GEOMETRY OPTIMIZATION CYCLE   1            *
         *************************************************************
---------------------------------
CARTESIAN COORDINATES (ANGSTROEM)
---------------------------------
  C     -2.022785   -3.131530    0.450272
  C     -2.577902   -2.139038    1.220651
  O     -2.151621   -0.920613    0.803259
  C     -1.292239   -1.123078   -0.238889
  C     -1.200504   -2.476163   -0.498883
  P     -0.461086    0.207899   -1.182809
  C      1.304306   -0.271761   -1.101444
  C      2.378981    0.555500   -1.361374
  C      3.546824   -0.231993   -1.211236
  C      3.113879   -1.493994   -0.884748
  O      1.758896   -1.530477   -0.828340
  C     -0.551128    1.637896   -0.042501
  C     -1.704095    2.157662    0.511900
  C     -1.314272    3.268942    1.299072
  C      0.049028    3.369255    1.164798
  O      0.517618    2.394774    0.345468
  H     -2.188672   -4.193883    0.557983
  H     -3.260715   -2.133182    2.058589
  H     -0.603195   -2.939074   -1.272796
  H      2.330000    1.605274   -1.617467
  H      4.574207    0.082441   -1.326692
  H      3.615480   -2.427945   -0.673706
  H     -2.706924    1.775733    0.375987
  H     -1.948595    3.914433    1.889572
  H      0.794513    4.042924    1.563334

----------------------------
CARTESIAN COORDINATES (A.U.)
----------------------------
  NO LB      ZA    FRAG     MASS         X           Y           Z
   0 C     6.0000    0    12.011   -3.822510   -5.917734    0.850891
   1 C     6.0000    0    12.011   -4.871529   -4.042196    2.306696
   2 O     8.0000    0    15.999   -4.065974   -1.739706    1.517940
   3 C     6.0000    0    12.011   -2.441978   -2.122310   -0.451435
   4 C     6.0000    0    12.011   -2.268624   -4.679270   -0.942752
   5 P    15.0000    0    30.974   -0.871326    0.392872   -2.235185
   6 C     6.0000    0    12.011    2.464781   -0.513554   -2.081428
   7 C     6.0000    0    12.011    4.495623    1.049743   -2.572624
   8 C     6.0000    0    12.011    6.702526   -0.438403   -2.288904
   9 C     6.0000    0    12.011    5.884379   -2.823240   -1.671931
  10 O     8.0000    0    15.999    3.323832   -2.892182   -1.565336
  11 C     6.0000    0    12.011   -1.041481    3.095175   -0.080315
  12 C     6.0000    0    12.011   -3.220273    4.077390    0.967351
  13 C     6.0000    0    12.011   -2.483614    6.177405    2.454890
  14 C     6.0000    0    12.011    0.092649    6.366969    2.201149
  15 O     8.0000    0    15.999    0.978156    4.525467    0.652840
  16 H     1.0000    0     1.008   -4.135991   -7.925290    1.054435
  17 H     1.0000    0     1.008   -6.161858   -4.031130    3.890169
  18 H     1.0000    0     1.008   -1.139873   -5.554045   -2.405236
  19 H     1.0000    0     1.008    4.403062    3.033528   -3.056570
  20 H     1.0000    0     1.008    8.643999    0.155791   -2.507085
  21 H     1.0000    0     1.008    6.832267   -4.588151   -1.273120
  22 H     1.0000    0     1.008   -5.115345    3.355649    0.710512
  23 H     1.0000    0     1.008   -3.682311    7.397206    3.570774
  24 H     1.0000    0     1.008    1.501412    7.640019    2.954273

--------------------------------
INTERNAL COORDINATES (ANGSTROEM)
--------------------------------
 C      0   0   0     0.000000000000     0.00000000     0.00000000
 C      1   0   0     1.373564362305     0.00000000     0.00000000
 O      2   1   0     1.356646989180   110.45077126     0.00000000
 C      3   2   1     1.365870400899   107.41653497   359.08207434
 C      4   3   2     1.380887833057   109.31133734     1.36001370
 P      4   3   2     1.831201804919   124.82918997   178.74771288
 C      6   4   3     1.831202580953   102.96078733   127.17788590
 C      7   6   4     1.380887657504   125.80267382   197.33181950
 C      8   7   6     1.416525296894   106.77551939   181.37132471
 C      9   8   7     1.373565546732   106.02813892     0.69130501
 O     10   9   8     1.356647265151   110.45074944     0.13392011
 C      6   4   3     1.831202150675   102.96083484    20.37191890
 C     12   6   4     1.380887419975   125.80262747   304.13759275
 C     13  12   6     1.416525667721   106.77543801   181.37127210
 C     14  13  12     1.373564376010   106.02819068     0.69140566
 O     15  14  13     1.356647137748   110.45074072     0.13392545
 H      1   2   3     1.080608186578   126.32853505   180.12367951
 H      2   1   3     1.080929219491   133.94668492   179.87017646
 H      5   4   3     1.081668140869   126.20947648   179.42692881
 H      8   7   6     1.081669179595   126.20943574     2.07098706
 H      9   8   7     1.080608466088   127.64339699   180.70161507
 H     10   9   8     1.080928656002   133.94672803   180.00409130
 H     13  12   6     1.081669130488   126.20944703     2.07095522
 H     14  13  12     1.080608416315   127.64336248   180.70160667
 H     15  14  13     1.080929576837   133.94674438   180.00371442

---------------------------
INTERNAL COORDINATES (A.U.)
---------------------------
 C      0   0   0     0.000000000000     0.00000000     0.00000000
 C      1   0   0     2.595660472070     0.00000000     0.00000000
 O      2   1   0     2.563691269958   110.45077126     0.00000000
 C      3   2   1     2.581120992129   107.41653497   359.08207434
 C      4   3   2     2.609499826142   109.31133734     1.36001370
 P      4   3   2     3.460469907239   124.82918997   178.74771288
 C      6   4   3     3.460471373731   102.96078733   127.17788590
 C      7   6   4     2.609499494394   125.80267382   197.33181950
 C      8   7   6     2.676844872902   106.77551939   181.37132471
 C      9   8   7     2.595662710314   106.02813892     0.69130501
 O     10   9   8     2.563691791469   110.45074944     0.13392011
 C      6   4   3     3.460470560623   102.96083484    20.37191890
 C     12   6   4     2.609499045530   125.80262747   304.13759275
 C     13  12   6     2.676845573663   106.77543801   181.37127210
 C     14  13  12     2.595660497970   106.02819068     0.69140566
 O     15  14  13     2.563691550713   110.45074072     0.13392545
 H      1   2   3     2.042053530705   126.32853505   180.12367951
 H      2   1   3     2.042660194991   133.94668492   179.87017646
 H      5   4   3     2.044056554030   126.20947648   179.42692881
 H      8   7   6     2.044058516938   126.20943574     2.07098706
 H      9   8   7     2.042054058903   127.64339699   180.70161507
 H     10   9   8     2.042659130151   133.94672803   180.00409130
 H     13  12   6     2.044058424139   126.20944703     2.07095522
 H     14  13  12     2.042053964845   127.64336248   180.70160667
 H     15  14  13     2.042660870278   133.94674438   180.00371442

---------------------
BASIS SET INFORMATION
---------------------
There are 4 groups of distinct atoms

 Group   1 Type C   : 7s4p1d contracted to 3s2p1d pattern {511/31/1}
 Group   2 Type O   : 7s4p1d contracted to 3s2p1d pattern {511/31/1}
 Group   3 Type P   : 10s7p1d contracted to 4s3p1d pattern {5311/511/1}
 Group   4 Type H   : 4s1p contracted to 2s1p pattern {31/1}

Atom   0C    basis set group =>   1
Atom   1C    basis set group =>   1
Atom   2O    basis set group =>   2
Atom   3C    basis set group =>   1
Atom   4C    basis set group =>   1
Atom   5P    basis set group =>   3
Atom   6C    basis set group =>   1
Atom   7C    basis set group =>   1
Atom   8C    basis set group =>   1
Atom   9C    basis set group =>   1
Atom  10O    basis set group =>   2
Atom  11C    basis set group =>   1
Atom  12C    basis set group =>   1
Atom  13C    basis set group =>   1
Atom  14C    basis set group =>   1
Atom  15O    basis set group =>   2
Atom  16H    basis set group =>   4
Atom  17H    basis set group =>   4
Atom  18H    basis set group =>   4
Atom  19H    basis set group =>   4
Atom  20H    basis set group =>   4
Atom  21H    basis set group =>   4
Atom  22H    basis set group =>   4
Atom  23H    basis set group =>   4
Atom  24H    basis set group =>   4
---------------------------------
AUXILIARY/J BASIS SET INFORMATION
---------------------------------
There are 4 groups of distinct atoms

 Group   1 Type C   : 12s5p4d2f1g contracted to 6s4p3d1f1g pattern {711111/2111/211/2/1}
 Group   2 Type O   : 12s5p4d2f1g contracted to 6s4p3d1f1g pattern {711111/2111/211/2/1}
 Group   3 Type P   : 14s5p5d2f1g contracted to 8s4p3d1f1g pattern {71111111/2111/311/2/1}
 Group   4 Type H   : 5s2p1d contracted to 3s1p1d pattern {311/2/1}

Atom   0C    basis set group =>   1
Atom   1C    basis set group =>   1
Atom   2O    basis set group =>   2
Atom   3C    basis set group =>   1
Atom   4C    basis set group =>   1
Atom   5P    basis set group =>   3
Atom   6C    basis set group =>   1
Atom   7C    basis set group =>   1
Atom   8C    basis set group =>   1
Atom   9C    basis set group =>   1
Atom  10O    basis set group =>   2
Atom  11C    basis set group =>   1
Atom  12C    basis set group =>   1
Atom  13C    basis set group =>   1
Atom  14C    basis set group =>   1
Atom  15O    basis set group =>   2
Atom  16H    basis set group =>   4
Atom  17H    basis set group =>   4
Atom  18H    basis set group =>   4
Atom  19H    basis set group =>   4
Atom  20H    basis set group =>   4
Atom  21H    basis set group =>   4
Atom  22H    basis set group =>   4
Atom  23H    basis set group =>   4
Atom  24H    basis set group =>   4


           ************************************************************
           *        Program running with 6 parallel MPI-processes     *
           *              working on a common directory               *
           ************************************************************
------------------------------------------------------------------------------
                             ORCA STARTUP CALCULATIONS
                           -- RI-GTO INTEGRALS CHOSEN --
------------------------------------------------------------------------------
------------------------------------------------------------------------------
                   ___                                                        
                  /   \      - P O W E R E D   B Y -                         
                 /     \                                                     
                 |  |  |   _    _      __       _____    __    __             
                 |  |  |  | |  | |    /  \     |  _  \  |  |  /  |          
                  \  \/   | |  | |   /    \    | | | |  |  | /  /          
                 / \  \   | |__| |  /  /\  \   | |_| |  |  |/  /          
                |  |  |   |  __  | /  /__\  \  |    /   |      \           
                |  |  |   | |  | | |   __   |  |    \   |  |\   \          
                \     /   | |  | | |  |  |  |  | |\  \  |  | \   \       
                 \___/    |_|  |_| |__|  |__|  |_| \__\ |__|  \__/        
                                                                              
                      - O R C A' S   B I G   F R I E N D -                    
                                      &                                       
                       - I N T E G R A L  F E E D E R -                       
                                                                              
 v1 FN, 2020, v2 2021, v3 2022-2024                                           
------------------------------------------------------------------------------


----------------------
SHARK INTEGRAL PACKAGE
----------------------

Number of atoms                             ...     25
Number of basis functions                   ...    273
Number of shells                            ...    125
Maximum angular momentum                    ...      2
Integral batch strategy                     ... SHARK/LIBINT Hybrid
RI-J (if used) integral strategy            ... SPLIT-RIJ (Revised 2003 algorithm where possible)
Printlevel                                  ...      1
Contraction scheme used                     ... SEGMENTED contraction
Prescreening option                         ... SCHWARTZ
   Thresh                                   ... 2.500e-11
   Tcut                                     ... 2.500e-12
   Tpresel                                  ... 2.500e-12 
Coulomb Range Separation                    ... NOT USED
Exchange Range Separation                   ... NOT USED
Multipole approximations                    ... NOT USED
Finite Nucleus Model                        ... NOT USED
CABS basis                                  ... NOT available
Auxiliary Coulomb fitting basis             ... AVAILABLE
   # of basis functions in Aux-J            ...    885
   # of shells in Aux-J                     ...    287
   Maximum angular momentum in Aux-J        ...      4
Auxiliary J/K fitting basis                 ... NOT available
Auxiliary Correlation fitting basis         ... NOT available
Auxiliary 'external' fitting basis          ... NOT available

Checking pre-screening integrals            ... done (  0.0 sec) Dimension = 125
Check shell pair data                       ... done (  0.0 sec)
Shell pair information
Shell pair cut-off parameter TPreSel        ...   2.5e-12
Total number of shell pairs                 ...      7875
Shell pairs after pre-screening             ...      6336
Total number of primitive shell pairs       ...     29891
Primitive shell pairs kept                  ...     15793
          la=0 lb=0:   1843 shell pairs
          la=1 lb=0:   2314 shell pairs
          la=1 lb=1:    769 shell pairs
          la=2 lb=0:    799 shell pairs
          la=2 lb=1:    517 shell pairs
          la=2 lb=2:     94 shell pairs

Calculating one electron integrals          ... done (  0.0 sec)
Calculating RI/J V-Matrix + Cholesky decomp.... done (  0.0 sec)
Calculating Nuclear repulsion               ... done (  0.0 sec) ENN=   1151.659586735915 Eh

Diagonalization of the overlap matrix:
Smallest eigenvalue                        ... 7.094e-04
Time for diagonalization                   ...    0.008 sec
Threshold for overlap eigenvalues          ... 1.000e-07
Number of eigenvalues below threshold      ... 0
Time for construction of square roots      ...    0.006 sec
Total time needed                          ...    0.016 sec

-------------------
DFT GRID GENERATION
-------------------

General Integration Accuracy     IntAcc      ... 4.388
Radial Grid Type                 RadialGrid  ... OptM3 with GC (2021)
Angular Grid (max. ang.)         AngularGrid ... 4 (Lebedev-302)
Angular grid pruning method      GridPruning ... 4 (adaptive)
Weight generation scheme         WeightScheme... mBecke (2022)
Basis function cutoff            BFCut       ... 1.0000e-11
Integration weight cutoff        WCut        ... 1.0000e-14
Partially contracted basis set               ... off
Rotationally invariant grid construction     ... off
Angular grids for H and He will be reduced by one unit

Total number of grid points                  ...   126415
Total number of batches                      ...     1988
Average number of points per batch           ...       63
Average number of grid points per atom       ...     5057
Initializing property integral containers    ... done (  0.0 sec)

SHARK setup successfully completed in   0.9 seconds

Maximum memory used throughout the entire STARTUP-calculation: 33.9 MB


           ************************************************************
           *        Program running with 6 parallel MPI-processes     *
           *              working on a common directory               *
           ************************************************************
-------------------------------------------------------------------------------
                                 ORCA GUESS
                   Start orbitals & Density for SCF / CASSCF
-------------------------------------------------------------------------------

------------
SCF SETTINGS
------------
Hamiltonian:
 Density Functional     Method          .... DFT(GTOs)
 Exchange Functional    Exchange        .... B88
   X-Alpha parameter    XAlpha          ....  0.666667
   Becke's b parameter  XBeta           ....  0.004200
 Correlation Functional Correlation     .... LYP
 LDA part of GGA corr.  LDAOpt          .... VWN-5
 Gradients option       PostSCFGGA      .... off
 Hybrid DFT is turned on
   Fraction HF Exchange ScalHFX         ....  0.200000
   Scaling of DF-GGA-X  ScalDFX         ....  0.720000
   Scaling of DF-GGA-C  ScalDFC         ....  0.810000
   Scaling of DF-LDA-C  ScalLDAC        ....  1.000000
   Perturbative correction              ....  0.000000
   NL short-range parameter             ....  4.800000
 RI-approximation to the Coulomb term is turned on
   Number of AuxJ basis functions       .... 885
   RIJ-ON(X) (HFX calculated with O(N)) .... on


General Settings:
 Integral files         IntName         .... data/geom_opt/521585/521585
 Hartree-Fock type      HFTyp           .... RHF
 Total Charge           Charge          ....    0
 Multiplicity           Mult            ....    1
 Number of Electrons    NEL             ....  120
 Basis Dimension        Dim             ....  273
 Nuclear Repulsion      ENuc            ....   1151.6595867359 Eh

Convergence Acceleration:
 AO-DIIS                CNVDIIS         .... on
   Start iteration      DIISMaxIt       ....    12
   Startup error        DIISStart       ....  0.200000
   # of expansion vecs  DIISMaxEq       ....     5
   Bias factor          DIISBfac        ....   1.050
   Max. coefficient     DIISMaxC        ....  10.000
 MO-DIIS                CNVKDIIS        .... off
 Trust-Rad. Augm. Hess. CNVTRAH         .... auto
   Auto Start mean grad. ratio tolernc. ....  1.125000
   Auto Start start iteration           ....    50
   Auto Start num. interpolation iter.  ....    10
   Max. Number of Micro iterations      ....    24
   Max. Number of Macro iterations      .... Maxiter - #DIIS iter
   Number of Davidson start vectors     ....     2
   Converg. threshold    (grad. norm)   ....   1.000e-05
   Grad. Scal. Fac. for Micro threshold ....   0.100
   Minimum threshold for Micro iter.    ....   1.000e-02
   NR start threshold (gradient norm)   ....   1.000e-04
   Initial trust radius                 ....   0.400
   Minimum AH scaling param. (alpha)    ....   1.000
   Maximum AH scaling param. (alpha)    .... 1000.000
   Quad. conv. algorithm                .... NR
   White noise on init. David. guess    .... on
   Maximum white noise                  ....   0.010
   Pseudo random numbers                .... off
   Inactive MOs                         .... canonical
   Orbital update algorithm             .... Taylor
   Preconditioner                       .... Diag
   Full preconditioner red. dimension   ....   250
   COSX micro iterations for RIJONX calc.... off
 SOSCF                  CNVSOSCF        .... on
   Start iteration      SOSCFMaxIt      ....   150
   Startup grad/error   SOSCFStart      ....  0.003300
   Hessian update       SOSCFHessUp     .... L-BFGS
 Level Shifting         CNVShift        .... on
   Level shift para.    LevelShift      ....    0.2500
   Turn off err/grad.   ShiftErr        ....    0.0010
 Zerner damping         CNVZerner       .... off
 Static damping         CNVDamp         .... on
   Fraction old density DampFac         ....    0.7000
   Max. Damping (<1)    DampMax         ....    0.9800
   Min. Damping (>=0)   DampMin         ....    0.0000
   Turn off err/grad.   DampErr         ....    0.1000

SCF Procedure:
 Maximum # iterations   MaxIter         ....   125
 SCF integral mode      SCFMode         .... Direct
   Integral package                     .... SHARK and LIBINT hybrid scheme
 Reset frequency        DirectResetFreq ....    20
 Integral Threshold     Thresh          ....  2.500e-11 Eh
 Primitive CutOff       TCut            ....  2.500e-12 Eh

Convergence Tolerance:
 Convergence Check Mode ConvCheckMode   .... Total+1el-Energy
 Convergence forced     ConvForced      .... 0
 Energy Change          TolE            ....  1.000e-08 Eh
 1-El. energy change                    ....  1.000e-05 Eh
 Orbital Gradient       TolG            ....  1.000e-05
 Orbital Rotation angle TolX            ....  1.000e-05
 DIIS Error             TolErr          ....  5.000e-07

------------------------------
INITIAL GUESS: MODEL POTENTIAL
------------------------------
Loading Hartree-Fock densities                     ... done
Calculating cut-offs                               ... done
Initializing the effective Hamiltonian             ... done
Setting up the integral package (SHARK)            ... done
Starting the Coulomb interaction                   ... done (   0.1 sec)
Making the grid                                    ... done (   0.2 sec)
Mapping shells                                     ... done
Starting the XC term evaluation                    ... done (   0.1 sec)
  promolecular density results
     # of electrons  =    119.995375978
     EX              =   -111.640231370
     EC              =     -4.229342951
     EX+EC           =   -115.869574321
Transforming the Hamiltonian                       ... done (   0.0 sec)
Diagonalizing the Hamiltonian                      ... done (   0.0 sec)
Back transforming the eigenvectors                 ... done (   0.0 sec)
Now organizing SCF variables                       ... done
                      ------------------
                      INITIAL GUESS DONE (   0.5 sec)
                      ------------------
             **** ENERGY FILE WAS UPDATED (data/geom_opt/521585/521585.en.tmp) ****
Finished Guess after   0.6 sec
Maximum memory used throughout the entire GUESS-calculation: 18.7 MB


           ************************************************************
           *        Program running with 6 parallel MPI-processes     *
           *              working on a common directory               *
           ************************************************************

-------------------------------------------------------------------------------------------
                                      ORCA LEAN-SCF
                              memory conserving SCF solver
-------------------------------------------------------------------------------------------

----------------------------------------D-I-I-S--------------------------------------------
Iteration    Energy (Eh)           Delta-E    RMSDP     MaxDP     DIISErr   Damp  Time(sec)
-------------------------------------------------------------------------------------------
               ***  Starting incremental Fock matrix formation  ***
    1    -1028.2659925518169075     0.00e+00  2.36e-03  6.62e-02  1.39e-01  0.700   2.1
    2    -1028.4112864702524348    -1.45e-01  1.70e-03  4.51e-02  7.22e-02  0.700   1.8
                               ***Turning on AO-DIIS***
    3    -1028.4685493569445498    -5.73e-02  8.48e-04  3.95e-02  2.77e-02  0.700   1.8
    4    -1028.5022551804763680    -3.37e-02  1.66e-03  8.92e-02  1.41e-02  0.000   1.8
    5    -1028.5762582269353516    -7.40e-02  2.61e-04  1.32e-02  5.76e-03  0.000   1.8
                              *** Initializing SOSCF ***
---------------------------------------S-O-S-C-F--------------------------------------
Iteration    Energy (Eh)           Delta-E    RMSDP     MaxDP     MaxGrad    Time(sec)
--------------------------------------------------------------------------------------
    6    -1028.5768397579718112    -5.82e-04  9.16e-05  4.92e-03  1.78e-03     1.7
               *** Restarting incremental Fock matrix formation ***
    7    -1028.5768885546535785    -4.88e-05  8.32e-05  4.80e-03  4.68e-04     2.1
    8    -1028.5768746347398519     1.39e-05  3.74e-05  1.63e-03  7.87e-04     1.6
    9    -1028.5769001663984454    -2.55e-05  1.55e-05  3.50e-04  8.43e-05     1.4
   10    -1028.5768996821648216     4.84e-07  8.80e-06  3.00e-04  1.27e-04     1.3
   11    -1028.5769005736096915    -8.91e-07  3.30e-06  1.13e-04  1.62e-05     1.3
   12    -1028.5769005569286492     1.67e-08  1.98e-06  6.92e-05  3.07e-05     1.2
   13    -1028.5769005920642485    -3.51e-08  7.25e-07  3.01e-05  4.30e-06     1.1
   14    -1028.5769005869806278     5.08e-09  4.32e-07  1.76e-05  5.25e-06     1.1
                 **** Energy Check signals convergence ****

               *****************************************************
               *                     SUCCESS                       *
               *           SCF CONVERGED AFTER  14 CYCLES          *
               *****************************************************

             **** ENERGY FILE WAS UPDATED (data/geom_opt/521585/521585.en.tmp) ****

----------------
TOTAL SCF ENERGY
----------------

Total Energy       :      -1028.57690058698063 Eh          -27989.00040 eV

Components:
Nuclear Repulsion  :       1151.65958673591467 Eh           31338.25056 eV
Electronic Energy  :      -2180.23648732289530 Eh          -59327.25096 eV
One Electron Energy:      -3694.51699224440927 Eh         -100532.91835 eV
Two Electron Energy:       1514.28050492151397 Eh           41205.66739 eV

Virial components:
Potential Energy   :      -2050.03710632575076 Eh          -55784.34568 eV
Kinetic Energy     :       1021.46020573876990 Eh           27795.34529 eV
Virial Ratio       :          2.00696717777964

DFT components:
N(Alpha)           :       60.000005839814 electrons
N(Beta)            :       60.000005839814 electrons
N(Total)           :      120.000011679628 electrons
E(X)               :      -89.479555860585 Eh       
E(C)               :       -4.971922637481 Eh       
E(XC)              :      -94.451478498066 Eh       

---------------
SCF CONVERGENCE
---------------

  Last Energy change         ...   -5.0836e-09  Tolerance :   1.0000e-08
  Last MAX-Density change    ...    1.7552e-05  Tolerance :   1.0000e-07
  Last RMS-Density change    ...    4.3188e-07  Tolerance :   5.0000e-09
  Last DIIS Error            ...    1.7819e-03  Tolerance :   5.0000e-07
  Last Orbital Gradient      ...    5.2515e-06  Tolerance :   1.0000e-05
  Last Orbital Rotation      ...    9.5467e-06  Tolerance :   1.0000e-05


----------------
ORBITAL ENERGIES
----------------

  NO   OCC          E(Eh)            E(eV) 
   0   2.0000     -77.078658     -2097.4169 
   1   2.0000     -19.203840      -522.5630 
   2   2.0000     -19.203836      -522.5630 
   3   2.0000     -19.203819      -522.5625 
   4   2.0000     -10.236840      -278.5586 
   5   2.0000     -10.236837      -278.5585 
   6   2.0000     -10.236795      -278.5573 
   7   2.0000     -10.235521      -278.5227 
   8   2.0000     -10.235519      -278.5226 
   9   2.0000     -10.235517      -278.5226 
  10   2.0000     -10.185727      -277.1677 
  11   2.0000     -10.185725      -277.1677 
  12   2.0000     -10.185725      -277.1677 
  13   2.0000     -10.184354      -277.1304 
  14   2.0000     -10.184343      -277.1301 
  15   2.0000     -10.184340      -277.1300 
  16   2.0000      -6.574416      -178.8989 
  17   2.0000      -4.740081      -128.9842 
  18   2.0000      -4.740080      -128.9841 
  19   2.0000      -4.736445      -128.8852 
  20   2.0000      -1.103938       -30.0397 
  21   2.0000      -1.102705       -30.0061 
  22   2.0000      -1.102702       -30.0061 
  23   2.0000      -0.793649       -21.5963 
  24   2.0000      -0.793093       -21.5812 
  25   2.0000      -0.793091       -21.5811 
  26   2.0000      -0.771461       -20.9925 
  27   2.0000      -0.733872       -19.9697 
  28   2.0000      -0.733870       -19.9696 
  29   2.0000      -0.648542       -17.6477 
  30   2.0000      -0.601338       -16.3632 
  31   2.0000      -0.601336       -16.3632 
  32   2.0000      -0.592097       -16.1118 
  33   2.0000      -0.555763       -15.1231 
  34   2.0000      -0.555762       -15.1231 
  35   2.0000      -0.548532       -14.9263 
  36   2.0000      -0.530838       -14.4448 
  37   2.0000      -0.530837       -14.4448 
  38   2.0000      -0.492343       -13.3973 
  39   2.0000      -0.461028       -12.5452 
  40   2.0000      -0.454189       -12.3591 
  41   2.0000      -0.454187       -12.3591 
  42   2.0000      -0.439035       -11.9467 
  43   2.0000      -0.439033       -11.9467 
  44   2.0000      -0.414554       -11.2806 
  45   2.0000      -0.406765       -11.0687 
  46   2.0000      -0.406765       -11.0686 
  47   2.0000      -0.399184       -10.8623 
  48   2.0000      -0.392162       -10.6713 
  49   2.0000      -0.392160       -10.6712 
  50   2.0000      -0.378875       -10.3097 
  51   2.0000      -0.358463        -9.7543 
  52   2.0000      -0.358463        -9.7543 
  53   2.0000      -0.305859        -8.3228 
  54   2.0000      -0.284224        -7.7341 
  55   2.0000      -0.284223        -7.7341 
  56   2.0000      -0.279761        -7.6127 
  57   2.0000      -0.231349        -6.2953 
  58   2.0000      -0.231347        -6.2953 
  59   2.0000      -0.195911        -5.3310 
  60   0.0000      -0.004974        -0.1354 
  61   0.0000      -0.004973        -0.1353 
  62   0.0000       0.000319         0.0087 
  63   0.0000       0.036352         0.9892 
  64   0.0000       0.036356         0.9893 
  65   0.0000       0.058819         1.6006 
  66   0.0000       0.072100         1.9619 
  67   0.0000       0.072100         1.9620 
  68   0.0000       0.084067         2.2876 
  69   0.0000       0.094621         2.5748 
  70   0.0000       0.094622         2.5748 
*Only the first 10 virtual orbitals were printed.

                    ********************************
                    * MULLIKEN POPULATION ANALYSIS *
                    ********************************

-----------------------
MULLIKEN ATOMIC CHARGES
-----------------------
   0 C :   -0.006067
   1 C :    0.125783
   2 O :   -0.208344
   3 C :    0.004417
   4 C :   -0.024299
   5 P :    0.340868
   6 C :    0.004506
   7 C :   -0.024356
   8 C :   -0.006064
   9 C :    0.125790
  10 O :   -0.208357
  11 C :    0.004459
  12 C :   -0.024365
  13 C :   -0.006036
  14 C :    0.125764
  15 O :   -0.208341
  16 H :   -0.007124
  17 H :    0.007570
  18 H :   -0.005563
  19 H :   -0.005563
  20 H :   -0.007134
  21 H :    0.007577
  22 H :   -0.005559
  23 H :   -0.007138
  24 H :    0.007573
Sum of atomic charges:   -0.0000000

--------------------------------
MULLIKEN REDUCED ORBITAL CHARGES
--------------------------------
  0 C s       :     3.176071  s :     3.176071
      pz      :     0.977728  p :     2.795246
      px      :     1.003803
      py      :     0.813714
      dz2     :     0.007406  d :     0.034750
      dxz     :     0.004049
      dyz     :     0.008915
      dx2y2   :     0.006996
      dxy     :     0.007384

  1 C s       :     3.153847  s :     3.153847
      pz      :     0.929388  p :     2.657546
      px      :     0.970364
      py      :     0.757795
      dz2     :     0.009307  d :     0.062823
      dxz     :     0.006910
      dyz     :     0.016329
      dx2y2   :     0.014445
      dxy     :     0.015832

  2 O s       :     3.733119  s :     3.733119
      pz      :     1.444201  p :     4.454586
      px      :     1.498772
      py      :     1.511612
      dz2     :     0.004695  d :     0.020640
      dxz     :     0.003167
      dyz     :     0.004015
      dx2y2   :     0.004976
      dxy     :     0.003787

  3 C s       :     3.095638  s :     3.095638
      pz      :     0.876887  p :     2.836783
      px      :     0.978460
      py      :     0.981436
      dz2     :     0.013528  d :     0.063162
      dxz     :     0.013566
      dyz     :     0.013643
      dx2y2   :     0.011028
      dxy     :     0.011398

  4 C s       :     3.204463  s :     3.204463
      pz      :     0.915986  p :     2.785312
      px      :     0.957354
      py      :     0.911973
      dz2     :     0.006147  d :     0.034525
      dxz     :     0.005434
      dyz     :     0.008045
      dx2y2   :     0.007595
      dxy     :     0.007304

  5 P s       :     5.672172  s :     5.672172
      pz      :     3.246101  p :     8.804518
      px      :     2.810335
      py      :     2.748083
      dz2     :     0.026971  d :     0.182441
      dxz     :     0.024916
      dyz     :     0.054861
      dx2y2   :     0.044253
      dxy     :     0.031439

  6 C s       :     3.095658  s :     3.095658
      pz      :     1.070100  p :     2.836674
      px      :     0.966733
      py      :     0.799841
      dz2     :     0.006355  d :     0.063162
      dxz     :     0.007042
      dyz     :     0.011980
      dx2y2   :     0.020312
      dxy     :     0.017473

  7 C s       :     3.204487  s :     3.204487
      pz      :     1.030222  p :     2.785344
      px      :     0.910810
      py      :     0.844312
      dz2     :     0.002988  d :     0.034525
      dxz     :     0.007082
      dyz     :     0.003955
      dx2y2   :     0.008958
      dxy     :     0.011543

  8 C s       :     3.176072  s :     3.176072
      pz      :     1.045645  p :     2.795243
      px      :     0.826223
      py      :     0.923375
      dz2     :     0.003476  d :     0.034750
      dxz     :     0.004270
      dyz     :     0.006310
      dx2y2   :     0.011427
      dxy     :     0.009268

  9 C s       :     3.153828  s :     3.153828
      pz      :     1.064066  p :     2.657558
      px      :     0.712051
      py      :     0.881441
      dz2     :     0.005780  d :     0.062823
      dxz     :     0.011248
      dyz     :     0.005404
      dx2y2   :     0.023936
      dxy     :     0.016455

 10 O s       :     3.733132  s :     3.733132
      pz      :     1.648940  p :     4.454585
      px      :     1.327462
      py      :     1.478183
      dz2     :     0.002364  d :     0.020640
      dxz     :     0.003890
      dyz     :     0.003291
      dx2y2   :     0.007124
      dxy     :     0.003970

 11 C s       :     3.095613  s :     3.095613
      pz      :     1.022761  p :     2.836765
      px      :     0.838332
      py      :     0.975673
      dz2     :     0.007928  d :     0.063162
      dxz     :     0.013618
      dyz     :     0.008161
      dx2y2   :     0.013975
      dxy     :     0.019481

 12 C s       :     3.204528  s :     3.204528
      pz      :     0.994059  p :     2.785312
      px      :     0.855206
      py      :     0.936046
      dz2     :     0.006200  d :     0.034524
      dxz     :     0.006870
      dyz     :     0.004277
      dx2y2   :     0.007961
      dxy     :     0.009217

 13 C s       :     3.176056  s :     3.176056
      pz      :     0.971749  p :     2.795230
      px      :     0.885232
      py      :     0.938249
      dz2     :     0.004769  d :     0.034750
      dxz     :     0.007137
      dyz     :     0.005608
      dx2y2   :     0.009687
      dxy     :     0.007549

 14 C s       :     3.153851  s :     3.153851
      pz      :     0.935193  p :     2.657561
      px      :     0.866677
      py      :     0.855692
      dz2     :     0.009035  d :     0.062824
      dxz     :     0.012292
      dyz     :     0.012139
      dx2y2   :     0.012545
      dxy     :     0.016812

 15 O s       :     3.733122  s :     3.733122
      pz      :     1.510356  p :     4.454580
      px      :     1.568781
      py      :     1.375442
      dz2     :     0.003988  d :     0.020640
      dxz     :     0.004112
      dyz     :     0.002733
      dx2y2   :     0.004263
      dxy     :     0.005543

 16 H s       :     0.983348  s :     0.983348
      pz      :     0.004229  p :     0.023776
      px      :     0.004749
      py      :     0.014798

 17 H s       :     0.969134  s :     0.969134
      pz      :     0.011661  p :     0.023296
      px      :     0.009701
      py      :     0.001933

 18 H s       :     0.981714  s :     0.981714
      pz      :     0.009934  p :     0.023849
      px      :     0.008341
      py      :     0.005573

 19 H s       :     0.981715  s :     0.981715
      pz      :     0.005701  p :     0.023849
      px      :     0.003321
      py      :     0.014827

 20 H s       :     0.983358  s :     0.983358
      pz      :     0.005262  p :     0.023776
      px      :     0.014040
      py      :     0.004473

 21 H s       :     0.969127  s :     0.969127
      pz      :     0.006181  p :     0.023296
      px      :     0.004775
      py      :     0.012340

 22 H s       :     0.981710  s :     0.981710
      pz      :     0.004616  p :     0.023848
      px      :     0.013625
      py      :     0.005607

 23 H s       :     0.983362  s :     0.983362
      pz      :     0.008068  p :     0.023776
      px      :     0.007474
      py      :     0.008235

 24 H s       :     0.969131  s :     0.969131
      pz      :     0.006150  p :     0.023296
      px      :     0.008541
      py      :     0.008605



                     *******************************
                     * LOEWDIN POPULATION ANALYSIS *
                     *******************************

----------------------
LOEWDIN ATOMIC CHARGES
----------------------
   0 C :   -0.072550
   1 C :    0.031236
   2 O :    0.000347
   3 C :   -0.133816
   4 C :   -0.075215
   5 P :    0.515211
   6 C :   -0.133801
   7 C :   -0.075223
   8 C :   -0.072552
   9 C :    0.031239
  10 O :    0.000344
  11 C :   -0.133806
  12 C :   -0.075219
  13 C :   -0.072548
  14 C :    0.031233
  15 O :    0.000348
  16 H :    0.029612
  17 H :    0.020721
  18 H :    0.027926
  19 H :    0.027925
  20 H :    0.029609
  21 H :    0.020722
  22 H :    0.027927
  23 H :    0.029609
  24 H :    0.020722

-------------------------------
LOEWDIN REDUCED ORBITAL CHARGES
-------------------------------
  0 C s       :     2.864503  s :     2.864503
      pz      :     1.041475  p :     3.116470
      px      :     1.035258
      py      :     1.039738
      dz2     :     0.018148  d :     0.091576
      dxz     :     0.011447
      dyz     :     0.024784
      dx2y2   :     0.018586
      dxy     :     0.018612

  1 C s       :     2.873504  s :     2.873504
      pz      :     1.037714  p :     2.954206
      px      :     1.037702
      py      :     0.878790
      dz2     :     0.019424  d :     0.141054
      dxz     :     0.013875
      dyz     :     0.038496
      dx2y2   :     0.033377
      dxy     :     0.035881

  2 O s       :     3.435256  s :     3.435256
      pz      :     1.468093  p :     4.526045
      px      :     1.507917
      py      :     1.550035
      dz2     :     0.008855  d :     0.038352
      dxz     :     0.006798
      dyz     :     0.007214
      dx2y2   :     0.009008
      dxy     :     0.006476

  3 C s       :     2.922511  s :     2.922511
      pz      :     0.962608  p :     3.071772
      px      :     1.013282
      py      :     1.095882
      dz2     :     0.029164  d :     0.139532
      dxz     :     0.029524
      dyz     :     0.030239
      dx2y2   :     0.026925
      dxy     :     0.023681

  4 C s       :     2.866528  s :     2.866528
      pz      :     1.035993  p :     3.117254
      px      :     1.029842
      py      :     1.051419
      dz2     :     0.014517  d :     0.091434
      dxz     :     0.013167
      dyz     :     0.022711
      dx2y2   :     0.021821
      dxy     :     0.019218

  5 P s       :     5.253958  s :     5.253958
      pz      :     3.304416  p :     8.973344
      px      :     2.865778
      py      :     2.803150
      dz2     :     0.037549  d :     0.257488
      dxz     :     0.033428
      dyz     :     0.077849
      dx2y2   :     0.064533
      dxy     :     0.044130

  6 C s       :     2.922514  s :     2.922514
      pz      :     1.081718  p :     3.071755
      px      :     1.090406
      py      :     0.899632
      dz2     :     0.012842  d :     0.139531
      dxz     :     0.012951
      dyz     :     0.025036
      dx2y2   :     0.045925
      dxy     :     0.042776

  7 C s       :     2.866529  s :     2.866529
      pz      :     1.030024  p :     3.117261
      px      :     1.046125
      py      :     1.041112
      dz2     :     0.006707  d :     0.091433
      dxz     :     0.016454
      dyz     :     0.007264
      dx2y2   :     0.026122
      dxy     :     0.034887

  8 C s       :     2.864502  s :     2.864502
      pz      :     1.031751  p :     3.116473
      px      :     1.033017
      py      :     1.051706
      dz2     :     0.007989  d :     0.091577
      dxz     :     0.007940
      dyz     :     0.014622
      dx2y2   :     0.031989
      dxy     :     0.029036

  9 C s       :     2.873504  s :     2.873504
      pz      :     1.061345  p :     2.954204
      px      :     0.826977
      py      :     1.065881
      dz2     :     0.011676  d :     0.141054
      dxz     :     0.022793
      dyz     :     0.010676
      dx2y2   :     0.057047
      dxy     :     0.038861

 10 O s       :     3.435261  s :     3.435261
      pz      :     1.626291  p :     4.526043
      px      :     1.384644
      py      :     1.515108
      dz2     :     0.003941  d :     0.038352
      dxz     :     0.006923
      dyz     :     0.004951
      dx2y2   :     0.014664
      dxy     :     0.007873

 11 C s       :     2.922513  s :     2.922513
      pz      :     1.079242  p :     3.071762
      px      :     0.947353
      py      :     1.045167
      dz2     :     0.015715  d :     0.139532
      dxz     :     0.031285
      dyz     :     0.015746
      dx2y2   :     0.031731
      dxy     :     0.045054

 12 C s       :     2.866533  s :     2.866533
      pz      :     1.035658  p :     3.117253
      px      :     1.047526
      py      :     1.034069
      dz2     :     0.014401  d :     0.091434
      dxz     :     0.017406
      dyz     :     0.011896
      dx2y2   :     0.022909
      dxy     :     0.024822

 13 C s       :     2.864502  s :     2.864502
      pz      :     1.032187  p :     3.116469
      px      :     1.052617
      py      :     1.031666
      dz2     :     0.010639  d :     0.091576
      dxz     :     0.018076
      dyz     :     0.014009
      dx2y2   :     0.028367
      dxy     :     0.020486

 14 C s       :     2.873504  s :     2.873504
      pz      :     0.972592  p :     2.954209
      px      :     1.042540
      py      :     0.939076
      dz2     :     0.018906  d :     0.141054
      dxz     :     0.027452
      dyz     :     0.025565
      dx2y2   :     0.031016
      dxy     :     0.038115

 15 O s       :     3.435256  s :     3.435256
      pz      :     1.517871  p :     4.526043
      px      :     1.598992
      py      :     1.409180
      dz2     :     0.007149  d :     0.038352
      dxz     :     0.006630
      dyz     :     0.006380
      dx2y2   :     0.007677
      dxy     :     0.010517

 16 H s       :     0.900488  s :     0.900488
      pz      :     0.013474  p :     0.069901
      px      :     0.014852
      py      :     0.041575

 17 H s       :     0.907534  s :     0.907534
      pz      :     0.034715  p :     0.071744
      px      :     0.029295
      py      :     0.007735

 18 H s       :     0.901444  s :     0.901444
      pz      :     0.029355  p :     0.070630
      px      :     0.024311
      py      :     0.016964

 19 H s       :     0.901445  s :     0.901445
      pz      :     0.017280  p :     0.070630
      px      :     0.011288
      py      :     0.042062

 20 H s       :     0.900490  s :     0.900490
      pz      :     0.016042  p :     0.069901
      px      :     0.039793
      py      :     0.014067

 21 H s       :     0.907534  s :     0.907534
      pz      :     0.019086  p :     0.071744
      px      :     0.015538
      py      :     0.037120

 22 H s       :     0.901443  s :     0.901443
      pz      :     0.014658  p :     0.070630
      px      :     0.038767
      py      :     0.017205

 23 H s       :     0.900491  s :     0.900491
      pz      :     0.023663  p :     0.069901
      px      :     0.021946
      py      :     0.024291

 24 H s       :     0.907533  s :     0.907533
      pz      :     0.019076  p :     0.071744
      px      :     0.026459
      py      :     0.026210



                      *****************************
                      * MAYER POPULATION ANALYSIS *
                      *****************************

  NA   - Mulliken gross atomic population
  ZA   - Total nuclear charge
  QA   - Mulliken gross atomic charge
  VA   - Mayer's total valence
  BVA  - Mayer's bonded valence
  FA   - Mayer's free valence

  ATOM       NA         ZA         QA         VA         BVA        FA
  0 C      6.0061     6.0000    -0.0061     3.8098     3.8098    -0.0000
  1 C      5.8742     6.0000     0.1258     3.8056     3.8056    -0.0000
  2 O      8.2083     8.0000    -0.2083     2.3984     2.3984    -0.0000
  3 C      5.9956     6.0000     0.0044     3.7527     3.7527    -0.0000
  4 C      6.0243     6.0000    -0.0243     3.9015     3.9015    -0.0000
  5 P     14.6591    15.0000     0.3409     2.9932     2.9932    -0.0000
  6 C      5.9955     6.0000     0.0045     3.7526     3.7526    -0.0000
  7 C      6.0244     6.0000    -0.0244     3.9015     3.9015    -0.0000
  8 C      6.0061     6.0000    -0.0061     3.8098     3.8098    -0.0000
  9 C      5.8742     6.0000     0.1258     3.8056     3.8056    -0.0000
 10 O      8.2084     8.0000    -0.2084     2.3984     2.3984    -0.0000
 11 C      5.9955     6.0000     0.0045     3.7526     3.7526    -0.0000
 12 C      6.0244     6.0000    -0.0244     3.9015     3.9015    -0.0000
 13 C      6.0060     6.0000    -0.0060     3.8098     3.8098    -0.0000
 14 C      5.8742     6.0000     0.1258     3.8056     3.8056    -0.0000
 15 O      8.2083     8.0000    -0.2083     2.3984     2.3984    -0.0000
 16 H      1.0071     1.0000    -0.0071     0.9890     0.9890    -0.0000
 17 H      0.9924     1.0000     0.0076     0.9973     0.9973    -0.0000
 18 H      1.0056     1.0000    -0.0056     1.0048     1.0048    -0.0000
 19 H      1.0056     1.0000    -0.0056     1.0048     1.0048    -0.0000
 20 H      1.0071     1.0000    -0.0071     0.9890     0.9890    -0.0000
 21 H      0.9924     1.0000     0.0076     0.9973     0.9973    -0.0000
 22 H      1.0056     1.0000    -0.0056     1.0048     1.0048    -0.0000
 23 H      1.0071     1.0000    -0.0071     0.9890     0.9890    -0.0000
 24 H      0.9924     1.0000     0.0076     0.9973     0.9973    -0.0000

  Mayer bond orders larger than 0.100000
B(  0-C ,  1-C ) :   1.5352 B(  0-C ,  4-C ) :   1.2509 B(  0-C , 16-H ) :   1.0028 
B(  1-C ,  2-O ) :   1.1288 B(  1-C ,  3-C ) :   0.1056 B(  1-C , 17-H ) :   1.0005 
B(  2-O ,  3-C ) :   1.1186 B(  3-C ,  4-C ) :   1.5551 B(  3-C ,  5-P ) :   0.9244 
B(  4-C , 18-H ) :   0.9966 B(  5-P ,  6-C ) :   0.9243 B(  5-P , 11-C ) :   0.9243 
B(  6-C ,  7-C ) :   1.5552 B(  6-C ,  9-C ) :   0.1056 B(  6-C , 10-O ) :   1.1186 
B(  7-C ,  8-C ) :   1.2508 B(  7-C , 19-H ) :   0.9966 B(  8-C ,  9-C ) :   1.5352 
B(  8-C , 20-H ) :   1.0028 B(  9-C , 10-O ) :   1.1288 B(  9-C , 21-H ) :   1.0005 
B( 11-C , 12-C ) :   1.5552 B( 11-C , 14-C ) :   0.1056 B( 11-C , 15-O ) :   1.1186 
B( 12-C , 13-C ) :   1.2508 B( 12-C , 22-H ) :   0.9966 B( 13-C , 14-C ) :   1.5352 
B( 13-C , 23-H ) :   1.0028 B( 14-C , 15-O ) :   1.1288 B( 14-C , 24-H ) :   1.0005 


-------
TIMINGS
-------

Total SCF time: 0 days 0 hours 0 min 22 sec 

Total time                  ....      22.327 sec
Sum of individual times     ....      22.269 sec  ( 99.7%)

SCF preparation             ....       0.085 sec  (  0.4%)
Fock matrix formation       ....      21.600 sec  ( 96.7%)
  Startup                   ....       0.032 sec  (  0.1% of F)
  Exchange formation        ....      15.612 sec  ( 72.3% of F)
  Split-RI-J                ....       2.099 sec  (  9.7% of F)
  XC integration            ....       3.701 sec  ( 17.1% of F)
    Basis function eval.    ....       1.057 sec  ( 28.6% of XC)
    Density eval.           ....       0.952 sec  ( 25.7% of XC)
    XC-Functional eval.     ....       0.089 sec  (  2.4% of XC)
    XC-Potential eval.      ....       0.868 sec  ( 23.5% of XC)
Diagonalization             ....       0.000 sec  (  0.0%)
Density matrix formation    ....       0.086 sec  (  0.4%)
Total Energy calculation    ....       0.035 sec  (  0.2%)
Population analysis         ....       0.045 sec  (  0.2%)
Orbital Transformation      ....       0.042 sec  (  0.2%)
Orbital Orthonormalization  ....       0.000 sec  (  0.0%)
DIIS solution               ....       0.210 sec  (  0.9%)
SOSCF solution              ....       0.166 sec  (  0.7%)
Finished LeanSCF after  22.4 sec

Maximum memory used throughout the entire LEANSCF-calculation: 25.5 MB


-------------------------------------------------------------------------------
                          DFT DISPERSION CORRECTION                            
                                                                               
                              DFTD3 V3.1  Rev 1                                
                          USING Becke-Johnson damping                          
-------------------------------------------------------------------------------
The B3LYP functional is recognized
Active option DFTDOPT                   ...         4   

molecular C6(AA) [au] = 9272.213165 


            DFT-D V3
 parameters
 s6 scaling factor         :     1.0000 
 a1 scaling factor         :     0.3981 
 s8 scaling factor         :     1.9889 
 a2 scaling factor         :     4.4211 
 ad hoc parameters k1-k3   :    16.0000     1.3333    -4.0000 

 Edisp/kcal,au: -33.636249380777  -0.053602769652 
 E6   /kcal   : -15.072768581 
 E8   /kcal   : -18.563480800 
 % E8         :  55.188914168 

-------------------------   ----------------
Dispersion correction           -0.053602770
-------------------------   ----------------


-------------------------   --------------------
FINAL SINGLE POINT ENERGY     -1028.630503356633
-------------------------   --------------------



           ************************************************************
           *        Program running with 6 parallel MPI-processes     *
           *              working on a common directory               *
           ************************************************************
------------------------------------------------------------------------------
                         ORCA SCF GRADIENT CALCULATION
------------------------------------------------------------------------------

Nuc. rep. gradient        (SHARK) ... done (  0.0 sec)
HCore & Overlap gradient  (SHARK) ... done (  0.1 sec)
Split-RIJ-J gradient      (SHARK) ... done (  0.6 sec)
O(N)X-gradient            (SHARK) ... done (  6.2 sec)
XC gradient                       ... done (  2.2 sec)
Dispersion correction             ... done (  0.1 sec)

-------------------
DISPERSION GRADIENT
-------------------

   1   C   :    0.000049407    0.000427589   -0.000113570
   2   C   :    0.001157487    0.000220280   -0.001439799
   3   O   :   -0.000284896   -0.000565294    0.000140730
   4   C   :   -0.001597314   -0.001992180    0.001266457
   5   C   :   -0.001000973   -0.000134727    0.000769014
   6   P   :   -0.000395548    0.000178347   -0.001014681
   7   C   :    0.002699062   -0.000890471   -0.000214728
   8   C   :    0.000699108   -0.001058110   -0.000056012
   9   C   :   -0.000433053   -0.000101427   -0.000018478
  10   C   :   -0.001060459    0.001487441   -0.000352466
  11   O   :    0.000636668   -0.000016653   -0.000122083
  12   C   :   -0.000119069    0.002439568    0.001469164
  13   C   :    0.000699808    0.001013409    0.000307822
  14   C   :    0.000216108   -0.000250619   -0.000297762
  15   C   :   -0.001112696   -0.001249761   -0.000813223
  16   O   :   -0.000224203    0.000524427    0.000308607
  17   H   :   -0.000057657   -0.000232692    0.000038322
  18   H   :   -0.000154526   -0.000038032    0.000180861
  19   H   :   -0.000095668   -0.000365318   -0.000139603
  20   H   :    0.000302563    0.000174930   -0.000199884
  21   H   :    0.000236804    0.000045891   -0.000027499
  22   H   :    0.000145168   -0.000188548    0.000037579
  23   H   :   -0.000318303    0.000240622    0.000053689
  24   H   :   -0.000123043    0.000161504    0.000133098
  25   H   :    0.000135226    0.000169825    0.000104445

Difference to translation invariance:
           :    0.0000000000    0.0000000000   -0.0000000000

Difference to rotation invariance:
           :    0.0000000000   -0.0000000000   -0.0000000000

Norm of the Dispersion gradient    ...    0.0065955853
RMS gradient                       ...    0.0007615926
MAX gradient                       ...    0.0026990622

------------------
CARTESIAN GRADIENT
------------------

   1   C   :    0.008422950   -0.006023154   -0.010746755
   2   C   :   -0.001548908    0.004568725    0.004405890
   3   O   :   -0.007685565   -0.002442774    0.004518019
   4   C   :   -0.005879911    0.009294191    0.000773580
   5   C   :   -0.001471592   -0.010045099    0.002617831
   6   P   :    0.002453376   -0.001116887    0.006283085
   7   C   :   -0.006127579   -0.008870704   -0.002318034
   8   C   :    0.010270194    0.002192877    0.000191916
   9   C   :   -0.001073296    0.014481455   -0.003433687
  10   C   :   -0.002001312   -0.005552953    0.002801382
  11   O   :    0.006119694   -0.006729234   -0.001611369
  12   C   :    0.008878374    0.000987921   -0.006466553
  13   C   :   -0.005018953    0.006165013    0.006857651
  14   C   :   -0.013672478   -0.005614187   -0.002052152
  15   C   :    0.006509694   -0.000360423    0.000403919
  16   O   :    0.003500737    0.008314311    0.002050462
  17   H   :    0.000713416    0.005339785   -0.000602493
  18   H   :    0.003249676    0.000572959   -0.002978116
  19   H   :   -0.003174843    0.000960251    0.002799752
  20   H   :    0.001106700   -0.004194696    0.000214925
  21   H   :   -0.005145767   -0.001634719    0.000456732
  22   H   :   -0.002562469    0.003628495   -0.000174676
  23   H   :    0.003433169    0.002612176    0.000508796
  24   H   :    0.003185466   -0.003141957   -0.003059612
  25   H   :   -0.002480771   -0.003391373   -0.001440494

Difference to translation invariance:
           :   -0.0000000000    0.0000000000   -0.0000000000

Difference to rotation invariance:
           :   -0.0000770614   -0.0000317165   -0.0000973306

Norm of the Cartesian gradient     ...    0.0447033839
RMS gradient                       ...    0.0051619021
MAX gradient                       ...    0.0144814551

-------
TIMINGS
-------

Total SCF gradient time     ....        9.190 sec

Densities                   ....       0.001 sec  (  0.0%)
One electron gradient       ....       0.126 sec  (  1.4%)
Two electron gradient       ....       6.159 sec  ( 67.0%)
RI-J Coulomb gradient       ....       0.636 sec  (  6.9%)
XC gradient                 ....       2.204 sec  ( 24.0%)

Maximum memory used throughout the entire SCFGRAD-calculation: 33.8 MB
------------------------------------------------------------------------------
                         ORCA GEOMETRY RELAXATION STEP
------------------------------------------------------------------------------

Reading the OPT-File                    .... done
Getting information on internals        .... done
[...]
      py      :     1.471605
      dz2     :     0.011549  d :     0.038704
      dxz     :     0.007753
      dyz     :     0.006097
      dx2y2   :     0.005497
      dxy     :     0.007807

  3 C s       :     2.926455  s :     2.926455
      pz      :     0.905998  p :     3.072733
      px      :     1.069921
      py      :     1.096814
      dz2     :     0.046829  d :     0.142033
      dxz     :     0.028015
      dyz     :     0.034637
      dx2y2   :     0.014985
      dxy     :     0.017567

  4 C s       :     2.874294  s :     2.874294
      pz      :     1.031051  p :     3.102974
      px      :     1.033262
      py      :     1.038662
      dz2     :     0.020425  d :     0.090458
      dxz     :     0.015734
      dyz     :     0.022027
      dx2y2   :     0.015995
      dxy     :     0.016277

  5 P s       :     5.245438  s :     5.245438
      pz      :     3.323536  p :     8.992120
      px      :     2.866864
      py      :     2.801720
      dz2     :     0.024809  d :     0.276775
      dxz     :     0.022694
      dyz     :     0.077665
      dx2y2   :     0.094143
      dxy     :     0.057464

  6 C s       :     2.926473  s :     2.926473
      pz      :     0.917572  p :     3.072714
      px      :     1.079905
      py      :     1.075237
      dz2     :     0.040748  d :     0.142023
      dxz     :     0.052962
      dyz     :     0.026058
      dx2y2   :     0.013330
      dxy     :     0.008925

  7 C s       :     2.874291  s :     2.874291
      pz      :     1.044448  p :     3.102970
      px      :     1.045090
      py      :     1.013433
      dz2     :     0.021362  d :     0.090461
      dxz     :     0.035060
      dyz     :     0.007111
      dx2y2   :     0.011790
      dxy     :     0.015138

  8 C s       :     2.869346  s :     2.869346
      pz      :     1.054102  p :     3.123713
      px      :     1.029051
      py      :     1.040560
      dz2     :     0.027970  d :     0.089300
      dxz     :     0.027463
      dyz     :     0.013101
      dx2y2   :     0.013179
      dxy     :     0.007587

  9 C s       :     2.874081  s :     2.874081
      pz      :     1.062411  p :     2.940713
      px      :     0.846253
      py      :     1.032049
      dz2     :     0.035978  d :     0.143684
      dxz     :     0.043487
      dyz     :     0.013723
      dx2y2   :     0.029174
      dxy     :     0.021323

 10 O s       :     3.437904  s :     3.437904
      pz      :     1.562564  p :     4.519582
      px      :     1.349592
      py      :     1.607426
      dz2     :     0.009841  d :     0.038701
      dxz     :     0.010166
      dyz     :     0.004224
      dx2y2   :     0.007441
      dxy     :     0.007029

 11 C s       :     2.926471  s :     2.926471
      pz      :     0.910782  p :     3.072722
      px      :     1.058278
      py      :     1.103662
      dz2     :     0.048630  d :     0.142024
      dxz     :     0.027155
      dyz     :     0.033969
      dx2y2   :     0.017682
      dxy     :     0.014589

 12 C s       :     2.874291  s :     2.874291
      pz      :     1.030198  p :     3.102967
      px      :     1.023496
      py      :     1.049274
      dz2     :     0.024710  d :     0.090460
      dxz     :     0.012819
      dyz     :     0.022585
      dx2y2   :     0.013631
      dxy     :     0.016715

 13 C s       :     2.869351  s :     2.869351
      pz      :     1.041927  p :     3.123710
      px      :     1.043685
      py      :     1.038099
      dz2     :     0.020381  d :     0.089297
      dxz     :     0.016103
      dyz     :     0.030349
      dx2y2   :     0.010693
      dxy     :     0.011772

 14 C s       :     2.874079  s :     2.874079
      pz      :     1.006454  p :     2.940723
      px      :     1.028963
      py      :     0.905306
      dz2     :     0.029746  d :     0.143690
      dxz     :     0.016504
      dyz     :     0.042892
      dx2y2   :     0.030053
      dxy     :     0.024495

 15 O s       :     3.437893  s :     3.437893
      pz      :     1.353732  p :     4.519568
      px      :     1.621315
      py      :     1.544522
      dz2     :     0.010378  d :     0.038703
      dxz     :     0.008828
      dyz     :     0.008913
      dx2y2   :     0.005499
      dxy     :     0.005086

 16 H s       :     0.900816  s :     0.900816
      pz      :     0.011565  p :     0.068943
      px      :     0.024745
      py      :     0.032633

 17 H s       :     0.906779  s :     0.906779
      pz      :     0.041027  p :     0.070010
      px      :     0.014219
      py      :     0.014764

 18 H s       :     0.900506  s :     0.900506
      pz      :     0.037197  p :     0.068880
      px      :     0.019500
      py      :     0.012183

 19 H s       :     0.900508  s :     0.900508
      pz      :     0.041049  p :     0.068881
      px      :     0.011991
      py      :     0.015840

 20 H s       :     0.900816  s :     0.900816
      pz      :     0.016720  p :     0.068942
      px      :     0.036471
      py      :     0.015751

 21 H s       :     0.906781  s :     0.906781
      pz      :     0.032514  p :     0.070010
      px      :     0.019668
      py      :     0.017829

 22 H s       :     0.900505  s :     0.900505
      pz      :     0.034217  p :     0.068879
      px      :     0.019947
      py      :     0.014715

 23 H s       :     0.900816  s :     0.900816
      pz      :     0.013018  p :     0.068942
      px      :     0.018774
      py      :     0.037151

 24 H s       :     0.906781  s :     0.906781
      pz      :     0.043128  p :     0.070011
      px      :     0.017460
      py      :     0.009423



                      *****************************
                      * MAYER POPULATION ANALYSIS *
                      *****************************

  NA   - Mulliken gross atomic population
  ZA   - Total nuclear charge
  QA   - Mulliken gross atomic charge
  VA   - Mayer's total valence
  BVA  - Mayer's bonded valence
  FA   - Mayer's free valence

  ATOM       NA         ZA         QA         VA         BVA        FA
  0 C      6.0203     6.0000    -0.0203     3.7803     3.7803     0.0000
  1 C      5.8647     6.0000     0.1353     3.8266     3.8266    -0.0000
  2 O      8.1968     8.0000    -0.1968     2.3941     2.3941    -0.0000
  3 C      5.9920     6.0000     0.0080     3.7327     3.7327    -0.0000
  4 C      6.0375     6.0000    -0.0375     3.8905     3.8905    -0.0000
  5 P     14.6673    15.0000     0.3327     2.9315     2.9315    -0.0000
  6 C      5.9920     6.0000     0.0080     3.7328     3.7328    -0.0000
  7 C      6.0374     6.0000    -0.0374     3.8905     3.8905    -0.0000
  8 C      6.0203     6.0000    -0.0203     3.7803     3.7803    -0.0000
  9 C      5.8647     6.0000     0.1353     3.8267     3.8267    -0.0000
 10 O      8.1968     8.0000    -0.1968     2.3941     2.3941    -0.0000
 11 C      5.9920     6.0000     0.0080     3.7327     3.7327    -0.0000
 12 C      6.0375     6.0000    -0.0375     3.8905     3.8905    -0.0000
 13 C      6.0203     6.0000    -0.0203     3.7803     3.7803    -0.0000
 14 C      5.8648     6.0000     0.1352     3.8267     3.8267    -0.0000
 15 O      8.1968     8.0000    -0.1968     2.3941     2.3941    -0.0000
 16 H      1.0034     1.0000    -0.0034     0.9888     0.9888    -0.0000
 17 H      0.9885     1.0000     0.0115     0.9958     0.9958    -0.0000
 18 H      1.0076     1.0000    -0.0076     0.9956     0.9956    -0.0000
 19 H      1.0076     1.0000    -0.0076     0.9956     0.9956    -0.0000
 20 H      1.0034     1.0000    -0.0034     0.9888     0.9888    -0.0000
 21 H      0.9885     1.0000     0.0115     0.9958     0.9958     0.0000
 22 H      1.0076     1.0000    -0.0076     0.9956     0.9956     0.0000
 23 H      1.0034     1.0000    -0.0034     0.9888     0.9888    -0.0000
 24 H      0.9885     1.0000     0.0115     0.9958     0.9958    -0.0000

  Mayer bond orders larger than 0.100000
B(  0-C ,  1-C ) :   1.5369 B(  0-C ,  4-C ) :   1.2208 B(  0-C , 16-H ) :   1.0000 
B(  1-C ,  2-O ) :   1.1588 B(  1-C ,  3-C ) :   0.1002 B(  1-C , 17-H ) :   0.9997 
B(  2-O ,  3-C ) :   1.0977 B(  3-C ,  4-C ) :   1.5755 B(  3-C ,  5-P ) :   0.9214 
B(  4-C , 18-H ) :   1.0070 B(  5-P ,  6-C ) :   0.9215 B(  5-P , 11-C ) :   0.9214 
B(  6-C ,  7-C ) :   1.5755 B(  6-C ,  9-C ) :   0.1002 B(  6-C , 10-O ) :   1.0977 
B(  7-C ,  8-C ) :   1.2208 B(  7-C , 19-H ) :   1.0071 B(  8-C ,  9-C ) :   1.5369 
B(  8-C , 20-H ) :   1.0000 B(  9-C , 10-O ) :   1.1588 B(  9-C , 21-H ) :   0.9997 
B( 11-C , 12-C ) :   1.5755 B( 11-C , 14-C ) :   0.1002 B( 11-C , 15-O ) :   1.0977 
B( 12-C , 13-C ) :   1.2208 B( 12-C , 22-H ) :   1.0071 B( 13-C , 14-C ) :   1.5369 
B( 13-C , 23-H ) :   1.0000 B( 14-C , 15-O ) :   1.1588 B( 14-C , 24-H ) :   0.9997 


-------
TIMINGS
-------

Total SCF time: 0 days 0 hours 0 min 8 sec 

Total time                  ....       8.394 sec
Sum of individual times     ....       8.335 sec  ( 99.3%)

SCF preparation             ....       0.097 sec  (  1.2%)
Fock matrix formation       ....       7.981 sec  ( 95.1%)
  Startup                   ....       0.014 sec  (  0.2% of F)
  Exchange formation        ....       5.778 sec  ( 72.4% of F)
  Split-RI-J                ....       0.778 sec  (  9.7% of F)
  XC integration            ....       1.357 sec  ( 17.0% of F)
    Basis function eval.    ....       0.378 sec  ( 27.9% of XC)
    Density eval.           ....       0.358 sec  ( 26.4% of XC)
    XC-Functional eval.     ....       0.041 sec  (  3.0% of XC)
    XC-Potential eval.      ....       0.322 sec  ( 23.7% of XC)
Diagonalization             ....       0.000 sec  (  0.0%)
Density matrix formation    ....       0.029 sec  (  0.3%)
Total Energy calculation    ....       0.012 sec  (  0.1%)
Population analysis         ....       0.074 sec  (  0.9%)
Orbital Transformation      ....       0.021 sec  (  0.3%)
Orbital Orthonormalization  ....       0.000 sec  (  0.0%)
DIIS solution               ....       0.027 sec  (  0.3%)
SOSCF solution              ....       0.094 sec  (  1.1%)
Finished LeanSCF after   8.4 sec

Maximum memory used throughout the entire LEANSCF-calculation: 27.2 MB


-------------------------------------------------------------------------------
                          DFT DISPERSION CORRECTION                            
                                                                               
                              DFTD3 V3.1  Rev 1                                
                          USING Becke-Johnson damping                          
-------------------------------------------------------------------------------
The B3LYP functional is recognized
Active option DFTDOPT                   ...         4   

molecular C6(AA) [au] = 9291.160047 


            DFT-D V3
 parameters
 s6 scaling factor         :     1.0000 
 a1 scaling factor         :     0.3981 
 s8 scaling factor         :     1.9889 
 a2 scaling factor         :     4.4211 
 ad hoc parameters k1-k3   :    16.0000     1.3333    -4.0000 

 Edisp/kcal,au: -33.021273741144  -0.052622743693 
 E6   /kcal   : -14.799189418 
 E8   /kcal   : -18.222084323 
 % E8         :  55.182863224 

-------------------------   ----------------
Dispersion correction           -0.052622744
-------------------------   ----------------


-------------------------   --------------------
FINAL SINGLE POINT ENERGY     -1028.646645599597
-------------------------   --------------------

                                *** OPTIMIZATION RUN DONE ***



           ************************************************************
           *        Program running with 6 parallel MPI-processes     *
           *              working on a common directory               *
           ************************************************************

------------------------------------------------------------------------------
                              ORCA PROPERTY CALCULATIONS
------------------------------------------------------------------------------

GBWName                                 ... data/geom_opt/521585/521585.gbw
Number of atoms                         ...     25
Number of basis functions               ...    273
Max core memory                         ...   1024 MB

Electric properties:
Dipole moment                           ... YES
Quadrupole moment                       ...  NO
Static polarizability (Dipole/Dipole)   ...  NO
Static polarizability (Dipole/Quad.)    ...  NO
Static polarizability (Quad./Quad.)     ...  NO
Static polarizability (Velocity)        ...  NO

Atomic electric properties:
Dipole moment                           ...  NO
Quadrupole moment                       ...  NO
Static polarizability                   ...  NO

Choice of electric origin               ... Center of mass
Position of electric origin             ...    -0.041253     0.018301    -0.105144

General magnetic properties:
Magnetizability                         ...  NO

EPR properties:
g-Tensor (aka g-matrix)                 ...  NO
Zero-Field splitting spin-orbit         ...  NO
Zero-field splitting spin-spin          ...  NO
Hyperfine couplings                     ...  NO (   0 nuclei)
Quadrupole couplings                    ...  NO (   0 nuclei)
Contact density                         ...  NO (   0 nuclei)

NMR properties:
Chemical shifts                         ...  NO (   0 nuclei)
Spin-rotation constants                 ...  NO (   0 nuclei)
Spin-spin couplings                     ...  NO (   0 nuclei,    0 pairs)

Choice of magnetic origin               ... GIAO
Position of magnetic origin             ...     0.000000     0.000000     0.000000

Properties with geometric perturbations:
SCF Hessian                             ...  NO
IR spectrum                             ...  NO
VCD spectrum                            ...  NO
X-ray spectroscopy properties:
SCF XES/XAS/RIXS spectra                ...  NO


-------------
DIPOLE MOMENT
-------------

Method             : SCF
Type of density    : Electron Density
Multiplicity       :   1
Irrep              :   0
Energy             : -1028.5940228559036314 Eh
Relativity type    : 
Basis              : AO
                                X                 Y                 Z
Electronic contribution:     -0.509028797       0.226366112      -1.298494140
Nuclear contribution   :      0.589069003      -0.262070262       1.503007172
                        -----------------------------------------
Total Dipole Moment    :      0.080040206      -0.035704150       0.204513032
                        -----------------------------------------
Magnitude (a.u.)       :      0.222501239
Magnitude (Debye)      :      0.565553204



--------------------
Rotational spectrum 
--------------------
 
Rotational constants in cm-1:             0.017041             0.017033             0.010873 
Rotational constants in MHz :           510.877638           510.638602           325.964018 

Dipole components along the rotational axes: 
x,y,z [a.u.] :     0.000353    -0.000181     0.222501 
x,y,z [Debye]:     0.000898    -0.000459     0.565552 

 

Dipole moment calculation done in   0.0 sec 

Maximum memory used throughout the entire PROP-calculation: 13.7 MB

--------------------------------
SUGGESTED CITATIONS FOR THIS RUN
--------------------------------

Below you find a list of papers that are relevant to this ORCA run
We neither can nor want to force you to cite these papers, but we appreciate if you do
You receive ORCA, which is the product of decades of hard work by many enthusiastic individuals, for free
The only thing we kindly ask in return is that you cite our papers,
We deeply appreciate it, if you show your appreciation for ORCA by not just citing the generic ORCA reference.

Please note that relegating all ORCA citations to the supporting information does *not* help us.
SI sections are not indexed - citations you put there will not count into any citation statistics
But we need these citations in order to attract the funding resources that allow us to do what we are doing

Therefore, if you are a happy ORCA user, please consider citing a few of the papers listed below in the main body of your paper

In addition to the list printed below, the program has created the file data/geom_opt/521585/521585.bibtex that contains the list in bibtex format
You can import this file easily into all common literature databanks and citation aid programs


List of essential papers. We consider these as the minimum necessary citations

  1. Neese,F.
     Software update: the ORCA program system, version 5.0
     WIRES Comput. Molec. Sci., 2022 12(1)e1606
     doi.org/10.1002/wcms.1606

List of papers to cite with high priority. The work reported in these papers was absolutely
necessary for this run to complete.
Our perspective: the developers of density functionals and basis sets usually get cited in chemistry papers
Good! But without the algorithms to do something with them, the functionals or basis sets would not do anything.
Hence, in our opinion, the algorithm design and method developments papers are equally worthy of getting cited

  1. Neese,F.
     An improvement of the resolution of the identity approximation for the formation of the Coulomb matrix
     J. Comp. Chem., 2003 24(14)1740-1747
     doi.org/10.1002/jcc.10318
  2. Neese,F.
     The SHARK Integral Generation and Digestion System
     J. Comp. Chem., 2022  1-16
     doi.org/10.1002/jcc.26942
  3. Grimme,S.; Antony,J.; Ehrlich,S.; Krieg,H.
     A consistent and accurate ab initio parametrization of density functional dispersion correction (DFT-D) for the 94 elements H-Pu
     J. Chem. Phys., 2010 132 154104-XXXX
     doi.org/10.1063/1.3382344
  4. Grimme,S.; Ehrlich,S.; Goerigk,L.
     Effect of the damping function in dispersion corrected density functional theory
     J. Comput. Chem., 2011 32(7)1456-1465
     doi.org/10.1002/jcc.21759

List of suggested additional citations. These are papers that are important in the 'surrounding' of 
of this run, or papers that preceded the highly important papers. If you like your results we are grateful for a citation.

  1. Neese,F.
     The ORCA program system
     WIRES Comput. Molec. Sci., 2012 2(1)73-78
     doi.org/10.1002/wcms.81
  2. Neese,F.
     Software update: the ORCA program system, version 4.0
     WIRES Comput. Molec. Sci., 2018 8(1)1-6
     doi.org/10.1002/wcms.1327
  3. Neese,F.; Wennmohs,F.; Becker,U.; Riplinger,C.
     The ORCA quantum chemistry program package
     J. Chem. Phys., 2020 152 Art. No. L224108
     doi.org/10.1063/5.0004608

List of optional additional citations

  1. Neese,F.
     Approximate second-order SCF convergence for spin unrestricted wavefunctions
     Chem. Phys. Lett., 2000 325(1-3)93-98
     doi.org/10.1016/s0009-2614(00)00662-x

Timings for individual modules:

Sum of individual times          ...      462.641 sec (=   7.711 min)
Startup calculation              ...       15.497 sec (=   0.258 min)   3.3 %
SCF iterations                   ...      305.656 sec (=   5.094 min)  66.1 %
Property calculations            ...        0.167 sec (=   0.003 min)   0.0 %
SCF Gradient evaluation          ...      141.158 sec (=   2.353 min)  30.5 %
Geometry relaxation              ...        0.163 sec (=   0.003 min)   0.0 %
                             ****ORCA TERMINATED NORMALLY****
TOTAL RUN TIME: 0 days 0 hours 7 minutes 45 seconds 596 msec
