
                                 *****************
                                 * O   R   C   A *
                                 *****************

                                            #,                                       
                                            ###                                      
                                            ####                                     
                                            #####                                    
                                            ######                                   
                                           ########,                                 
                                     ,,################,,,,,                         
                               ,,#################################,,                 
                          ,,##########################################,,             
                       ,#########################################, ''#####,          
                    ,#############################################,,   '####,        
                  ,##################################################,,,,####,       
                ,###########''''           ''''###############################       
              ,#####''   ,,,,##########,,,,          '''####'''          '####       
            ,##' ,,,,###########################,,,                        '##       
           ' ,,###''''                  '''############,,,                           
         ,,##''                                '''############,,,,        ,,,,,,###''
      ,#''                                            '''#######################'''  
     '                                                          ''''####''''         
             ,#######,   #######,   ,#######,      ##                                
            ,#'     '#,  ##    ##  ,#'     '#,    #''#        ,####,   ,####,        
            ##       ##  ##   ,#'  ##            #'  '#       #'       #'  '#        
            ##       ##  #######   ##           ,######,      #####,   #    #        
            '#,     ,#'  ##    ##  '#,     ,#' ,#      #,     #,   #   #,  ,#        
             '#######'   ##     ##  '#######'  #'      '#     '####' # '####'        



                #########################################################
                #                        -***-                          #
                #          Department of theory and spectroscopy        #
                #                                                       #
                #                      Frank Neese                      #
                #                                                       #
                #     Directorship, Architecture, Infrastructure        #
                #                    SHARK, DRIVERS                     #
                #        Core code/Algorithms in most modules           #
                #                                                       #
                #        Max Planck Institute fuer Kohlenforschung      #
                #                Kaiser Wilhelm Platz 1                 #
                #                 D-45470 Muelheim/Ruhr                 #
                #                      Germany                          #
                #                                                       #
                #                  All rights reserved                  #
                #                        -***-                          #
                #########################################################


                         Program Version 6.0.0  -   RELEASE   -


 With contributions from (in alphabetic order):
   Daniel Aravena         : Magnetic Suceptibility
   Michael Atanasov       : Ab Initio Ligand Field Theory (pilot matlab implementation)
   Alexander A. Auer      : GIAO ZORA, VPT2 properties, NMR spectrum
   Ute Becker             : All parallelization in ORCA, NUMFREQ, NUMCALC
   Giovanni Bistoni       : ED, misc. LED, open-shell LED, HFLD
   Martin Brehm           : Molecular dynamics
   Dmytro Bykov           : pre 5.0 version of the SCF Hessian
   Marcos Casanova-Páez   : Triplet and SCS-CIS(D). UHF-(DLPNO)-IP/EA/STEOM-CCSD. UHF-CVS-IP/STEOM-CCSD
   Vijay G. Chilkuri      : MRCI spin determinant printing, contributions to CSF-ICE
   Pauline Colinet        : FMM embedding
   Dipayan Datta          : RHF DLPNO-CCSD density
   Achintya Kumar Dutta   : EOM-CC, STEOM-CC
   Nicolas Foglia         : Exact transition moments, OPA infrastructure, MCD improvements
   Dmitry Ganyushin       : Spin-Orbit,Spin-Spin,Magnetic field MRCI
   Miquel Garcia          : C-PCM and meta-GGA Hessian, CCSD/C-PCM, Gaussian charge scheme
   Tiago L. C. Gouveia    : GS-ROHF, GS-ROCIS
   Yang Guo               : DLPNO-NEVPT2, F12-NEVPT2, CIM, IAO-localization
   Andreas Hansen         : Spin unrestricted coupled pair/coupled cluster methods
   Ingolf Harden          : AUTO-CI MPn and infrastructure 
   Benjamin Helmich-Paris : MC-RPA, TRAH-(SCF,CASSCF), AVAS, COSX integrals, SCF dyn. polar.
   Lee Huntington         : MR-EOM, pCC
   Robert Izsak           : Overlap fitted RIJCOSX, COSX-SCS-MP3, EOM
   Riya Kayal             : Wick's Theorem for AUTO-CI, AUTO-CI UHF-CCSDT
   Emily Kempfer          : AUTO-CI, RHF CISDT and CCSDT
   Christian Kollmar      : KDIIS, OOCD, Brueckner-CCSD(T), CCSD density, CASPT2, CASPT2-K, improved NEVPT2
   Axel Koslowski         : Symmetry handling
   Simone Kossmann        : Meta GGA functionals, TD-DFT gradient, OOMP2, (MP2 Hessian; deprecated post 5.0)
   Lucas Lang             : DCDCAS
   Marvin Lechner         : AUTO-CI (C++ implementation), FIC-MRCC
   Spencer Leger          : CASSCF response
   Dagmar Lenk            : GEPOL surface, SMD, ORCA-2-JSON
   Dimitrios Liakos       : Extrapolation schemes; Compound Job, initial MDCI parallelization
   Dimitrios Manganas     : Further ROCIS development; embedding schemes. LFT, Crystal Embedding
   Dimitrios Pantazis     : SARC Basis sets
   Anastasios Papadopoulos: AUTO-CI, single reference methods and gradients
   Taras Petrenko         : pre 6.0 DFT Hessian and TD-DFT gradient, (ASA, deprecated), ECA, 1-Electron XAS/XES, NRVS
   Peter Pinski           : DLPNO-MP2, DLPNO-MP2 Gradient
   Christoph Reimann      : Effective Core Potentials
   Marius Retegan         : Local ZFS, SOC
   Christoph Riplinger    : Optimizer, TS searches, QM/MM, DLPNO-CCSD(T), (RO)-DLPNO pert. Triples
   Michael Roemelt        : Original ROCIS implementation
   Masaaki Saitow         : Open-shell DLPNO-CCSD energy and density
   Barbara Sandhoefer     : DKH picture change effects
   Kantharuban Sivalingam : CASSCF convergence/infrastructure, NEVPT2 and variants, FIC-MRCI
   Bernardo de Souza      : ESD, SOC TD-DFT
   Georgi Stoychev        : AutoAux, RI-MP2 NMR, DLPNO-MP2 response, X2C
   Van Anh Tran           : RI-MP2 g-tensors
   Willem Van den Heuvel  : Paramagnetic NMR
   Zikuan Wang            : NOTCH, Electric field optimization 
   Frank Wennmohs         : Technical directorship and infrastructure
   Hang Xu                : AUTO-CI-Response properties 


 We gratefully acknowledge several colleagues who have allowed us to
 interface, adapt or use parts of their codes:
   Stefan Grimme, W. Hujo, H. Kruse, P. Pracht,  : VdW corrections, initial TS optimization,
                  C. Bannwarth, S. Ehlert,         DFT functionals, gCP, sTDA/sTD-DF
                  L. Wittmann, M. Mueller
   Ed Valeev, F. Pavosevic, A. Kumar             : LibInt (2-el integral package), F12 methods
   Garnet Chan, S. Sharma, J. Yang, R. Olivares  : DMRG
   Ulf Ekstrom                                   : XCFun DFT Library
   Mihaly Kallay                                 : mrcc  (arbitrary order and MRCC methods)
   Frank Weinhold                                : gennbo (NPA and NBO analysis)
   Simon Mueller                                 : openCOSMO-RS
   Christopher J. Cramer and Donald G. Truhlar   : smd solvation model
   Lars Goerigk                                  : TD-DFT with DH, B97 family of functionals
   V. Asgeirsson, H. Jonsson                     : NEB implementation
   FAccTs GmbH                                   : IRC, NEB, NEB-TS, DLPNO-Multilevel, CI-OPT
                                                   MM, QMMM, 2- and 3-layer-ONIOM, Crystal-QMMM,
                                                   LR-CPCM, SF, NACMEs, symmetry and pop. for TD-DFT,
                                                   nearIR, NL-DFT gradient (VV10), updates on ESD,
                                                   ML-optimized integration grids, MBIS, APM,
                                                   GOAT, DOCKER, SOLVATOR, interface openCOSMO-RS
   S Lehtola, MJT Oliveira, MAL Marques          : LibXC Library
   Liviu Ungur et al                             : ANISO software


 Your calculation uses the libint2 library for the computation of 2-el integrals
 For citations please refer to: http://libint.valeyev.net

 Your ORCA version has been built with support for libXC version: 6.2.2
 For citations please refer to: https://libxc.gitlab.io

 This ORCA versions uses:
   CBLAS   interface :  Fast vector & matrix operations
   LAPACKE interface :  Fast linear algebra routines
   Shared memory     :  Shared parallel matrices


Your calculation utilizes the atom-pairwise dispersion correction
with the Becke-Johnson damping scheme (D3BJ)


Warning: RI is on but no J-basis has been assigned. Assigning Def2/J (nothing to worry about!)
================================================================================

----- Orbital basis set information -----
Your calculation utilizes the basis: def2-SVP
   F. Weigend and R. Ahlrichs, Phys. Chem. Chem. Phys. 7, 3297 (2005).

----- AuxJ basis set information -----
Your calculation utilizes the auxiliary basis: def2/J
   F. Weigend, Phys. Chem. Chem. Phys. 8, 1057 (2006).

================================================================================
                                        WARNINGS
                       Please study these warnings very carefully!
================================================================================


WARNING: Geometry Optimization
  ===> : Switching off AutoStart
         For restart on a previous wavefunction, please use MOREAD

================================================================================
                                       INPUT FILE
================================================================================
NAME = data/geom_opt/75806/75806.inp
|  1> ! RIJONX B3LYP def2-SVP D3BJ TIGHTSCF Opt
|  2> %pal
|  3> nprocs 6
|  4> end
|  5> 
|  6> * xyz 0 1
|  7> C     -3.937703   -2.393980   -0.714327
|  8> C     -2.570580   -3.034328   -0.915380
|  9> C     -1.519776   -2.438077    0.021326
| 10> C     -1.422891   -0.906120   -0.118741
| 11> C     -2.818338   -0.286836    0.102065
| 12> C     -3.862057   -0.878223   -0.843498
| 13> P     -0.203779   -0.184225    1.081163
| 14> C      0.108517    1.547290    0.503101
| 15> C     -0.699972    2.544966    1.365435
| 16> C     -0.891844    3.913769    0.702771
| 17> C      0.257873    4.260433   -0.232135
| 18> C      0.403070    3.235688   -1.358230
| 19> C     -0.107458    1.839175   -0.983699
| 20> C      1.381265   -1.084945    0.760674
| 21> C      2.455499   -0.687494    1.791561
| 22> C      3.729427   -1.515882    1.620478
| 23> C      4.269019   -1.437379    0.196194
| 24> C      3.204555   -1.814977   -0.829200
| 25> C      1.939961   -0.971943   -0.659942
| 26> H     -4.645570   -2.793517   -1.449129
| 27> H     -4.323109   -2.658203    0.278099
| 28> H     -2.642112   -4.114835   -0.746713
| 29> H     -2.250774   -2.894822   -1.955493
| 30> H     -1.764134   -2.713367    1.056026
| 31> H     -0.559743   -2.911534   -0.211816
| 32> H     -1.097786   -0.687124   -1.141471
| 33> H     -2.798612    0.797873   -0.045538
| 34> H     -3.146045   -0.449895    1.138037
| 35> H     -3.612995   -0.608422   -1.877158
| 36> H     -4.843688   -0.441719   -0.627054
| 37> H      1.165921    1.745080    0.719515
| 38> H     -0.175860    2.682570    2.321235
| 39> H     -1.691907    2.155473    1.626574
| 40> H     -0.998252    4.683598    1.475464
| 41> H     -1.829962    3.912088    0.133310
| 42> H      0.113740    5.259183   -0.659451
| 43> H      1.190266    4.300791    0.345102
| 44> H     -0.140321    3.580855   -2.246252
| 45> H      1.459233    3.179062   -1.648668
| 46> H      0.379607    1.106291   -1.632896
| 47> H     -1.175038    1.790291   -1.228632
| 48> H      1.159249   -2.142885    0.948870
| 49> H      2.710978    0.375202    1.695652
| 50> H      2.079823   -0.827953    2.813167
| 51> H      4.493334   -1.165575    2.323810
| 52> H      3.519251   -2.562422    1.873542
| 53> H      5.134418   -2.101387    0.091900
| 54> H      4.622172   -0.418184   -0.003645
| 55> H      3.604326   -1.679085   -1.840484
| 56> H      2.953341   -2.877602   -0.724498
| 57> H      2.194913    0.068791   -0.890295
| 58> H      1.200550   -1.295526   -1.400731
| 59> **                         ****END OF INPUT****
================================================================================

                       *****************************
                       * Geometry Optimization Run *
                       *****************************

Geometry optimization settings:
Update method            Update   .... BFGS
Choice of coordinates    CoordSys .... (2022) Redundant Internals
Initial Hessian          InHess   .... Almloef's Model
Max. no of cycles        MaxIter  .... 156

Convergence Tolerances:
Energy Change            TolE     ....  5.0000e-06 Eh
Max. Gradient            TolMAXG  ....  3.0000e-04 Eh/bohr
RMS Gradient             TolRMSG  ....  1.0000e-04 Eh/bohr
Max. Displacement        TolMAXD  ....  4.0000e-03 bohr
RMS Displacement         TolRMSD  ....  2.0000e-03 bohr
Strict Convergence                .... False

------------------------------------------------------------------------------
                        ORCA OPTIMIZATION COORDINATE SETUP
------------------------------------------------------------------------------

The optimization will be done in redundant internal coordinates (2022)
Making redundant internal coordinates   ...  (2022 redundants) done
Evaluating the initial hessian          ...  (Almloef) done
Evaluating the coordinates              ...  done
Calculating the B-matrix                .... done
Calculating the G-matrix                .... done
Diagonalizing the G-matrix              .... done
Small eigenvalue found = 4.100e-03
Small eigenvalue found = 4.819e-03
Small eigenvalue found = 8.774e-03
Small eigenvalue found = 1.705e-02
Small eigenvalue found = 2.156e-02
Small eigenvalue found = 2.349e-02
The first mode is                       ....  138
The number of degrees of freedom        ....  150

    -----------------------------------------------------------------
                    Redundant Internal Coordinates


    -----------------------------------------------------------------
         Definition                    Initial Value    Approx d2E/dq
    -----------------------------------------------------------------
      1. B(C   1,C   0)                  1.5230         0.383322   
      2. B(C   2,C   1)                  1.5288         0.375273   
      3. B(C   3,C   2)                  1.5414         0.358260   
      4. B(C   4,C   3)                  1.5426         0.356709   
      5. B(C   5,C   4)                  1.5275         0.377057   
      6. B(C   5,C   0)                  1.5231         0.383122   
      7. B(P   6,C   3)                  1.8566         0.378206   
      8. B(C   7,P   6)                  1.8520         0.384745   
      9. B(C   8,C   7)                  1.5468         0.351199   
     10. B(C   9,C   8)                  1.5328         0.369714   
     11. B(C  10,C   9)                  1.5219         0.384907   
     12. B(C  11,C  10)                  1.5295         0.374305   
     13. B(C  12,C  11)                  1.5333         0.369006   
     14. B(C  12,C   7)                  1.5305         0.372895   
     15. B(C  13,P   6)                  1.8510         0.386066   
     16. B(C  14,C  13)                  1.5410         0.358783   
     17. B(C  15,C  14)                  1.5292         0.374703   
     18. B(C  16,C  15)                  1.5251         0.380371   
     19. B(C  17,C  16)                  1.5255         0.379826   
     20. B(C  18,C  17)                  1.5292         0.374629   
     21. B(C  18,C  13)                  1.5307         0.372607   
     22. B(H  19,C   0)                  1.0957         0.352590   
     23. B(H  20,C   0)                  1.0969         0.351045   
     24. B(H  21,C   1)                  1.0959         0.352341   
     25. B(H  22,C   1)                  1.0971         0.350862   
     26. B(H  23,C   2)                  1.0982         0.349381   
     27. B(H  24,C   2)                  1.0955         0.352862   
     28. B(H  25,C   3)                  1.0953         0.353188   
     29. B(H  26,C   4)                  1.0949         0.353698   
     30. B(H  27,C   4)                  1.0987         0.348728   
     31. B(H  28,C   5)                  1.0969         0.351035   
     32. B(H  29,C   5)                  1.0959         0.352387   
     33. B(H  30,C   7)                  1.0973         0.350576   
     34. B(H  31,C   8)                  1.0987         0.348750   
     35. B(H  32,C   8)                  1.0972         0.350709   
     36. B(H  33,C   9)                  1.0959         0.352369   
     37. B(H  34,C   9)                  1.0974         0.350403   
     38. B(H  35,C  10)                  1.0958         0.352451   
     39. B(H  36,C  10)                  1.0974         0.350501   
     40. B(H  37,C  11)                  1.0968         0.351200   
     41. B(H  38,C  11)                  1.0968         0.351174   
     42. B(H  39,C  12)                  1.0935         0.355460   
     43. B(H  40,C  12)                  1.0964         0.351723   
     44. B(H  41,C  13)                  1.0972         0.350643   
     45. B(H  42,C  14)                  1.0972         0.350734   
     46. B(H  43,C  14)                  1.0975         0.350294   
     47. B(H  44,C  15)                  1.0959         0.352410   
     48. B(H  45,C  15)                  1.0970         0.350927   
     49. B(H  46,C  16)                  1.0958         0.352555   
     50. B(H  47,C  16)                  1.0970         0.350957   
     51. B(H  48,C  17)                  1.0959         0.352390   
     52. B(H  49,C  17)                  1.0969         0.351056   
     53. B(H  50,C  18)                  1.0960         0.352265   
     54. B(H  51,C  18)                  1.0955         0.352848   
     55. A(C   5,C   0,H  20)          109.5047         0.324306   
     56. A(C   1,C   0,H  20)          109.4844         0.324334   
     57. A(C   5,C   0,H  19)          109.7597         0.324540   
     58. A(C   1,C   0,H  19)          109.7592         0.324568   
     59. A(C   1,C   0,C   5)          111.2625         0.366536   
     60. A(H  19,C   0,H  20)          106.9720         0.288724   
     61. A(H  21,C   1,H  22)          106.8766         0.288669   
     62. A(C   2,C   1,H  21)          109.5785         0.323402   
     63. A(C   0,C   1,H  22)          109.4732         0.324306   
     64. A(C   0,C   1,C   2)          111.8475         0.365239   
     65. A(C   0,C   1,H  21)          109.6109         0.324531   
     66. A(C   2,C   1,H  22)          109.3260         0.323179   
     67. A(C   1,C   2,C   3)          112.0342         0.361044   
     68. A(C   1,C   2,H  24)          107.6614         0.323480   
     69. A(C   3,C   2,H  23)          110.4098         0.320511   
     70. A(H  23,C   2,H  24)          106.6877         0.288544   
     71. A(C   1,C   2,H  23)          109.0610         0.322955   
     72. A(C   3,C   2,H  24)          110.8000         0.321031   
     73. A(P   6,C   3,H  25)          109.3189         0.343904   
     74. A(C   2,C   3,C   4)          109.2163         0.357937   
     75. A(C   4,C   3,H  25)          108.7781         0.320852   
     76. A(C   2,C   3,H  25)          107.5916         0.321079   
     77. A(C   4,C   3,P   6)          110.2056         0.384387   
     78. A(C   2,C   3,P   6)          111.6528         0.384678   
     79. A(H  26,C   4,H  27)          106.2311         0.288567   
     80. A(C   5,C   4,H  26)          108.2055         0.323858   
     81. A(C   3,C   4,H  27)          110.1938         0.320186   
     82. A(C   3,C   4,H  26)          111.2314         0.320927   
     83. A(C   3,C   4,C   5)          111.9677         0.361068   
     84. A(C   5,C   4,H  27)          108.8093         0.323107   
     85. A(C   4,C   5,H  29)          109.6078         0.323661   
     86. A(C   4,C   5,H  28)          109.4483         0.323457   
     87. A(C   0,C   5,H  29)          109.5813         0.324510   
     88. A(C   0,C   5,H  28)          109.6308         0.324305   
     89. A(H  28,C   5,H  29)          106.9491         0.288697   
     90. A(C   0,C   5,C   4)          111.5141         0.365503   
     91. A(C   7,P   6,C  13)          104.8631         0.416541   
     92. A(C   3,P   6,C   7)          105.8147         0.415020   
     93. A(C   3,P   6,C  13)          105.1394         0.415273   
     94. A(P   6,C   7,C  12)          117.2409         0.388529   
     95. A(C   8,C   7,H  30)          106.1091         0.319648   
     96. A(P   6,C   7,H  30)          105.6324         0.344466   
     97. A(P   6,C   7,C   8)          109.9308         0.384493   
     98. A(C   8,C   7,C  12)          110.1701         0.359431   
     99. A(C  12,C   7,H  30)          107.0497         0.322799   
    100. A(C   9,C   8,H  32)          107.8623         0.322366   
    101. A(C   7,C   8,H  32)          112.1022         0.319668   
    102. A(C   9,C   8,H  31)          108.9022         0.322071   
    103. A(C   7,C   8,H  31)          108.4467         0.319376   
    104. A(C   7,C   8,C   9)          113.6022         0.358907   
    105. A(H  31,C   8,H  32)          105.5852         0.288187   
    106. A(C   8,C   9,C  10)          111.9888         0.364565   
    107. A(C  10,C   9,H  34)          109.1094         0.324457   
    108. A(H  33,C   9,H  34)          106.4955         0.288613   
    109. A(C   8,C   9,H  34)          109.2667         0.322320   
    110. A(C  10,C   9,H  33)          110.2720         0.324755   
    111. A(C   8,C   9,H  33)          109.5501         0.322616   
    112. A(C   9,C  10,C  11)          111.8020         0.365335   
    113. A(H  35,C  10,H  36)          106.4606         0.288636   
    114. A(C  11,C  10,H  36)          109.3461         0.322987   
    115. A(C   9,C  10,H  36)          109.0947         0.324471   
    116. A(C  11,C  10,H  35)          109.6347         0.323282   
    117. A(C   9,C  10,H  35)          110.3522         0.324767   
    118. A(H  37,C  11,H  38)          106.1954         0.288562   
    119. A(C  12,C  11,H  38)          109.7711         0.322335   
    120. A(C  10,C  11,H  38)          108.7212         0.323089   
    121. A(C  12,C  11,H  37)          108.6281         0.322339   
    122. A(C  10,C  11,H  37)          109.7689         0.323093   
    123. A(C  10,C  11,C  12)          113.5009         0.362709   
    124. A(H  39,C  12,H  40)          105.7351         0.289179   
    125. A(C  11,C  12,H  40)          108.0735         0.322417   
    126. A(C   7,C  12,H  40)          110.2379         0.322972   
    127. A(C  11,C  12,H  39)          108.4868         0.322977   
    128. A(C   7,C  12,H  39)          112.7091         0.323532   
    129. A(C   7,C  12,C  11)          111.3456         0.362476   
    130. A(C  14,C  13,C  18)          110.3273         0.360695   
    131. A(P   6,C  13,C  18)          115.9321         0.388709   
    132. A(C  18,C  13,H  41)          107.7108         0.322768   
    133. A(C  14,C  13,H  41)          105.9614         0.320776   
    134. A(P   6,C  13,H  41)          105.4389         0.344675   
    135. A(P   6,C  13,C  14)          110.8301         0.386155   
    136. A(C  15,C  14,H  43)          108.6613         0.323013   
    137. A(C  13,C  14,H  43)          110.5534         0.320724   
    138. A(C  15,C  14,H  42)          108.7194         0.323079   
    139. A(C  13,C  14,H  42)          110.7111         0.320790   
    140. A(C  13,C  14,C  15)          111.4801         0.361040   
    141. A(H  42,C  14,H  43)          106.5607         0.288389   
    142. A(H  44,C  15,H  45)          106.8848         0.288686   
    143. A(C  16,C  15,H  45)          109.4100         0.323905   
    144. A(C  14,C  15,H  45)          109.3523         0.323108   
    145. A(C  16,C  15,H  44)          109.6510         0.324129   
    146. A(C  14,C  15,H  44)          109.6181         0.323332   
    147. A(C  14,C  15,C  16)          111.7989         0.364661   
    148. A(H  46,C  16,H  47)          106.9425         0.288708   
    149. A(C  17,C  16,H  47)          109.3998         0.323833   
    150. A(C  15,C  16,H  47)          109.3812         0.323910   
    151. A(C  17,C  16,H  46)          109.7014         0.324075   
    152. A(C  15,C  16,H  46)          109.7017         0.324151   
    153. A(C  15,C  16,C  17)          111.5998         0.365510   
    154. A(C  16,C  17,C  18)          111.4802         0.364560   
    155. A(C  18,C  17,H  49)          109.5173         0.323117   
    156. A(C  16,C  17,H  49)          109.5989         0.323848   
    157. A(C  18,C  17,H  48)          109.5993         0.323318   
    158. A(C  16,C  17,H  48)          109.5751         0.324050   
    159. A(H  48,C  17,H  49)          106.9627         0.288700   
    160. A(H  50,C  18,H  51)          107.1790         0.288914   
    161. A(C  17,C  18,H  51)          108.6908         0.323387   
    162. A(C  13,C  18,H  51)          111.0637         0.323100   
    163. A(C  17,C  18,H  50)          107.9301         0.323299   
    164. A(C  13,C  18,C  17)          111.3370         0.363365   
    165. A(C  13,C  18,H  50)          110.4916         0.323013   
    166. D(H  21,C   1,C   0,C   5)    176.0022         0.011700   
    167. D(C   2,C   1,C   0,H  20)    -66.9199         0.011700   
    168. D(C   2,C   1,C   0,H  19)    175.9442         0.011700   
    169. D(C   2,C   1,C   0,C   5)     54.2592         0.011700   
    170. D(H  21,C   1,C   0,H  20)     54.8231         0.011700   
    171. D(H  21,C   1,C   0,H  19)    -62.3128         0.011700   
    172. D(H  23,C   2,C   1,H  21)    -54.5815         0.011239   
    173. D(C   3,C   2,C   1,C   0)    -55.3588         0.011239   
    174. D(C   3,C   2,C   1,H  21)   -177.1205         0.011239   
    175. D(H  23,C   2,C   1,C   0)     67.1801         0.011239   
    176. D(H  23,C   2,C   1,H  22)   -171.4059         0.011239   
    177. D(C   3,C   2,C   1,H  22)     66.0552         0.011239   
    178. D(C   4,C   3,C   2,H  24)    175.3407         0.010304   
    179. D(C   4,C   3,C   2,C   1)     55.0854         0.010304   
    180. D(C   4,C   3,C   2,H  23)    -66.6838         0.010304   
    181. D(P   6,C   3,C   2,H  23)     55.4510         0.010304   
    182. D(P   6,C   3,C   2,H  24)    -62.5245         0.010304   
    183. D(P   6,C   3,C   2,C   1)    177.2202         0.010304   
    184. D(H  26,C   4,C   3,P   6)     60.1810         0.010222   
    185. D(H  26,C   4,C   3,H  25)    -59.6519         0.010222   
    186. D(H  26,C   4,C   3,C   2)   -176.8177         0.010222   
    187. D(C   5,C   4,C   3,H  25)     61.5549         0.010222   
    188. D(C   5,C   4,C   3,P   6)   -178.6123         0.010222   
    189. D(C   5,C   4,C   3,C   2)    -55.6109         0.010222   
    190. D(H  28,C   5,C   0,H  20)   -172.0926         0.011689   
    191. D(H  28,C   5,C   0,C   1)     66.7402         0.011689   
    192. D(C   4,C   5,C   0,H  20)     66.5361         0.011689   
    193. D(C   4,C   5,C   0,C   1)    -54.6311         0.011689   
    194. D(H  28,C   5,C   0,H  19)    -54.9445         0.011689   
    195. D(C   0,C   5,C   4,C   3)     56.2258         0.011341   
    196. D(C   4,C   5,C   0,H  19)   -176.3157         0.011689   
    197. D(H  28,C   5,C   4,H  27)    172.7018         0.011341   
    198. D(H  28,C   5,C   4,C   3)    -65.2514         0.011341   
    199. D(H  28,C   5,C   4,H  26)     57.6863         0.011341   
    200. D(C   0,C   5,C   4,H  27)    -65.8209         0.011341   
    201. D(C   0,C   5,C   4,H  26)    179.1636         0.011341   
    202. D(C  13,P   6,C   3,C   4)    176.8887         0.003430   
    203. D(C  13,P   6,C   3,C   2)     55.3245         0.003430   
    204. D(C   7,P   6,C   3,H  25)     47.0539         0.003430   
    205. D(C   7,P   6,C   3,C   4)    -72.4512         0.003430   
    206. D(C   7,P   6,C   3,C   2)    165.9845         0.003430   
    207. D(H  30,C   7,P   6,C   3)   -144.7707         0.003499   
    208. D(C  12,C   7,P   6,C  13)     85.1957         0.003499   
    209. D(C  12,C   7,P   6,C   3)    -25.6597         0.003499   
    210. D(C   8,C   7,P   6,C  13)   -147.9910         0.003499   
    211. D(C   8,C   7,P   6,C   3)    101.1537         0.003499   
    212. D(H  31,C   8,C   7,H  30)    -35.5368         0.009932   
    213. D(H  31,C   8,C   7,C  12)   -151.0814         0.009932   
    214. D(H  31,C   8,C   7,P   6)     78.2334         0.009932   
    215. D(C   9,C   8,C   7,H  30)     85.6895         0.009932   
    216. D(C   9,C   8,C   7,C  12)    -29.8551         0.009932   
    217. D(C   9,C   8,C   7,P   6)   -160.5403         0.009932   
    218. D(H  33,C   9,C   8,H  32)     83.0283         0.010928   
    219. D(H  33,C   9,C   8,H  31)    -31.0960         0.010928   
    220. D(H  33,C   9,C   8,C   7)   -152.0671         0.010928   
    221. D(C  10,C   9,C   8,H  32)   -154.2944         0.010928   
    222. D(C  10,C   9,C   8,H  31)     91.5814         0.010928   
    223. D(C  10,C   9,C   8,C   7)    -29.3898         0.010928   
    224. D(H  35,C  10,C   9,H  33)    -55.4684         0.011793   
    225. D(H  35,C  10,C   9,C   8)   -177.7348         0.011793   
    226. D(C  11,C  10,C   9,H  33)   -177.7708         0.011793   
    227. D(C  11,C  10,C   9,C   8)     59.9627         0.011793   
    228. D(C  11,C  10,C   9,H  34)    -61.1355         0.011793   
    229. D(H  35,C  10,C   9,H  34)     61.1669         0.011793   
    230. D(H  37,C  11,C  10,H  36)   -144.5386         0.011185   
    231. D(H  37,C  11,C  10,H  35)    -28.1720         0.011185   
    232. D(H  37,C  11,C  10,C   9)     94.5401         0.011185   
    233. D(C  12,C  11,C  10,H  36)     93.6980         0.011185   
    234. D(C  12,C  11,C  10,H  35)   -149.9354         0.011185   
    235. D(C  12,C  11,C  10,C   9)    -27.2232         0.011185   
    236. D(H  39,C  12,C  11,H  38)    -35.3492         0.010889   
    237. D(H  39,C  12,C  11,H  37)     80.3684         0.010889   
    238. D(H  39,C  12,C  11,C  10)   -157.2345         0.010889   
    239. D(C   7,C  12,C  11,H  38)     89.2406         0.010889   
    240. D(C   7,C  12,C  11,H  37)   -155.0417         0.010889   
    241. D(C   7,C  12,C  11,C  10)    -32.6446         0.010889   
    242. D(H  39,C  12,C   7,H  30)     69.8012         0.011105   
    243. D(H  39,C  12,C   7,C   8)   -175.2481         0.011105   
    244. D(H  39,C  12,C   7,P   6)    -48.5517         0.011105   
    245. D(C  11,C  12,C   7,H  30)    -52.3799         0.011105   
    246. D(C  11,C  12,C   7,C   8)     62.5708         0.011105   
    247. D(C  11,C  12,C   7,P   6)   -170.7328         0.011105   
    248. D(H  41,C  13,P   6,C   3)    -59.9148         0.003513   
    249. D(C  18,C  13,P   6,C   7)    -52.2272         0.003513   
    250. D(C  18,C  13,P   6,C   3)     59.1128         0.003513   
    251. D(C  14,C  13,P   6,C   7)     74.5208         0.003513   
    252. D(C  14,C  13,P   6,C   3)   -174.1392         0.003513   
    253. D(H  42,C  14,C  13,H  41)   -177.9462         0.010332   
    254. D(H  42,C  14,C  13,C  18)     65.7340         0.010332   
    255. D(H  42,C  14,C  13,P   6)    -64.0508         0.010332   
    256. D(C  15,C  14,C  13,H  41)     60.8892         0.010332   
    257. D(C  15,C  14,C  13,C  18)    -55.4306         0.010332   
    258. D(C  15,C  14,C  13,P   6)    174.7846         0.010332   
    259. D(H  44,C  15,C  14,H  43)    -61.5371         0.011207   
    260. D(H  44,C  15,C  14,H  42)     54.0633         0.011207   
    261. D(H  44,C  15,C  14,C  13)    176.3818         0.011207   
    262. D(C  16,C  15,C  14,H  43)    176.6554         0.011207   
    263. D(C  16,C  15,C  14,H  42)    -67.7442         0.011207   
    264. D(C  16,C  15,C  14,C  13)     54.5743         0.011207   
    265. D(H  46,C  16,C  15,H  45)    -54.4030         0.011530   
    266. D(H  46,C  16,C  15,H  44)     62.5214         0.011530   
    267. D(H  46,C  16,C  15,C  14)   -175.6900         0.011530   
    268. D(C  17,C  16,C  15,H  45)     67.3930         0.011530   
    269. D(C  17,C  16,C  15,H  44)   -175.6825         0.011530   
    270. D(C  17,C  16,C  15,C  14)    -53.8940         0.011530   
    271. D(H  48,C  17,C  16,H  47)     54.8195         0.011499   
    272. D(H  48,C  17,C  16,H  46)    -62.1979         0.011499   
    273. D(H  48,C  17,C  16,C  15)    176.0059         0.011499   
    274. D(C  18,C  17,C  16,H  47)    -66.6819         0.011499   
    275. D(C  18,C  17,C  16,H  46)    176.3007         0.011499   
    276. D(C  18,C  17,C  16,C  15)     54.5045         0.011499   
    277. D(H  50,C  18,C  17,H  48)    -56.1065         0.011203   
    278. D(H  50,C  18,C  17,C  16)     65.3808         0.011203   
    279. D(C  13,C  18,C  17,H  49)     65.4156         0.011203   
    280. D(C  13,C  18,C  17,H  48)   -177.5334         0.011203   
    281. D(C  13,C  18,C  17,C  16)    -56.0461         0.011203   
    282. D(H  50,C  18,C  13,H  41)   -179.0038         0.011089   
    283. D(H  50,C  18,C  13,C  14)    -63.7805         0.011089   
    284. D(H  50,C  18,C  13,P   6)     63.2191         0.011089   
    285. D(C  17,C  18,C  13,H  41)    -59.0817         0.011089   
    286. D(C  17,C  18,C  13,C  14)     56.1416         0.011089   
    287. D(H  50,C  18,C  17,H  49)   -173.1575         0.011203   
    288. D(C  17,C  18,C  13,P   6)   -176.8588         0.011089   
    -----------------------------------------------------------------

Number of atoms                         .... 52
Number of degrees of freedom            .... 288


         *************************************************************
         *                GEOMETRY OPTIMIZATION CYCLE   1            *
         *************************************************************
---------------------------------
CARTESIAN COORDINATES (ANGSTROEM)
---------------------------------
  C     -3.937703   -2.393980   -0.714327
  C     -2.570580   -3.034328   -0.915380
  C     -1.519776   -2.438077    0.021326
  C     -1.422891   -0.906120   -0.118741
  C     -2.818338   -0.286836    0.102065
  C     -3.862057   -0.878223   -0.843498
  P     -0.203779   -0.184225    1.081163
  C      0.108517    1.547290    0.503101
  C     -0.699972    2.544966    1.365435
  C     -0.891844    3.913769    0.702771
  C      0.257873    4.260433   -0.232135
  C      0.403070    3.235688   -1.358230
  C     -0.107458    1.839175   -0.983699
  C      1.381265   -1.084945    0.760674
  C      2.455499   -0.687494    1.791561
  C      3.729427   -1.515882    1.620478
  C      4.269019   -1.437379    0.196194
  C      3.204555   -1.814977   -0.829200
  C      1.939961   -0.971943   -0.659942
  H     -4.645570   -2.793517   -1.449129
  H     -4.323109   -2.658203    0.278099
  H     -2.642112   -4.114835   -0.746713
  H     -2.250774   -2.894822   -1.955493
  H     -1.764134   -2.713367    1.056026
  H     -0.559743   -2.911534   -0.211816
  H     -1.097786   -0.687124   -1.141471
  H     -2.798612    0.797873   -0.045538
  H     -3.146045   -0.449895    1.138037
  H     -3.612995   -0.608422   -1.877158
  H     -4.843688   -0.441719   -0.627054
  H      1.165921    1.745080    0.719515
  H     -0.175860    2.682570    2.321235
  H     -1.691907    2.155473    1.626574
  H     -0.998252    4.683598    1.475464
  H     -1.829962    3.912088    0.133310
  H      0.113740    5.259183   -0.659451
  H      1.190266    4.300791    0.345102
  H     -0.140321    3.580855   -2.246252
  H      1.459233    3.179062   -1.648668
  H      0.379607    1.106291   -1.632896
  H     -1.175038    1.790291   -1.228632
  H      1.159249   -2.142885    0.948870
  H      2.710978    0.375202    1.695652
  H      2.079823   -0.827953    2.813167
  H      4.493334   -1.165575    2.323810
  H      3.519251   -2.562422    1.873542
  H      5.134418   -2.101387    0.091900
  H      4.622172   -0.418184   -0.003645
  H      3.604326   -1.679085   -1.840484
  H      2.953341   -2.877602   -0.724498
  H      2.194913    0.068791   -0.890295
  H      1.200550   -1.295526   -1.400731

----------------------------
CARTESIAN COORDINATES (A.U.)
----------------------------
  NO LB      ZA    FRAG     MASS         X           Y           Z
   0 C     6.0000    0    12.011   -7.441180   -4.523967   -1.349882
   1 C     6.0000    0    12.011   -4.857692   -5.734049   -1.729818
   2 C     6.0000    0    12.011   -2.871960   -4.607298    0.040300
   3 C     6.0000    0    12.011   -2.688874   -1.712319   -0.224388
   4 C     6.0000    0    12.011   -5.325887   -0.542041    0.192875
   5 C     6.0000    0    12.011   -7.298230   -1.659601   -1.593980
   6 P    15.0000    0    30.974   -0.385087   -0.348135    2.043102
   7 C     6.0000    0    12.011    0.205067    2.923954    0.950723
   8 C     6.0000    0    12.011   -1.322755    4.809289    2.580298
   9 C     6.0000    0    12.011   -1.685341    7.395952    1.328045
  10 C     6.0000    0    12.011    0.487309    8.051052   -0.438672
  11 C     6.0000    0    12.011    0.761692    6.114564   -2.566683
  12 C     6.0000    0    12.011   -0.203066    3.475537   -1.858922
  13 C     6.0000    0    12.011    2.610213   -2.050249    1.437466
  14 C     6.0000    0    12.011    4.640221   -1.299175    3.385560
  15 C     6.0000    0    12.011    7.047596   -2.864602    3.062260
  16 C     6.0000    0    12.011    8.067277   -2.716253    0.370753
  17 C     6.0000    0    12.011    6.055731   -3.429809   -1.566961
  18 C     6.0000    0    12.011    3.665995   -1.836706   -1.247110
  19 H     1.0000    0     1.008   -8.778855   -5.278982   -2.738457
  20 H     1.0000    0     1.008   -8.169492   -5.023276    0.525531
  21 H     1.0000    0     1.008   -4.992868   -7.775911   -1.411083
  22 H     1.0000    0     1.008   -4.253346   -5.470421   -3.695346
  23 H     1.0000    0     1.008   -3.333730   -5.127521    1.995600
  24 H     1.0000    0     1.008   -1.057761   -5.502002   -0.400274
  25 H     1.0000    0     1.008   -2.074515   -1.298476   -2.157068
  26 H     1.0000    0     1.008   -5.288610    1.507761   -0.086054
  27 H     1.0000    0     1.008   -5.945163   -0.850178    2.150578
  28 H     1.0000    0     1.008   -6.827571   -1.149751   -3.547315
  29 H     1.0000    0     1.008   -9.153244   -0.834728   -1.184960
  30 H     1.0000    0     1.008    2.203271    3.297723    1.359686
  31 H     1.0000    0     1.008   -0.332327    5.069323    4.386498
  32 H     1.0000    0     1.008   -3.197241    4.073254    3.073779
  33 H     1.0000    0     1.008   -1.886423    8.850718    2.788223
  34 H     1.0000    0     1.008   -3.458127    7.392775    0.251919
  35 H     1.0000    0     1.008    0.214937    9.938416   -1.246182
  36 H     1.0000    0     1.008    2.249277    8.127317    0.652148
  37 H     1.0000    0     1.008   -0.265168    6.766835   -4.244801
  38 H     1.0000    0     1.008    2.757551    6.007557   -3.115531
  39 H     1.0000    0     1.008    0.717353    2.090587   -3.085726
  40 H     1.0000    0     1.008   -2.220500    3.383160   -2.321778
  41 H     1.0000    0     1.008    2.190663   -4.049466    1.793104
  42 H     1.0000    0     1.008    5.123006    0.709029    3.204318
  43 H     1.0000    0     1.008    3.930296   -1.564604    5.316115
  44 H     1.0000    0     1.008    8.491171   -2.202618    4.391364
  45 H     1.0000    0     1.008    6.650421   -4.842276    3.540481
  46 H     1.0000    0     1.008    9.702644   -3.971046    0.173666
  47 H     1.0000    0     1.008    8.734639   -0.790253   -0.006888
  48 H     1.0000    0     1.008    6.811189   -3.173011   -3.478011
  49 H     1.0000    0     1.008    5.581006   -5.437880   -1.369103
  50 H     1.0000    0     1.008    4.147784    0.129996   -1.682414
  51 H     1.0000    0     1.008    2.268711   -2.448189   -2.646998

--------------------------------
INTERNAL COORDINATES (ANGSTROEM)
--------------------------------
 C      0   0   0     0.000000000000     0.00000000     0.00000000
 C      1   0   0     1.522988236016     0.00000000     0.00000000
 C      2   1   0     1.528765002168   111.84745514     0.00000000
 C      3   2   1     1.541394731262   112.03415076   304.64116196
 C      4   3   2     1.542575862673   109.21629793    55.08535443
 C      1   2   3     1.523130574707   111.26254200    54.25921009
 P      4   3   2     1.856646457672   111.65278095   177.22016329
 C      7   4   3     1.851979660440   105.81470396   165.98454244
 C      8   7   4     1.546813431430   109.93077130   101.15366603
 C      9   8   7     1.532827483473   113.60220974   199.45971198
 C     10   9   8     1.521865413833   111.98883662   330.61024158
 C     11  10   9     1.529468676652   111.80195036    59.96270864
 C      8   7   4     1.530495440650   117.24087411   334.34028987
 C      7   4   3     1.851046784783   105.13935239    55.32447628
 C     14   7   4     1.540997725802   110.83008754   185.86079734
 C     15  14   7     1.529179067545   111.48013720   174.78457760
 C     16  15  14     1.525092508712   111.79893050    54.57425633
 C     17  16  15     1.525482452254   111.59976100   306.10604745
 C     18  17  16     1.529232677050   111.48020793    54.50448256
 H      1   2   3     1.095736958974   109.75915047   175.94420993
 H      1   2   3     1.096932515719   109.48436002   293.08007883
 H      2   1   3     1.095929176983   109.61087783   121.74298568
 H      2   1   3     1.097074680430   109.47324456   238.67107050
 H      3   2   1     1.098225617195   109.06099416    67.18011801
 H      3   2   1     1.095527308698   107.66143883   182.57491656
 H      4   3   2     1.095275838290   107.59160750   297.17212209
 H      5   4   3     1.094883270201   111.23138055   183.18232856
 H      5   4   3     1.098734772415   110.19377364    65.64035300
 H      6   1   2     1.096940041682   109.63077874    66.74016833
 H      6   1   2     1.095893775561   109.58131161   183.83025159
 H      8   7   4     1.097296278455   105.63243044   215.22934116
 H      9   8   7     1.098718293904   108.44672281    78.23339209
 H      9   8   7     1.097193428068   112.10216509   322.05632382
 H     10   9   8     1.095907762521   109.55007950   207.93289074
 H     10   9   8     1.097430653028   109.26669024    91.61759098
 H     11  10   9     1.095844353932   110.35219421   182.26517474
 H     11  10   9     1.097355014925   109.09469214   298.89553144
 H     12  11  10     1.096812248862   109.76892345    94.54008468
 H     12  11  10     1.096832265339   108.72123069   210.30890609
 H     13   8   7     1.093530071141   112.70911142   311.44829474
 H     13   8   7     1.096407258433   110.23791839    69.32788502
 H     14   7   4     1.097244677486   105.43891310   300.08516436
 H     15  14   7     1.097174026369   110.71113900   295.94918126
 H     15  14   7     1.097515378887   110.55339515    53.80205726
 H     16  15  14     1.095876270900   109.61805737   176.38177921
 H     16  15  14     1.097023842344   109.35226692   293.25388611
 H     17  16  15     1.095764250056   109.70167661   184.30996645
 H     17  16  15     1.097000964154   109.38115822    67.30320878
 H     18  17  16     1.095891790626   109.57505953   176.00587928
 H     18  17  16     1.096924278711   109.59885236   293.09016707
 H     19  18  17     1.095988268947   107.93011166    65.38084711
 H     19  18  17     1.095537734325   108.69081292   181.30514942

---------------------------
INTERNAL COORDINATES (A.U.)
---------------------------
 C      0   0   0     0.000000000000     0.00000000     0.00000000
 C      1   0   0     2.878030671253     0.00000000     0.00000000
 C      2   1   0     2.888947177221   111.84745514     0.00000000
 C      3   2   1     2.912813906355   112.03415076   304.64116196
 C      4   3   2     2.915045921249   109.21629793    55.08535443
 C      1   2   3     2.878299652398   111.26254200    54.25921009
 P      4   3   2     3.508553332515   111.65278095   177.22016329
 C      7   4   3     3.499734363825   105.81470396   165.98454244
 C      8   7   4     2.923053765674   109.93077130   101.15366603
 C      9   8   7     2.896624154311   113.60220974   199.45971198
 C     10   9   8     2.875908844831   111.98883662   330.61024158
 C     11  10   9     2.890276929283   111.80195036    59.96270864
 C      8   7   4     2.892217232043   117.24087411   334.34028987
 C      7   4   3     3.497971484316   105.13935239    55.32447628
 C     14   7   4     2.912063674761   110.83008754   185.86079734
 C     15  14   7     2.889729647385   111.48013720   174.78457760
 C     16  15  14     2.882007170360   111.79893050    54.57425633
 C     17  16  15     2.882744056863   111.59976100   306.10604745
 C     18  17  16     2.889830954667   111.48020793    54.50448256
 H      1   2   3     2.070642767277   109.75915047   175.94420993
 H      1   2   3     2.072902042102   109.48436002   293.08007883
 H      2   1   3     2.071006006671   109.61087783   121.74298568
 H      2   1   3     2.073170694472   109.47324456   238.67107050
 H      3   2   1     2.075345649756   109.06099416    67.18011801
 H      3   2   1     2.070246585670   107.66143883   182.57491656
 H      4   3   2     2.069771375468   107.59160750   297.17212209
 H      5   4   3     2.069029529292   111.23138055   183.18232856
 H      5   4   3     2.076307813681   110.19377364    65.64035300
 H      6   1   2     2.072916264111   109.63077874    66.74016833
 H      6   1   2     2.070939107679   109.58131161   183.83025159
 H      8   7   4     2.073589454052   105.63243044   215.22934116
 H      9   8   7     2.076276673808   108.44672281    78.23339209
 H      9   8   7     2.073395094986   112.10216509   322.05632382
 H     10   9   8     2.070965539203   109.55007950   207.93289074
 H     10   9   8     2.073843385194   109.26669024    91.61759098
 H     11  10   9     2.070845714336   110.35219421   182.26517474
 H     11  10   9     2.073700449894   109.09469214   298.89553144
 H     12  11  10     2.072674770680   109.76892345    94.54008468
 H     12  11  10     2.072712596339   108.72123069   210.30890609
 H     13   8   7     2.066472353664   112.70911142   311.44829474
 H     13   8   7     2.071909449682   110.23791839    69.32788502
 H     14   7   4     2.073491942352   105.43891310   300.08516436
 H     15  14   7     2.073358431088   110.71113900   295.94918126
 H     15  14   7     2.074003493863   110.55339515    53.80205726
 H     16  15  14     2.070906028664   109.61805737   176.38177921
 H     16  15  14     2.073074624413   109.35226692   293.25388611
 H     17  16  15     2.070694339948   109.70167661   184.30996645
 H     17  16  15     2.073031390899   109.38115822    67.30320878
 H     18  17  16     2.070935356695   109.57505953   176.00587928
 H     18  17  16     2.072886476412   109.59885236   293.09016707
 H     19  18  17     2.071117674300   107.93011166    65.38084711
 H     19  18  17     2.070266287252   108.69081292   181.30514942

---------------------
BASIS SET INFORMATION
---------------------
There are 3 groups of distinct atoms

 Group   1 Type C   : 7s4p1d contracted to 3s2p1d pattern {511/31/1}
 Group   2 Type P   : 10s7p1d contracted to 4s3p1d pattern {5311/511/1}
 Group   3 Type H   : 4s1p contracted to 2s1p pattern {31/1}

Atom   0C    basis set group =>   1
Atom   1C    basis set group =>   1
Atom   2C    basis set group =>   1
Atom   3C    basis set group =>   1
Atom   4C    basis set group =>   1
Atom   5C    basis set group =>   1
Atom   6P    basis set group =>   2
Atom   7C    basis set group =>   1
Atom   8C    basis set group =>   1
Atom   9C    basis set group =>   1
Atom  10C    basis set group =>   1
Atom  11C    basis set group =>   1
Atom  12C    basis set group =>   1
Atom  13C    basis set group =>   1
Atom  14C    basis set group =>   1
Atom  15C    basis set group =>   1
Atom  16C    basis set group =>   1
Atom  17C    basis set group =>   1
Atom  18C    basis set group =>   1
Atom  19H    basis set group =>   3
Atom  20H    basis set group =>   3
Atom  21H    basis set group =>   3
Atom  22H    basis set group =>   3
Atom  23H    basis set group =>   3
Atom  24H    basis set group =>   3
Atom  25H    basis set group =>   3
Atom  26H    basis set group =>   3
Atom  27H    basis set group =>   3
Atom  28H    basis set group =>   3
Atom  29H    basis set group =>   3
Atom  30H    basis set group =>   3
Atom  31H    basis set group =>   3
Atom  32H    basis set group =>   3
Atom  33H    basis set group =>   3
Atom  34H    basis set group =>   3
Atom  35H    basis set group =>   3
Atom  36H    basis set group =>   3
Atom  37H    basis set group =>   3
Atom  38H    basis set group =>   3
Atom  39H    basis set group =>   3
Atom  40H    basis set group =>   3
Atom  41H    basis set group =>   3
Atom  42H    basis set group =>   3
Atom  43H    basis set group =>   3
Atom  44H    basis set group =>   3
Atom  45H    basis set group =>   3
Atom  46H    basis set group =>   3
Atom  47H    basis set group =>   3
Atom  48H    basis set group =>   3
Atom  49H    basis set group =>   3
Atom  50H    basis set group =>   3
Atom  51H    basis set group =>   3
---------------------------------
AUXILIARY/J BASIS SET INFORMATION
---------------------------------
There are 3 groups of distinct atoms

 Group   1 Type C   : 12s5p4d2f1g contracted to 6s4p3d1f1g pattern {711111/2111/211/2/1}
 Group   2 Type P   : 14s5p5d2f1g contracted to 8s4p3d1f1g pattern {71111111/2111/311/2/1}
 Group   3 Type H   : 5s2p1d contracted to 3s1p1d pattern {311/2/1}

Atom   0C    basis set group =>   1
Atom   1C    basis set group =>   1
Atom   2C    basis set group =>   1
Atom   3C    basis set group =>   1
Atom   4C    basis set group =>   1
Atom   5C    basis set group =>   1
Atom   6P    basis set group =>   2
Atom   7C    basis set group =>   1
Atom   8C    basis set group =>   1
Atom   9C    basis set group =>   1
Atom  10C    basis set group =>   1
Atom  11C    basis set group =>   1
Atom  12C    basis set group =>   1
Atom  13C    basis set group =>   1
Atom  14C    basis set group =>   1
Atom  15C    basis set group =>   1
Atom  16C    basis set group =>   1
Atom  17C    basis set group =>   1
Atom  18C    basis set group =>   1
Atom  19H    basis set group =>   3
Atom  20H    basis set group =>   3
Atom  21H    basis set group =>   3
Atom  22H    basis set group =>   3
Atom  23H    basis set group =>   3
Atom  24H    basis set group =>   3
Atom  25H    basis set group =>   3
Atom  26H    basis set group =>   3
Atom  27H    basis set group =>   3
Atom  28H    basis set group =>   3
Atom  29H    basis set group =>   3
Atom  30H    basis set group =>   3
Atom  31H    basis set group =>   3
Atom  32H    basis set group =>   3
Atom  33H    basis set group =>   3
Atom  34H    basis set group =>   3
Atom  35H    basis set group =>   3
Atom  36H    basis set group =>   3
Atom  37H    basis set group =>   3
Atom  38H    basis set group =>   3
Atom  39H    basis set group =>   3
Atom  40H    basis set group =>   3
Atom  41H    basis set group =>   3
Atom  42H    basis set group =>   3
Atom  43H    basis set group =>   3
Atom  44H    basis set group =>   3
Atom  45H    basis set group =>   3
Atom  46H    basis set group =>   3
Atom  47H    basis set group =>   3
Atom  48H    basis set group =>   3
Atom  49H    basis set group =>   3
Atom  50H    basis set group =>   3
Atom  51H    basis set group =>   3


           ************************************************************
           *        Program running with 6 parallel MPI-processes     *
           *              working on a common directory               *
           ************************************************************
------------------------------------------------------------------------------
                             ORCA STARTUP CALCULATIONS
                           -- RI-GTO INTEGRALS CHOSEN --
------------------------------------------------------------------------------
------------------------------------------------------------------------------
                   ___                                                        
                  /   \      - P O W E R E D   B Y -                         
                 /     \                                                     
                 |  |  |   _    _      __       _____    __    __             
                 |  |  |  | |  | |    /  \     |  _  \  |  |  /  |          
                  \  \/   | |  | |   /    \    | | | |  |  | /  /          
                 / \  \   | |__| |  /  /\  \   | |_| |  |  |/  /          
                |  |  |   |  __  | /  /__\  \  |    /   |      \           
                |  |  |   | |  | | |   __   |  |    \   |  |\   \          
                \     /   | |  | | |  |  |  |  | |\  \  |  | \   \       
                 \___/    |_|  |_| |__|  |__|  |_| \__\ |__|  \__/        
                                                                              
                      - O R C A' S   B I G   F R I E N D -                    
                                      &                                       
                       - I N T E G R A L  F E E D E R -                       
                                                                              
 v1 FN, 2020, v2 2021, v3 2022-2024                                           
------------------------------------------------------------------------------


----------------------
SHARK INTEGRAL PACKAGE
----------------------

Number of atoms                             ...     52
Number of basis functions                   ...    435
Number of shells                            ...    215
Maximum angular momentum                    ...      2
Integral batch strategy                     ... SHARK/LIBINT Hybrid
RI-J (if used) integral strategy            ... SPLIT-RIJ (Revised 2003 algorithm where possible)
Printlevel                                  ...      1
Contraction scheme used                     ... SEGMENTED contraction
Prescreening option                         ... SCHWARTZ
   Thresh                                   ... 2.500e-11
   Tcut                                     ... 2.500e-12
   Tpresel                                  ... 2.500e-12 
Coulomb Range Separation                    ... NOT USED
Exchange Range Separation                   ... NOT USED
Multipole approximations                    ... NOT USED
Finite Nucleus Model                        ... NOT USED
CABS basis                                  ... NOT available
Auxiliary Coulomb fitting basis             ... AVAILABLE
   # of basis functions in Aux-J            ...   1296
   # of shells in Aux-J                     ...    452
   Maximum angular momentum in Aux-J        ...      4
Auxiliary J/K fitting basis                 ... NOT available
Auxiliary Correlation fitting basis         ... NOT available
Auxiliary 'external' fitting basis          ... NOT available

Checking pre-screening integrals            ... done (  0.0 sec) Dimension = 215
Check shell pair data                       ... done (  0.0 sec)
Shell pair information
Shell pair cut-off parameter TPreSel        ...   2.5e-12
Total number of shell pairs                 ...     23220
Shell pairs after pre-screening             ...     18135
Total number of primitive shell pairs       ...     80156
Primitive shell pairs kept                  ...     40932
          la=0 lb=0:   6396 shell pairs
          la=1 lb=0:   7038 shell pairs
          la=1 lb=1:   1921 shell pairs
          la=2 lb=0:   1756 shell pairs
          la=2 lb=1:    911 shell pairs
          la=2 lb=2:    113 shell pairs

Calculating one electron integrals          ... done (  0.0 sec)
Calculating RI/J V-Matrix + Cholesky decomp.... done (  0.1 sec)
Calculating Nuclear repulsion               ... done (  0.0 sec) ENN=   1738.005897727740 Eh

Diagonalization of the overlap matrix:
Smallest eigenvalue                        ... 6.037e-04
Time for diagonalization                   ...    0.026 sec
Threshold for overlap eigenvalues          ... 1.000e-07
Number of eigenvalues below threshold      ... 0
Time for construction of square roots      ...    0.014 sec
Total time needed                          ...    0.041 sec

-------------------
DFT GRID GENERATION
-------------------

General Integration Accuracy     IntAcc      ... 4.388
Radial Grid Type                 RadialGrid  ... OptM3 with GC (2021)
Angular Grid (max. ang.)         AngularGrid ... 4 (Lebedev-302)
Angular grid pruning method      GridPruning ... 4 (adaptive)
Weight generation scheme         WeightScheme... mBecke (2022)
Basis function cutoff            BFCut       ... 1.0000e-11
Integration weight cutoff        WCut        ... 1.0000e-14
Partially contracted basis set               ... off
Rotationally invariant grid construction     ... off
Angular grids for H and He will be reduced by one unit

Total number of grid points                  ...   217228
Total number of batches                      ...     3421
Average number of points per batch           ...       63
Average number of grid points per atom       ...     4177
Initializing property integral containers    ... done (  0.0 sec)

SHARK setup successfully completed in   1.5 seconds

Maximum memory used throughout the entire STARTUP-calculation: 63.0 MB


           ************************************************************
           *        Program running with 6 parallel MPI-processes     *
           *              working on a common directory               *
           ************************************************************
-------------------------------------------------------------------------------
                                 ORCA GUESS
                   Start orbitals & Density for SCF / CASSCF
-------------------------------------------------------------------------------

------------
SCF SETTINGS
------------
Hamiltonian:
 Density Functional     Method          .... DFT(GTOs)
 Exchange Functional    Exchange        .... B88
   X-Alpha parameter    XAlpha          ....  0.666667
   Becke's b parameter  XBeta           ....  0.004200
 Correlation Functional Correlation     .... LYP
 LDA part of GGA corr.  LDAOpt          .... VWN-5
 Gradients option       PostSCFGGA      .... off
 Hybrid DFT is turned on
   Fraction HF Exchange ScalHFX         ....  0.200000
   Scaling of DF-GGA-X  ScalDFX         ....  0.720000
   Scaling of DF-GGA-C  ScalDFC         ....  0.810000
   Scaling of DF-LDA-C  ScalLDAC        ....  1.000000
   Perturbative correction              ....  0.000000
   NL short-range parameter             ....  4.800000
 RI-approximation to the Coulomb term is turned on
   Number of AuxJ basis functions       .... 1296
   RIJ-ON(X) (HFX calculated with O(N)) .... on


General Settings:
 Integral files         IntName         .... data/geom_opt/75806/75806
 Hartree-Fock type      HFTyp           .... RHF
 Total Charge           Charge          ....    0
 Multiplicity           Mult            ....    1
 Number of Electrons    NEL             ....  156
 Basis Dimension        Dim             ....  435
 Nuclear Repulsion      ENuc            ....   1738.0058977277 Eh

Convergence Acceleration:
 AO-DIIS                CNVDIIS         .... on
   Start iteration      DIISMaxIt       ....    12
   Startup error        DIISStart       ....  0.200000
   # of expansion vecs  DIISMaxEq       ....     5
   Bias factor          DIISBfac        ....   1.050
   Max. coefficient     DIISMaxC        ....  10.000
 MO-DIIS                CNVKDIIS        .... off
 Trust-Rad. Augm. Hess. CNVTRAH         .... auto
   Auto Start mean grad. ratio tolernc. ....  1.125000
   Auto Start start iteration           ....    50
   Auto Start num. interpolation iter.  ....    10
   Max. Number of Micro iterations      ....    24
   Max. Number of Macro iterations      .... Maxiter - #DIIS iter
   Number of Davidson start vectors     ....     2
   Converg. threshold    (grad. norm)   ....   1.000e-05
   Grad. Scal. Fac. for Micro threshold ....   0.100
   Minimum threshold for Micro iter.    ....   1.000e-02
   NR start threshold (gradient norm)   ....   1.000e-04
   Initial trust radius                 ....   0.400
   Minimum AH scaling param. (alpha)    ....   1.000
   Maximum AH scaling param. (alpha)    .... 1000.000
   Quad. conv. algorithm                .... NR
   White noise on init. David. guess    .... on
   Maximum white noise                  ....   0.010
   Pseudo random numbers                .... off
   Inactive MOs                         .... canonical
   Orbital update algorithm             .... Taylor
   Preconditioner                       .... Diag
   Full preconditioner red. dimension   ....   250
   COSX micro iterations for RIJONX calc.... off
 SOSCF                  CNVSOSCF        .... on
   Start iteration      SOSCFMaxIt      ....   150
   Startup grad/error   SOSCFStart      ....  0.003300
   Hessian update       SOSCFHessUp     .... L-BFGS
 Level Shifting         CNVShift        .... on
   Level shift para.    LevelShift      ....    0.2500
   Turn off err/grad.   ShiftErr        ....    0.0010
 Zerner damping         CNVZerner       .... off
 Static damping         CNVDamp         .... on
   Fraction old density DampFac         ....    0.7000
   Max. Damping (<1)    DampMax         ....    0.9800
   Min. Damping (>=0)   DampMin         ....    0.0000
   Turn off err/grad.   DampErr         ....    0.1000

SCF Procedure:
 Maximum # iterations   MaxIter         ....   125
 SCF integral mode      SCFMode         .... Direct
   Integral package                     .... SHARK and LIBINT hybrid scheme
 Reset frequency        DirectResetFreq ....    20
 Integral Threshold     Thresh          ....  2.500e-11 Eh
 Primitive CutOff       TCut            ....  2.500e-12 Eh

Convergence Tolerance:
 Convergence Check Mode ConvCheckMode   .... Total+1el-Energy
 Convergence forced     ConvForced      .... 0
 Energy Change          TolE            ....  1.000e-08 Eh
 1-El. energy change                    ....  1.000e-05 Eh
 Orbital Gradient       TolG            ....  1.000e-05
 Orbital Rotation angle TolX            ....  1.000e-05
 DIIS Error             TolErr          ....  5.000e-07

------------------------------
INITIAL GUESS: MODEL POTENTIAL
------------------------------
Loading Hartree-Fock densities                     ... done
Calculating cut-offs                               ... done
Initializing the effective Hamiltonian             ... done
Setting up the integral package (SHARK)            ... done
Starting the Coulomb interaction                   ... done (   0.3 sec)
Making the grid                                    ... done (   0.3 sec)
Mapping shells                                     ... done
Starting the XC term evaluation                    ... done (   0.2 sec)
  promolecular density results
     # of electrons  =    155.986564428
     EX              =   -125.146058613
     EC              =     -5.207066124
     EX+EC           =   -130.353124737
Transforming the Hamiltonian                       ... done (   0.0 sec)
Diagonalizing the Hamiltonian                      ... done (   0.0 sec)
Back transforming the eigenvectors                 ... done (   0.0 sec)
Now organizing SCF variables                       ... done
                      ------------------
                      INITIAL GUESS DONE (   0.9 sec)
                      ------------------
             **** ENERGY FILE WAS UPDATED (data/geom_opt/75806/75806.en.tmp) ****
Finished Guess after   1.0 sec
Maximum memory used throughout the entire GUESS-calculation: 34.7 MB


           ************************************************************
           *        Program running with 6 parallel MPI-processes     *
           *              working on a common directory               *
           ************************************************************

-------------------------------------------------------------------------------------------
                                      ORCA LEAN-SCF
                              memory conserving SCF solver
-------------------------------------------------------------------------------------------

----------------------------------------D-I-I-S--------------------------------------------
Iteration    Energy (Eh)           Delta-E    RMSDP     MaxDP     DIISErr   Damp  Time(sec)
-------------------------------------------------------------------------------------------
               ***  Starting incremental Fock matrix formation  ***
    1    -1045.3952732923401072     0.00e+00  2.25e-03  7.10e-02  1.55e-01  0.700   9.1
    2    -1045.6724340303810550    -2.77e-01  1.60e-03  5.13e-02  8.07e-02  0.700   8.1
                               ***Turning on AO-DIIS***
    3    -1045.7827137098731782    -1.10e-01  7.61e-04  3.59e-02  3.06e-02  0.700   7.9
    4    -1045.8474763988895120    -6.48e-02  1.49e-03  7.69e-02  1.49e-02  0.000   7.5
    5    -1045.9894370176023131    -1.42e-01  2.08e-04  1.25e-02  5.56e-03  0.000   8.1
                              *** Initializing SOSCF ***
---------------------------------------S-O-S-C-F--------------------------------------
Iteration    Energy (Eh)           Delta-E    RMSDP     MaxDP     MaxGrad    Time(sec)
--------------------------------------------------------------------------------------
    6    -1045.9903178888396269    -8.81e-04  7.23e-05  2.62e-03  1.38e-03     7.0
               *** Restarting incremental Fock matrix formation ***
    7    -1045.9903889036615965    -7.10e-05  4.96e-05  2.19e-03  1.34e-04     9.3
    8    -1045.9903911827752836    -2.28e-06  1.18e-05  4.45e-04  1.08e-04     6.1
    9    -1045.9903948068715636    -3.62e-06  7.42e-06  5.79e-04  2.34e-05     5.2
   10    -1045.9903949181250482    -1.11e-07  3.46e-06  3.22e-04  1.85e-05     5.0
   11    -1045.9903949980287052    -7.99e-08  8.89e-07  6.94e-05  4.00e-06     4.6
   12    -1045.9903949645674857     3.35e-08  3.74e-07  1.90e-05  2.34e-06     4.0
                  *** Gradient check signals convergence ***

               *****************************************************
               *                     SUCCESS                       *
               *           SCF CONVERGED AFTER  12 CYCLES          *
               *****************************************************

             **** ENERGY FILE WAS UPDATED (data/geom_opt/75806/75806.en.tmp) ****

----------------
TOTAL SCF ENERGY
----------------

Total Energy       :      -1045.99039496456749 Eh          -28462.84567 eV

Components:
Nuclear Repulsion  :       1738.00589772773969 Eh           47293.54483 eV
Electronic Energy  :      -2783.99629269230718 Eh          -75756.39050 eV
One Electron Energy:      -4878.10809584490016 Eh         -132740.06966 eV
Two Electron Energy:       2094.11180315259298 Eh           56983.67916 eV

Virial components:
Potential Energy   :      -2083.11318182870764 Eh          -56684.39146 eV
Kinetic Energy     :       1037.12278686414015 Eh           28221.54579 eV
Virial Ratio       :          2.00855020081782

DFT components:
N(Alpha)           :       78.000195154145 electrons
N(Beta)            :       78.000195154145 electrons
N(Total)           :      156.000390308289 electrons
E(X)               :     -101.227736238950 Eh       
E(C)               :       -6.127658667221 Eh       
E(XC)              :     -107.355394906171 Eh       

---------------
SCF CONVERGENCE
---------------

  Last Energy change         ...   -3.3461e-08  Tolerance :   1.0000e-08
  Last MAX-Density change    ...    1.8975e-05  Tolerance :   1.0000e-07
  Last RMS-Density change    ...    3.7423e-07  Tolerance :   5.0000e-09
  Last DIIS Error            ...    1.3839e-03  Tolerance :   5.0000e-07
  Last Orbital Gradient      ...    2.3414e-06  Tolerance :   1.0000e-05
  Last Orbital Rotation      ...    2.6920e-06  Tolerance :   1.0000e-05


----------------
ORBITAL ENERGIES
----------------

  NO   OCC          E(Eh)            E(eV) 
   0   2.0000     -77.018236     -2095.7727 
   1   2.0000     -10.178063      -276.9592 
   2   2.0000     -10.177967      -276.9566 
   3   2.0000     -10.177219      -276.9362 
   4   2.0000     -10.176064      -276.9048 
   5   2.0000     -10.174731      -276.8685 
   6   2.0000     -10.174710      -276.8679 
   7   2.0000     -10.174533      -276.8631 
   8   2.0000     -10.173384      -276.8318 
   9   2.0000     -10.172975      -276.8207 
  10   2.0000     -10.172610      -276.8108 
  11   2.0000     -10.172570      -276.8097 
  12   2.0000     -10.172118      -276.7974 
  13   2.0000     -10.172022      -276.7948 
  14   2.0000     -10.171453      -276.7793 
  15   2.0000     -10.171026      -276.7677 
  16   2.0000     -10.170987      -276.7666 
  17   2.0000     -10.170958      -276.7658 
  18   2.0000     -10.170465      -276.7524 
  19   2.0000      -6.515908      -177.3069 
  20   2.0000      -4.681297      -127.3846 
  21   2.0000      -4.681167      -127.3810 
  22   2.0000      -4.678211      -127.3006 
  23   2.0000      -0.830010       -22.5857 
  24   2.0000      -0.820616       -22.3301 
  25   2.0000      -0.819004       -22.2862 
  26   2.0000      -0.753590       -20.5062 
  27   2.0000      -0.732593       -19.9349 
  28   2.0000      -0.731808       -19.9135 
  29   2.0000      -0.727950       -19.8085 
  30   2.0000      -0.726321       -19.7642 
  31   2.0000      -0.723482       -19.6869 
  32   2.0000      -0.634356       -17.2617 
  33   2.0000      -0.607540       -16.5320 
  34   2.0000      -0.600466       -16.3395 
  35   2.0000      -0.598107       -16.2753 
  36   2.0000      -0.592870       -16.1328 
  37   2.0000      -0.590433       -16.0665 
  38   2.0000      -0.548300       -14.9200 
  39   2.0000      -0.544607       -14.8195 
  40   2.0000      -0.530884       -14.4461 
  41   2.0000      -0.510169       -13.8824 
  42   2.0000      -0.483223       -13.1492 
  43   2.0000      -0.472165       -12.8483 
  44   2.0000      -0.467460       -12.7202 
  45   2.0000      -0.454984       -12.3807 
  46   2.0000      -0.438897       -11.9430 
  47   2.0000      -0.437843       -11.9143 
  48   2.0000      -0.435099       -11.8397 
  49   2.0000      -0.433779       -11.8037 
  50   2.0000      -0.433302       -11.7908 
  51   2.0000      -0.427043       -11.6204 
  52   2.0000      -0.410834       -11.1794 
  53   2.0000      -0.395504       -10.7622 
  54   2.0000      -0.384070       -10.4511 
  55   2.0000      -0.379407       -10.3242 
  56   2.0000      -0.375429       -10.2159 
  57   2.0000      -0.374445       -10.1892 
  58   2.0000      -0.372287       -10.1305 
  59   2.0000      -0.367400        -9.9975 
  60   2.0000      -0.360326        -9.8050 
  61   2.0000      -0.353949        -9.6315 
  62   2.0000      -0.351702        -9.5703 
  63   2.0000      -0.344752        -9.3812 
  64   2.0000      -0.343595        -9.3497 
  65   2.0000      -0.339417        -9.2360 
  66   2.0000      -0.338083        -9.1997 
  67   2.0000      -0.335903        -9.1404 
  68   2.0000      -0.319694        -8.6993 
  69   2.0000      -0.315876        -8.5954 
  70   2.0000      -0.308312        -8.3896 
  71   2.0000      -0.302016        -8.2183 
  72   2.0000      -0.300648        -8.1811 
  73   2.0000      -0.296443        -8.0666 
  74   2.0000      -0.294126        -8.0036 
  75   2.0000      -0.271830        -7.3969 
  76   2.0000      -0.270031        -7.3479 
  77   2.0000      -0.194566        -5.2944 
  78   0.0000       0.040079         1.0906 
  79   0.0000       0.048476         1.3191 
  80   0.0000       0.052120         1.4182 
  81   0.0000       0.068261         1.8575 
  82   0.0000       0.072337         1.9684 
  83   0.0000       0.075660         2.0588 
  84   0.0000       0.081324         2.2129 
  85   0.0000       0.086045         2.3414 
  86   0.0000       0.086902         2.3647 
  87   0.0000       0.095658         2.6030 
  88   0.0000       0.102682         2.7941 
*Only the first 10 virtual orbitals were printed.

                    ********************************
                    * MULLIKEN POPULATION ANALYSIS *
                    ********************************

-----------------------
MULLIKEN ATOMIC CHARGES
-----------------------
   0 C :    0.029026
   1 C :    0.043167
   2 C :    0.061360
   3 C :   -0.225362
   4 C :    0.064124
   5 C :    0.047408
   6 P :    0.227356
   7 C :   -0.240198
   8 C :    0.081464
   9 C :    0.033695
  10 C :    0.028212
  11 C :    0.036885
  12 C :    0.070157
  13 C :   -0.236828
  14 C :    0.079290
  15 C :    0.040615
  16 C :    0.024310
  17 C :    0.047884
  18 C :    0.060763
  19 H :   -0.009588
  20 H :   -0.015517
  21 H :   -0.009323
  22 H :   -0.018861
  23 H :   -0.005728
  24 H :   -0.000132
  25 H :    0.003402
  26 H :   -0.001692
  27 H :   -0.005710
  28 H :   -0.019433
  29 H :   -0.009460
  30 H :    0.011834
  31 H :   -0.010595
  32 H :   -0.002442
  33 H :   -0.007807
  34 H :   -0.016653
  35 H :   -0.008613
  36 H :   -0.015573
  37 H :   -0.014178
  38 H :   -0.014170
  39 H :   -0.004795
  40 H :   -0.009592
  41 H :    0.012067
  42 H :   -0.013565
  43 H :   -0.001416
  44 H :   -0.009108
  45 H :   -0.015964
  46 H :   -0.008715
  47 H :   -0.017498
  48 H :   -0.011708
  49 H :   -0.018605
  50 H :   -0.001483
  51 H :   -0.002706
Sum of atomic charges:   -0.0000000

--------------------------------
MULLIKEN REDUCED ORBITAL CHARGES
--------------------------------
  0 C s       :     2.981442  s :     2.981442
      pz      :     0.966749  p :     2.952000
      px      :     0.997960
      py      :     0.987291
      dz2     :     0.007085  d :     0.037532
      dxz     :     0.008074
      dyz     :     0.005436
      dx2y2   :     0.008880
      dxy     :     0.008058

  1 C s       :     2.968732  s :     2.968732
      pz      :     0.993349  p :     2.950550
      px      :     0.982292
      py      :     0.974909
      dz2     :     0.010206  d :     0.037552
      dxz     :     0.008158
      dyz     :     0.002697
      dx2y2   :     0.010474
      dxy     :     0.006016

  2 C s       :     2.978244  s :     2.978244
      pz      :     0.994762  p :     2.923452
      px      :     0.980353
      py      :     0.948337
      dz2     :     0.009813  d :     0.036943
      dxz     :     0.005137
      dyz     :     0.005856
      dx2y2   :     0.008186
      dxy     :     0.007951

  3 C s       :     3.117874  s :     3.117874
      pz      :     1.016515  p :     3.069505
      px      :     1.027309
      py      :     1.025682
      dz2     :     0.009265  d :     0.037983
      dxz     :     0.006890
      dyz     :     0.005183
      dx2y2   :     0.008733
      dxy     :     0.007912

  4 C s       :     2.976561  s :     2.976561
      pz      :     0.996650  p :     2.922338
      px      :     0.944218
      py      :     0.981469
      dz2     :     0.010037  d :     0.036977
      dxz     :     0.008002
      dyz     :     0.002678
      dx2y2   :     0.010635
      dxy     :     0.005625

  5 C s       :     2.965792  s :     2.965792
      pz      :     0.990798  p :     2.949271
      px      :     0.968174
      py      :     0.990300
      dz2     :     0.009942  d :     0.037528
      dxz     :     0.005220
      dyz     :     0.005992
      dx2y2   :     0.008711
      dxy     :     0.007663

  6 P s       :     5.740874  s :     5.740874
      pz      :     3.297441  p :     8.866630
      px      :     2.805566
      py      :     2.763623
      dz2     :     0.020806  d :     0.165140
      dxz     :     0.030974
      dyz     :     0.028423
      dx2y2   :     0.042952
      dxy     :     0.041985

  7 C s       :     3.116732  s :     3.116732
      pz      :     1.015756  p :     3.085230
      px      :     1.033883
      py      :     1.035591
      dz2     :     0.010199  d :     0.038236
      dxz     :     0.006305
      dyz     :     0.008717
      dx2y2   :     0.008920
      dxy     :     0.004096

  8 C s       :     2.972082  s :     2.972082
      pz      :     0.995575  p :     2.910136
      px      :     0.980341
      py      :     0.934219
      dz2     :     0.006819  d :     0.036318
      dxz     :     0.007097
      dyz     :     0.007172
      dx2y2   :     0.008539
      dxy     :     0.006690

  9 C s       :     2.958568  s :     2.958568
      pz      :     0.970002  p :     2.970599
      px      :     1.011646
      py      :     0.988951
      dz2     :     0.003843  d :     0.037138
      dxz     :     0.009202
      dyz     :     0.009949
      dx2y2   :     0.009824
      dxy     :     0.004320

 10 C s       :     2.967160  s :     2.967160
      pz      :     0.976337  p :     2.967491
      px      :     0.999310
      py      :     0.991844
[...]
      py      :     0.012798

 32 H s       :     0.919520  s :     0.919520
      pz      :     0.014346  p :     0.065846
      px      :     0.035060
      py      :     0.016440

 33 H s       :     0.914526  s :     0.914526
      pz      :     0.024735  p :     0.064689
      px      :     0.013266
      py      :     0.026689

 34 H s       :     0.919724  s :     0.919724
      pz      :     0.021273  p :     0.064541
      px      :     0.030554
      py      :     0.012713

 35 H s       :     0.915431  s :     0.915431
      pz      :     0.016407  p :     0.064605
      px      :     0.012908
      py      :     0.035290

 36 H s       :     0.919184  s :     0.919184
      pz      :     0.021390  p :     0.064515
      px      :     0.030574
      py      :     0.012550

 37 H s       :     0.916707  s :     0.916707
      pz      :     0.030925  p :     0.064634
      px      :     0.017761
      py      :     0.015949

 38 H s       :     0.918136  s :     0.918136
      pz      :     0.014047  p :     0.064423
      px      :     0.037259
      py      :     0.013117

 39 H s       :     0.915527  s :     0.915527
      pz      :     0.022031  p :     0.067328
      px      :     0.017775
      py      :     0.027522

 40 H s       :     0.918043  s :     0.918043
      pz      :     0.013906  p :     0.065921
      px      :     0.039003
      py      :     0.013012

 41 H s       :     0.912950  s :     0.912950
      pz      :     0.014324  p :     0.070471
      px      :     0.016145
      py      :     0.040002

 42 H s       :     0.922108  s :     0.922108
      pz      :     0.012856  p :     0.065262
      px      :     0.014246
      py      :     0.038160

 43 H s       :     0.914879  s :     0.914879
      pz      :     0.037158  p :     0.065690
      px      :     0.016088
      py      :     0.012444

 44 H s       :     0.916042  s :     0.916042
      pz      :     0.023337  p :     0.064343
      px      :     0.026075
      py      :     0.014931

 45 H s       :     0.919310  s :     0.919310
      pz      :     0.014049  p :     0.063988
      px      :     0.013242
      py      :     0.036697

 46 H s       :     0.916320  s :     0.916320
      pz      :     0.013206  p :     0.064274
      px      :     0.030167
      py      :     0.020901

 47 H s       :     0.920038  s :     0.920038
      pz      :     0.013948  p :     0.063948
      px      :     0.014369
      py      :     0.035631

 48 H s       :     0.916782  s :     0.916782
      pz      :     0.036110  p :     0.064444
      px      :     0.015975
      py      :     0.012360

 49 H s       :     0.920039  s :     0.920039
      pz      :     0.012671  p :     0.064027
      px      :     0.013918
      py      :     0.037439

 50 H s       :     0.916870  s :     0.916870
      pz      :     0.014072  p :     0.065417
      px      :     0.013819
      py      :     0.037526

 51 H s       :     0.917672  s :     0.917672
      pz      :     0.023925  p :     0.065395
      px      :     0.026479
      py      :     0.014992



                      *****************************
                      * MAYER POPULATION ANALYSIS *
                      *****************************

  NA   - Mulliken gross atomic population
  ZA   - Total nuclear charge
  QA   - Mulliken gross atomic charge
  VA   - Mayer's total valence
  BVA  - Mayer's bonded valence
  FA   - Mayer's free valence

  ATOM       NA         ZA         QA         VA         BVA        FA
  0 C      5.9784     6.0000     0.0216     4.1157     4.1157     0.0000
  1 C      5.9619     6.0000     0.0381     4.1111     4.1111    -0.0000
  2 C      5.9418     6.0000     0.0582     4.0393     4.0393    -0.0000
  3 C      6.2432     6.0000    -0.2432     4.0262     4.0262    -0.0000
  4 C      5.9431     6.0000     0.0569     4.0321     4.0321    -0.0000
  5 C      5.9561     6.0000     0.0439     4.1022     4.1022    -0.0000
  6 P     14.7509    15.0000     0.2491     2.9892     2.9892    -0.0000
  7 C      6.2579     6.0000    -0.2579     4.0399     4.0399    -0.0000
  8 C      5.9210     6.0000     0.0790     4.0108     4.0108    -0.0000
  9 C      5.9707     6.0000     0.0293     4.1550     4.1550    -0.0000
 10 C      5.9802     6.0000     0.0198     4.1488     4.1488    -0.0000
 11 C      5.9636     6.0000     0.0364     4.0834     4.0834    -0.0000
 12 C      5.9376     6.0000     0.0624     4.0943     4.0943    -0.0000
 13 C      6.2536     6.0000    -0.2536     4.0079     4.0079    -0.0000
 14 C      5.9307     6.0000     0.0693     4.0348     4.0348    -0.0000
 15 C      5.9605     6.0000     0.0395     4.1086     4.1086    -0.0000
 16 C      5.9827     6.0000     0.0173     4.1131     4.1131    -0.0000
 17 C      5.9591     6.0000     0.0409     4.0962     4.0962    -0.0000
 18 C      5.9437     6.0000     0.0563     4.0223     4.0223    -0.0000
 19 H      1.0054     1.0000    -0.0054     0.9730     0.9730    -0.0000
 20 H      1.0120     1.0000    -0.0120     0.9802     0.9802    -0.0000
 21 H      1.0058     1.0000    -0.0058     0.9737     0.9737    -0.0000
 22 H      1.0159     1.0000    -0.0159     0.9811     0.9811    -0.0000
 23 H      1.0049     1.0000    -0.0049     0.9890     0.9890    -0.0000
 24 H      0.9961     1.0000     0.0039     0.9798     0.9798    -0.0000
 25 H      0.9920     1.0000     0.0080     0.9834     0.9834     0.0000
 26 H      0.9977     1.0000     0.0023     0.9876     0.9876     0.0000
 27 H      1.0046     1.0000    -0.0046     0.9916     0.9916     0.0000
 28 H      1.0161     1.0000    -0.0161     0.9810     0.9810     0.0000
 29 H      1.0057     1.0000    -0.0057     0.9736     0.9736     0.0000
 30 H      0.9862     1.0000     0.0138     0.9761     0.9761    -0.0000
 31 H      1.0073     1.0000    -0.0073     0.9804     0.9804    -0.0000
 32 H      1.0015     1.0000    -0.0015     0.9924     0.9924    -0.0000
 33 H      1.0047     1.0000    -0.0047     0.9744     0.9744    -0.0000
 34 H      1.0136     1.0000    -0.0136     0.9731     0.9731    -0.0000
 35 H      1.0051     1.0000    -0.0051     0.9735     0.9735    -0.0000
 36 H      1.0119     1.0000    -0.0119     0.9742     0.9742    -0.0000
 37 H      1.0092     1.0000    -0.0092     0.9737     0.9737     0.0000
 38 H      1.0095     1.0000    -0.0095     0.9749     0.9749     0.0000
 39 H      1.0010     1.0000    -0.0010     0.9933     0.9933     0.0000
 40 H      1.0080     1.0000    -0.0080     0.9839     0.9839     0.0000
 41 H      0.9852     1.0000     0.0148     0.9800     0.9800    -0.0000
 42 H      1.0093     1.0000    -0.0093     0.9911     0.9911    -0.0000
 43 H      0.9986     1.0000     0.0014     0.9860     0.9860    -0.0000
 44 H      1.0057     1.0000    -0.0057     0.9739     0.9739    -0.0000
 45 H      1.0133     1.0000    -0.0133     0.9812     0.9812     0.0000
 46 H      1.0046     1.0000    -0.0046     0.9732     0.9732    -0.0000
 47 H      1.0139     1.0000    -0.0139     0.9813     0.9813    -0.0000
 48 H      1.0068     1.0000    -0.0068     0.9738     0.9738     0.0000
 49 H      1.0149     1.0000    -0.0149     0.9810     0.9810    -0.0000
 50 H      0.9977     1.0000     0.0023     0.9860     0.9860    -0.0000
 51 H      0.9994     1.0000     0.0006     0.9816     0.9816    -0.0000

  Mayer bond orders larger than 0.100000
B(  0-C ,  1-C ) :   1.0974 B(  0-C ,  5-C ) :   1.0953 B(  0-C , 19-H ) :   0.9367 
B(  0-C , 20-H ) :   0.9313 B(  1-C ,  2-C ) :   1.0984 B(  1-C , 21-H ) :   0.9342 
B(  1-C , 22-H ) :   0.9286 B(  2-C ,  3-C ) :   1.0431 B(  2-C , 23-H ) :   0.9267 
B(  2-C , 24-H ) :   0.9276 B(  3-C ,  4-C ) :   1.0458 B(  3-C ,  6-P ) :   0.9626 
B(  3-C , 25-H ) :   0.8854 B(  4-C ,  5-C ) :   1.0959 B(  4-C , 26-H ) :   0.9252 
B(  4-C , 27-H ) :   0.9251 B(  5-C , 28-H ) :   0.9286 B(  5-C , 29-H ) :   0.9342 
B(  6-P ,  7-C ) :   0.9388 B(  6-P , 13-C ) :   0.9495 B(  7-C ,  8-C ) :   1.0331 
B(  7-C , 12-C ) :   1.0787 B(  7-C , 30-H ) :   0.8945 B(  8-C ,  9-C ) :   1.0908 
B(  8-C , 31-H ) :   0.9323 B(  8-C , 32-H ) :   0.9324 B(  9-C , 10-C ) :   1.1401 
B(  9-C , 33-H ) :   0.9360 B(  9-C , 34-H ) :   0.9230 B( 10-C , 11-C ) :   1.0880 
B( 10-C , 35-H ) :   0.9382 B( 10-C , 36-H ) :   0.9285 B( 11-C , 12-C ) :   1.0915 
B( 11-C , 37-H ) :   0.9319 B( 11-C , 38-H ) :   0.9347 B( 12-C , 39-H ) :   0.9284 
B( 12-C , 40-H ) :   0.9141 B( 13-C , 14-C ) :   1.0466 B( 13-C , 18-C ) :   1.0214 
B( 13-C , 41-H ) :   0.9030 B( 14-C , 15-C ) :   1.0964 B( 14-C , 42-H ) :   0.9256 
B( 14-C , 43-H ) :   0.9269 B( 15-C , 16-C ) :   1.0949 B( 15-C , 44-H ) :   0.9346 
B( 15-C , 45-H ) :   0.9307 B( 16-C , 17-C ) :   1.0947 B( 16-C , 46-H ) :   0.9359 
B( 16-C , 47-H ) :   0.9321 B( 17-C , 18-C ) :   1.0892 B( 17-C , 48-H ) :   0.9343 
B( 17-C , 49-H ) :   0.9297 B( 18-C , 50-H ) :   0.9241 B( 18-C , 51-H ) :   0.9298 


-------
TIMINGS
-------

Total SCF time: 0 days 0 hours 0 min 32 sec 

Total time                  ....      32.547 sec
Sum of individual times     ....      32.429 sec  ( 99.6%)

SCF preparation             ....       0.147 sec  (  0.5%)
Fock matrix formation       ....      31.715 sec  ( 97.4%)
  Startup                   ....       0.025 sec  (  0.1% of F)
  Exchange formation        ....      26.031 sec  ( 82.1% of F)
  Split-RI-J                ....       2.053 sec  (  6.5% of F)
  XC integration            ....       3.512 sec  ( 11.1% of F)
    Basis function eval.    ....       1.013 sec  ( 28.8% of XC)
    Density eval.           ....       1.134 sec  ( 32.3% of XC)
    XC-Functional eval.     ....       0.065 sec  (  1.9% of XC)
    XC-Potential eval.      ....       0.791 sec  ( 22.5% of XC)
Diagonalization             ....       0.000 sec  (  0.0%)
Density matrix formation    ....       0.059 sec  (  0.2%)
Total Energy calculation    ....       0.021 sec  (  0.1%)
Population analysis         ....       0.113 sec  (  0.3%)
Orbital Transformation      ....       0.060 sec  (  0.2%)
Orbital Orthonormalization  ....       0.000 sec  (  0.0%)
DIIS solution               ....       0.070 sec  (  0.2%)
SOSCF solution              ....       0.244 sec  (  0.7%)
Finished LeanSCF after  32.6 sec

Maximum memory used throughout the entire LEANSCF-calculation: 53.0 MB


-------------------------------------------------------------------------------
                          DFT DISPERSION CORRECTION                            
                                                                               
                              DFTD3 V3.1  Rev 1                                
                          USING Becke-Johnson damping                          
-------------------------------------------------------------------------------
The B3LYP functional is recognized
Active option DFTDOPT                   ...         4   

molecular C6(AA) [au] = 21543.794372 


            DFT-D V3
 parameters
 s6 scaling factor         :     1.0000 
 a1 scaling factor         :     0.3981 
 s8 scaling factor         :     1.9889 
 a2 scaling factor         :     4.4211 
 ad hoc parameters k1-k3   :    16.0000     1.3333    -4.0000 

 Edisp/kcal,au: -69.890153159967  -0.111377036672 
 E6   /kcal   : -33.731247673 
 E8   /kcal   : -36.158905487 
 % E8         :  51.736766701 

-------------------------   ----------------
Dispersion correction           -0.111377037
-------------------------   ----------------


-------------------------   --------------------
FINAL SINGLE POINT ENERGY     -1046.107665684008
-------------------------   --------------------

                                *** OPTIMIZATION RUN DONE ***



           ************************************************************
           *        Program running with 6 parallel MPI-processes     *
           *              working on a common directory               *
           ************************************************************

------------------------------------------------------------------------------
                              ORCA PROPERTY CALCULATIONS
------------------------------------------------------------------------------

GBWName                                 ... data/geom_opt/75806/75806.gbw
Number of atoms                         ...     52
Number of basis functions               ...    435
Max core memory                         ...   1024 MB

Electric properties:
Dipole moment                           ... YES
Quadrupole moment                       ...  NO
Static polarizability (Dipole/Dipole)   ...  NO
Static polarizability (Dipole/Quad.)    ...  NO
Static polarizability (Quad./Quad.)     ...  NO
Static polarizability (Velocity)        ...  NO

Atomic electric properties:
Dipole moment                           ...  NO
Quadrupole moment                       ...  NO
Static polarizability                   ...  NO

Choice of electric origin               ... Center of mass
Position of electric origin             ...    -0.056874    -0.047051     0.267902

General magnetic properties:
Magnetizability                         ...  NO

EPR properties:
g-Tensor (aka g-matrix)                 ...  NO
Zero-Field splitting spin-orbit         ...  NO
Zero-field splitting spin-spin          ...  NO
Hyperfine couplings                     ...  NO (   0 nuclei)
Quadrupole couplings                    ...  NO (   0 nuclei)
Contact density                         ...  NO (   0 nuclei)

NMR properties:
Chemical shifts                         ...  NO (   0 nuclei)
Spin-rotation constants                 ...  NO (   0 nuclei)
Spin-spin couplings                     ...  NO (   0 nuclei,    0 pairs)

Choice of magnetic origin               ... GIAO
Position of magnetic origin             ...     0.000000     0.000000     0.000000

Properties with geometric perturbations:
SCF Hessian                             ...  NO
IR spectrum                             ...  NO
VCD spectrum                            ...  NO
X-ray spectroscopy properties:
SCF XES/XAS/RIXS spectra                ...  NO


-------------
DIPOLE MOMENT
-------------

Method             : SCF
Type of density    : Electron Density
Multiplicity       :   1
Irrep              :   0
Energy             : -1045.9962886473356320 Eh
Relativity type    : 
Basis              : AO
                                X                 Y                 Z
Electronic contribution:     -1.303822056      -1.204727455       6.354703206
Nuclear contribution   :      1.447118652       1.200591006      -6.796499011
                        -----------------------------------------
Total Dipole Moment    :      0.143296596      -0.004136449      -0.441795805
                        -----------------------------------------
Magnitude (a.u.)       :      0.464472344
Magnitude (Debye)      :      1.180594875



--------------------
Rotational spectrum 
--------------------
 
Rotational constants in cm-1:             0.010966             0.009423             0.005972 
Rotational constants in MHz :           328.744894           282.490682           179.021757 

Dipole components along the rotational axes: 
x,y,z [a.u.] :     0.071354     0.029039    -0.458039 
x,y,z [Debye]:     0.181368     0.073812    -1.164243 

 

Dipole moment calculation done in   0.0 sec 

Maximum memory used throughout the entire PROP-calculation: 27.4 MB

--------------------------------
SUGGESTED CITATIONS FOR THIS RUN
--------------------------------

Below you find a list of papers that are relevant to this ORCA run
We neither can nor want to force you to cite these papers, but we appreciate if you do
You receive ORCA, which is the product of decades of hard work by many enthusiastic individuals, for free
The only thing we kindly ask in return is that you cite our papers,
We deeply appreciate it, if you show your appreciation for ORCA by not just citing the generic ORCA reference.

Please note that relegating all ORCA citations to the supporting information does *not* help us.
SI sections are not indexed - citations you put there will not count into any citation statistics
But we need these citations in order to attract the funding resources that allow us to do what we are doing

Therefore, if you are a happy ORCA user, please consider citing a few of the papers listed below in the main body of your paper

In addition to the list printed below, the program has created the file data/geom_opt/75806/75806.bibtex that contains the list in bibtex format
You can import this file easily into all common literature databanks and citation aid programs


List of essential papers. We consider these as the minimum necessary citations

  1. Neese,F.
     Software update: the ORCA program system, version 5.0
     WIRES Comput. Molec. Sci., 2022 12(1)e1606
     doi.org/10.1002/wcms.1606

List of papers to cite with high priority. The work reported in these papers was absolutely
necessary for this run to complete.
Our perspective: the developers of density functionals and basis sets usually get cited in chemistry papers
Good! But without the algorithms to do something with them, the functionals or basis sets would not do anything.
Hence, in our opinion, the algorithm design and method developments papers are equally worthy of getting cited

  1. Neese,F.
     An improvement of the resolution of the identity approximation for the formation of the Coulomb matrix
     J. Comp. Chem., 2003 24(14)1740-1747
     doi.org/10.1002/jcc.10318
  2. Neese,F.
     The SHARK Integral Generation and Digestion System
     J. Comp. Chem., 2022  1-16
     doi.org/10.1002/jcc.26942
  3. Grimme,S.; Antony,J.; Ehrlich,S.; Krieg,H.
     A consistent and accurate ab initio parametrization of density functional dispersion correction (DFT-D) for the 94 elements H-Pu
     J. Chem. Phys., 2010 132 154104-XXXX
     doi.org/10.1063/1.3382344
  4. Grimme,S.; Ehrlich,S.; Goerigk,L.
     Effect of the damping function in dispersion corrected density functional theory
     J. Comput. Chem., 2011 32(7)1456-1465
     doi.org/10.1002/jcc.21759

List of suggested additional citations. These are papers that are important in the 'surrounding' of 
of this run, or papers that preceded the highly important papers. If you like your results we are grateful for a citation.

  1. Neese,F.
     The ORCA program system
     WIRES Comput. Molec. Sci., 2012 2(1)73-78
     doi.org/10.1002/wcms.81
  2. Neese,F.
     Software update: the ORCA program system, version 4.0
     WIRES Comput. Molec. Sci., 2018 8(1)1-6
     doi.org/10.1002/wcms.1327
  3. Neese,F.; Wennmohs,F.; Becker,U.; Riplinger,C.
     The ORCA quantum chemistry program package
     J. Chem. Phys., 2020 152 Art. No. L224108
     doi.org/10.1063/5.0004608

List of optional additional citations

  1. Neese,F.
     Approximate second-order SCF convergence for spin unrestricted wavefunctions
     Chem. Phys. Lett., 2000 325(1-3)93-98
     doi.org/10.1016/s0009-2614(00)00662-x

Timings for individual modules:

Sum of individual times          ...      739.320 sec (=  12.322 min)
Startup calculation              ...       15.018 sec (=   0.250 min)   2.0 %
SCF iterations                   ...      511.353 sec (=   8.523 min)  69.2 %
Property calculations            ...        0.208 sec (=   0.003 min)   0.0 %
SCF Gradient evaluation          ...      212.462 sec (=   3.541 min)  28.7 %
Geometry relaxation              ...        0.279 sec (=   0.005 min)   0.0 %
                             ****ORCA TERMINATED NORMALLY****
TOTAL RUN TIME: 0 days 0 hours 12 minutes 21 seconds 48 msec
