
                                 *****************
                                 * O   R   C   A *
                                 *****************

                                            #,                                       
                                            ###                                      
                                            ####                                     
                                            #####                                    
                                            ######                                   
                                           ########,                                 
                                     ,,################,,,,,                         
                               ,,#################################,,                 
                          ,,##########################################,,             
                       ,#########################################, ''#####,          
                    ,#############################################,,   '####,        
                  ,##################################################,,,,####,       
                ,###########''''           ''''###############################       
              ,#####''   ,,,,##########,,,,          '''####'''          '####       
            ,##' ,,,,###########################,,,                        '##       
           ' ,,###''''                  '''############,,,                           
         ,,##''                                '''############,,,,        ,,,,,,###''
      ,#''                                            '''#######################'''  
     '                                                          ''''####''''         
             ,#######,   #######,   ,#######,      ##                                
            ,#'     '#,  ##    ##  ,#'     '#,    #''#        ,####,   ,####,        
            ##       ##  ##   ,#'  ##            #'  '#       #'       #'  '#        
            ##       ##  #######   ##           ,######,      #####,   #    #        
            '#,     ,#'  ##    ##  '#,     ,#' ,#      #,     #,   #   #,  ,#        
             '#######'   ##     ##  '#######'  #'      '#     '####' # '####'        



                #########################################################
                #                        -***-                          #
                #          Department of theory and spectroscopy        #
                #                                                       #
                #                      Frank Neese                      #
                #                                                       #
                #     Directorship, Architecture, Infrastructure        #
                #                    SHARK, DRIVERS                     #
                #        Core code/Algorithms in most modules           #
                #                                                       #
                #        Max Planck Institute fuer Kohlenforschung      #
                #                Kaiser Wilhelm Platz 1                 #
                #                 D-45470 Muelheim/Ruhr                 #
                #                      Germany                          #
                #                                                       #
                #                  All rights reserved                  #
                #                        -***-                          #
                #########################################################


                         Program Version 6.0.0  -   RELEASE   -


 With contributions from (in alphabetic order):
   Daniel Aravena         : Magnetic Suceptibility
   Michael Atanasov       : Ab Initio Ligand Field Theory (pilot matlab implementation)
   Alexander A. Auer      : GIAO ZORA, VPT2 properties, NMR spectrum
   Ute Becker             : All parallelization in ORCA, NUMFREQ, NUMCALC
   Giovanni Bistoni       : ED, misc. LED, open-shell LED, HFLD
   Martin Brehm           : Molecular dynamics
   Dmytro Bykov           : pre 5.0 version of the SCF Hessian
   Marcos Casanova-Páez   : Triplet and SCS-CIS(D). UHF-(DLPNO)-IP/EA/STEOM-CCSD. UHF-CVS-IP/STEOM-CCSD
   Vijay G. Chilkuri      : MRCI spin determinant printing, contributions to CSF-ICE
   Pauline Colinet        : FMM embedding
   Dipayan Datta          : RHF DLPNO-CCSD density
   Achintya Kumar Dutta   : EOM-CC, STEOM-CC
   Nicolas Foglia         : Exact transition moments, OPA infrastructure, MCD improvements
   Dmitry Ganyushin       : Spin-Orbit,Spin-Spin,Magnetic field MRCI
   Miquel Garcia          : C-PCM and meta-GGA Hessian, CCSD/C-PCM, Gaussian charge scheme
   Tiago L. C. Gouveia    : GS-ROHF, GS-ROCIS
   Yang Guo               : DLPNO-NEVPT2, F12-NEVPT2, CIM, IAO-localization
   Andreas Hansen         : Spin unrestricted coupled pair/coupled cluster methods
   Ingolf Harden          : AUTO-CI MPn and infrastructure 
   Benjamin Helmich-Paris : MC-RPA, TRAH-(SCF,CASSCF), AVAS, COSX integrals, SCF dyn. polar.
   Lee Huntington         : MR-EOM, pCC
   Robert Izsak           : Overlap fitted RIJCOSX, COSX-SCS-MP3, EOM
   Riya Kayal             : Wick's Theorem for AUTO-CI, AUTO-CI UHF-CCSDT
   Emily Kempfer          : AUTO-CI, RHF CISDT and CCSDT
   Christian Kollmar      : KDIIS, OOCD, Brueckner-CCSD(T), CCSD density, CASPT2, CASPT2-K, improved NEVPT2
   Axel Koslowski         : Symmetry handling
   Simone Kossmann        : Meta GGA functionals, TD-DFT gradient, OOMP2, (MP2 Hessian; deprecated post 5.0)
   Lucas Lang             : DCDCAS
   Marvin Lechner         : AUTO-CI (C++ implementation), FIC-MRCC
   Spencer Leger          : CASSCF response
   Dagmar Lenk            : GEPOL surface, SMD, ORCA-2-JSON
   Dimitrios Liakos       : Extrapolation schemes; Compound Job, initial MDCI parallelization
   Dimitrios Manganas     : Further ROCIS development; embedding schemes. LFT, Crystal Embedding
   Dimitrios Pantazis     : SARC Basis sets
   Anastasios Papadopoulos: AUTO-CI, single reference methods and gradients
   Taras Petrenko         : pre 6.0 DFT Hessian and TD-DFT gradient, (ASA, deprecated), ECA, 1-Electron XAS/XES, NRVS
   Peter Pinski           : DLPNO-MP2, DLPNO-MP2 Gradient
   Christoph Reimann      : Effective Core Potentials
   Marius Retegan         : Local ZFS, SOC
   Christoph Riplinger    : Optimizer, TS searches, QM/MM, DLPNO-CCSD(T), (RO)-DLPNO pert. Triples
   Michael Roemelt        : Original ROCIS implementation
   Masaaki Saitow         : Open-shell DLPNO-CCSD energy and density
   Barbara Sandhoefer     : DKH picture change effects
   Kantharuban Sivalingam : CASSCF convergence/infrastructure, NEVPT2 and variants, FIC-MRCI
   Bernardo de Souza      : ESD, SOC TD-DFT
   Georgi Stoychev        : AutoAux, RI-MP2 NMR, DLPNO-MP2 response, X2C
   Van Anh Tran           : RI-MP2 g-tensors
   Willem Van den Heuvel  : Paramagnetic NMR
   Zikuan Wang            : NOTCH, Electric field optimization 
   Frank Wennmohs         : Technical directorship and infrastructure
   Hang Xu                : AUTO-CI-Response properties 


 We gratefully acknowledge several colleagues who have allowed us to
 interface, adapt or use parts of their codes:
   Stefan Grimme, W. Hujo, H. Kruse, P. Pracht,  : VdW corrections, initial TS optimization,
                  C. Bannwarth, S. Ehlert,         DFT functionals, gCP, sTDA/sTD-DF
                  L. Wittmann, M. Mueller
   Ed Valeev, F. Pavosevic, A. Kumar             : LibInt (2-el integral package), F12 methods
   Garnet Chan, S. Sharma, J. Yang, R. Olivares  : DMRG
   Ulf Ekstrom                                   : XCFun DFT Library
   Mihaly Kallay                                 : mrcc  (arbitrary order and MRCC methods)
   Frank Weinhold                                : gennbo (NPA and NBO analysis)
   Simon Mueller                                 : openCOSMO-RS
   Christopher J. Cramer and Donald G. Truhlar   : smd solvation model
   Lars Goerigk                                  : TD-DFT with DH, B97 family of functionals
   V. Asgeirsson, H. Jonsson                     : NEB implementation
   FAccTs GmbH                                   : IRC, NEB, NEB-TS, DLPNO-Multilevel, CI-OPT
                                                   MM, QMMM, 2- and 3-layer-ONIOM, Crystal-QMMM,
                                                   LR-CPCM, SF, NACMEs, symmetry and pop. for TD-DFT,
                                                   nearIR, NL-DFT gradient (VV10), updates on ESD,
                                                   ML-optimized integration grids, MBIS, APM,
                                                   GOAT, DOCKER, SOLVATOR, interface openCOSMO-RS
   S Lehtola, MJT Oliveira, MAL Marques          : LibXC Library
   Liviu Ungur et al                             : ANISO software


 Your calculation uses the libint2 library for the computation of 2-el integrals
 For citations please refer to: http://libint.valeyev.net

 Your ORCA version has been built with support for libXC version: 6.2.2
 For citations please refer to: https://libxc.gitlab.io

 This ORCA versions uses:
   CBLAS   interface :  Fast vector & matrix operations
   LAPACKE interface :  Fast linear algebra routines
   Shared memory     :  Shared parallel matrices


Your calculation utilizes the atom-pairwise dispersion correction
with the Becke-Johnson damping scheme (D3BJ)


Warning: RI is on but no J-basis has been assigned. Assigning Def2/J (nothing to worry about!)
================================================================================

----- Orbital basis set information -----
Your calculation utilizes the basis: def2-SVP
   F. Weigend and R. Ahlrichs, Phys. Chem. Chem. Phys. 7, 3297 (2005).

----- AuxJ basis set information -----
Your calculation utilizes the auxiliary basis: def2/J
   F. Weigend, Phys. Chem. Chem. Phys. 8, 1057 (2006).

================================================================================
                                        WARNINGS
                       Please study these warnings very carefully!
================================================================================


WARNING: Geometry Optimization
  ===> : Switching off AutoStart
         For restart on a previous wavefunction, please use MOREAD

================================================================================
                                       INPUT FILE
================================================================================
NAME = data/geom_opt_PO_BP86/70575/70575.inp
|  1> ! RI BP86 def2-SVP D3BJ TIGHTSCF Opt
|  2> %pal
|  3> nprocs 6
|  4> end
|  5> 
|  6> * xyz 0 1
|  7> C      5.165614    0.280653    1.488186
|  8> C      3.794521    0.146094    0.894815
|  9> C      3.571326    0.457884   -0.449931
| 10> C      2.302453    0.299299   -1.010136
| 11> C      1.232496   -0.182107   -0.241355
| 12> C      1.465216   -0.510821    1.100773
| 13> C      2.735581   -0.352291    1.661351
| 14> P     -0.387121   -0.344642   -1.018007
| 15> O     -0.251704   -0.792225   -2.464777
| 16> C     -1.348136   -1.537149   -0.064377
| 17> C     -1.202034   -2.903496   -0.352349
| 18> C     -1.912509   -3.864079    0.367613
| 19> C     -2.779660   -3.470372    1.384032
| 20> C     -2.938361   -2.117659    1.678924
| 21> C     -2.227524   -1.154999    0.959229
| 22> C     -1.219402    1.252818   -0.915584
| 23> C     -0.876480    2.225501    0.034892
| 24> C     -1.561175    3.441575    0.083095
| 25> C     -2.593582    3.699517   -0.816675
| 26> C     -2.942264    2.744191   -1.768429
| 27> C     -2.258925    1.529106   -1.817955
| 28> H      5.725011   -0.650052    1.352612
| 29> H      5.107552    0.506534    2.558152
| 30> H      5.718044    1.098483    1.013630
| 31> H      4.384616    0.823647   -1.073102
| 32> H      2.143746    0.544588   -2.059601
| 33> H      0.664870   -0.898321    1.725940
| 34> H      2.894226   -0.624219    2.702944
| 35> H     -0.530765   -3.216583   -1.151151
| 36> H     -1.791816   -4.918299    0.131421
| 37> H     -3.336261   -4.218214    1.943061
| 38> H     -3.620379   -1.811600    2.468476
| 39> H     -2.371476   -0.106425    1.206906
| 40> H     -0.072966    2.050454    0.745781
| 41> H     -1.285859    4.190926    0.821260
| 42> H     -3.123259    4.648027   -0.779896
| 43> H     -3.742886    2.945678   -2.475635
| 44> H     -2.530729    0.788578   -2.569242
| 45> **                         ****END OF INPUT****
================================================================================

                       *****************************
                       * Geometry Optimization Run *
                       *****************************

Geometry optimization settings:
Update method            Update   .... BFGS
Choice of coordinates    CoordSys .... (2022) Redundant Internals
Initial Hessian          InHess   .... Almloef's Model
Max. no of cycles        MaxIter  .... 114

Convergence Tolerances:
Energy Change            TolE     ....  5.0000e-06 Eh
Max. Gradient            TolMAXG  ....  3.0000e-04 Eh/bohr
RMS Gradient             TolRMSG  ....  1.0000e-04 Eh/bohr
Max. Displacement        TolMAXD  ....  4.0000e-03 bohr
RMS Displacement         TolRMSD  ....  2.0000e-03 bohr
Strict Convergence                .... False

------------------------------------------------------------------------------
                        ORCA OPTIMIZATION COORDINATE SETUP
------------------------------------------------------------------------------

The optimization will be done in redundant internal coordinates (2022)
Making redundant internal coordinates   ...  (2022 redundants) done
Evaluating the initial hessian          ...  (Almloef) done
Evaluating the coordinates              ...  done
Calculating the B-matrix                .... done
Calculating the G-matrix                .... done
Diagonalizing the G-matrix              .... done
Small eigenvalue found = 4.208e-03
Small eigenvalue found = 5.424e-03
Small eigenvalue found = 8.350e-03
Small eigenvalue found = 2.282e-02
Small eigenvalue found = 2.520e-02
The first mode is                       ....   90
The number of degrees of freedom        ....  108

    -----------------------------------------------------------------
                    Redundant Internal Coordinates


    -----------------------------------------------------------------
         Definition                    Initial Value    Approx d2E/dq
    -----------------------------------------------------------------
      1. B(C   1,C   0)                  1.5000         0.417054   
      2. B(C   2,C   1)                  1.3983         0.605931   
      3. B(C   3,C   2)                  1.3961         0.611013   
      4. B(C   4,C   3)                  1.4027         0.596303   
      5. B(C   5,C   4)                  1.4013         0.599487   
      6. B(C   6,C   5)                  1.3976         0.607657   
      7. B(C   6,C   1)                  1.3990         0.604383   
      8. B(P   7,C   4)                  1.8035         0.459676   
      9. B(O   8,P   7)                  1.5205         1.164721   
     10. B(C   9,P   7)                  1.8042         0.458616   
     11. B(C  10,C   9)                  1.4040         0.593505   
     12. B(C  11,C  10)                  1.3949         0.613575   
     13. B(C  12,C  11)                  1.3929         0.618263   
     14. B(C  13,C  12)                  1.3935         0.616703   
     15. B(C  14,C   9)                  1.4025         0.596657   
     16. B(C  14,C  13)                  1.3964         0.610253   
     17. B(C  15,P   7)                  1.8042         0.458603   
     18. B(C  16,C  15)                  1.4025         0.596671   
     19. B(C  17,C  16)                  1.3964         0.610251   
     20. B(C  18,C  17)                  1.3936         0.616699   
     21. B(C  19,C  18)                  1.3929         0.618263   
     22. B(C  20,C  19)                  1.3949         0.613577   
     23. B(C  20,C  15)                  1.4040         0.593475   
     24. B(H  21,C   0)                  1.0943         0.354442   
     25. B(H  22,C   0)                  1.0951         0.353430   
     26. B(H  23,C   0)                  1.0951         0.353426   
     27. B(H  24,C   2)                  1.0879         0.362865   
     28. B(H  25,C   3)                  1.0894         0.360932   
     29. B(H  26,C   5)                  1.0870         0.364106   
     30. B(H  27,C   6)                  1.0881         0.362581   
     31. B(H  28,C  10)                  1.0894         0.360945   
     32. B(H  29,C  11)                  1.0871         0.363990   
     33. B(H  30,C  12)                  1.0870         0.364080   
     34. B(H  31,C  13)                  1.0873         0.363695   
     35. B(H  32,C  14)                  1.0870         0.364088   
     36. B(H  33,C  16)                  1.0870         0.364047   
     37. B(H  34,C  17)                  1.0873         0.363694   
     38. B(H  35,C  18)                  1.0870         0.364083   
     39. B(H  36,C  19)                  1.0871         0.363990   
     40. B(H  37,C  20)                  1.0894         0.360956   
     41. A(H  22,C   0,H  23)          107.2241         0.289138   
     42. A(H  21,C   0,H  22)          108.8796         0.289268   
     43. A(C   1,C   0,H  22)          110.8877         0.329238   
     44. A(H  21,C   0,H  23)          108.8808         0.289267   
     45. A(C   1,C   0,H  21)          109.9955         0.329393   
     46. A(C   1,C   0,H  23)          110.8958         0.329237   
     47. A(C   2,C   1,C   6)          119.0463         0.430302   
     48. A(C   0,C   1,C   6)          120.4685         0.402631   
     49. A(C   0,C   1,C   2)          120.4178         0.402813   
     50. A(C   1,C   2,C   3)          120.3734         0.431145   
     51. A(C   3,C   2,H  24)          119.1955         0.352494   
     52. A(C   1,C   2,H  24)          120.4307         0.351996   
     53. A(C   2,C   3,C   4)          120.8200         0.429907   
     54. A(C   4,C   3,H  25)          119.6132         0.350728   
     55. A(C   2,C   3,H  25)          119.5648         0.352176   
     56. A(C   5,C   4,P   7)          122.7147         0.436216   
     57. A(C   3,C   4,P   7)          118.6794         0.435798   
     58. A(C   3,C   4,C   5)          118.6051         0.428441   
     59. A(C   6,C   5,H  26)          118.6217         0.352369   
     60. A(C   4,C   5,C   6)          120.5664         0.429893   
     61. A(C   4,C   5,H  26)          120.8112         0.351564   
     62. A(C   1,C   6,H  27)          120.2078         0.351798   
     63. A(C   1,C   6,C   5)          120.5740         0.430521   
     64. A(C   5,C   6,H  27)          119.2179         0.352119   
     65. A(C   4,P   7,C   9)          108.0769         0.443556   
     66. A(O   8,P   7,C   9)          110.8437         0.523633   
     67. A(O   8,P   7,C  15)          110.8393         0.523630   
     68. A(C   4,P   7,O   8)          110.8733         0.523860   
     69. A(C   4,P   7,C  15)          108.0606         0.443553   
     70. A(C   9,P   7,C  15)          108.0298         0.443368   
     71. A(P   7,C   9,C  10)          118.6467         0.435248   
     72. A(C  10,C   9,C  14)          118.6922         0.427717   
     73. A(P   7,C   9,C  14)          122.6594         0.435663   
     74. A(C   9,C  10,C  11)          120.7503         0.429867   
     75. A(C  11,C  10,H  28)          119.6300         0.352427   
     76. A(C   9,C  10,H  28)          119.6186         0.350452   
     77. A(C  12,C  11,H  29)          120.1185         0.353383   
     78. A(C  10,C  11,H  29)          119.9419         0.352928   
     79. A(C  10,C  11,C  12)          119.9390         0.433035   
     80. A(C  13,C  12,H  30)          120.0450         0.353247   
     81. A(C  11,C  12,H  30)          119.9742         0.353398   
     82. A(C  11,C  12,C  13)          119.9800         0.433431   
     83. A(C  14,C  13,H  31)          119.9675         0.352556   
     84. A(C  12,C  13,H  31)          119.8900         0.353184   
     85. A(C  12,C  13,C  14)          120.1421         0.432416   
     86. A(C  13,C  14,H  32)          118.6961         0.352620   
     87. A(C   9,C  14,H  32)          120.8079         0.351279   
     88. A(C   9,C  14,C  13)          120.4958         0.429857   
     89. A(C  16,C  15,C  20)          118.6926         0.427715   
     90. A(P   7,C  15,C  20)          118.6400         0.435241   
     91. A(P   7,C  15,C  16)          122.6657         0.435663   
     92. A(C  17,C  16,H  33)          118.6919         0.352614   
     93. A(C  15,C  16,H  33)          120.8130         0.351274   
     94. A(C  15,C  16,C  17)          120.4949         0.429859   
     95. A(C  18,C  17,H  34)          119.8920         0.353183   
     96. A(C  16,C  17,H  34)          119.9644         0.352556   
     97. A(C  16,C  17,C  18)          120.1430         0.432415   
     98. A(C  19,C  18,H  35)          119.9750         0.353399   
     99. A(C  17,C  18,H  35)          120.0442         0.353247   
    100. A(C  17,C  18,C  19)          119.9799         0.433431   
    101. A(C  18,C  19,H  36)          120.1176         0.353384   
    102. A(C  18,C  19,C  20)          119.9386         0.433035   
    103. A(C  20,C  19,H  36)          119.9431         0.352929   
    104. A(C  19,C  20,H  37)          119.6302         0.352429   
    105. A(C  15,C  20,H  37)          119.6184         0.350450   
    106. A(C  15,C  20,C  19)          120.7503         0.429864   
    107. D(C   6,C   1,C   0,H  21)     88.4744         0.012867   
    108. D(C   2,C   1,C   0,H  21)    -88.5121         0.012867   
    109. D(C   2,C   1,C   0,H  23)     31.9869         0.012867   
    110. D(C   2,C   1,C   0,H  22)    150.9957         0.012867   
    111. D(C   6,C   1,C   0,H  22)    -32.0179         0.012867   
    112. D(C   3,C   2,C   1,C   0)    178.3338         0.025338   
    113. D(H  24,C   2,C   1,C   6)   -178.4878         0.025338   
    114. D(C   3,C   2,C   1,C   6)      1.3048         0.025338   
    115. D(H  24,C   2,C   1,C   0)     -1.4589         0.025338   
    116. D(H  25,C   3,C   2,H  24)     -0.1007         0.025789   
    117. D(H  25,C   3,C   2,C   1)   -179.8958         0.025789   
    118. D(C   4,C   3,C   2,H  24)    179.3767         0.025789   
    119. D(C   4,C   3,C   2,C   1)     -0.4185         0.025789   
    120. D(C   5,C   4,C   3,H  25)    179.0141         0.024497   
    121. D(C   5,C   4,C   3,C   2)     -0.4631         0.024497   
    122. D(P   7,C   4,C   3,H  25)     -1.2904         0.024497   
    123. D(P   7,C   4,C   3,C   2)    179.2325         0.024497   
    124. D(H  26,C   5,C   4,P   7)      1.0648         0.024773   
    125. D(H  26,C   5,C   4,C   3)   -179.2526         0.024773   
    126. D(C   6,C   5,C   4,P   7)   -179.2351         0.024773   
    127. D(C   6,C   5,C   4,C   3)      0.4475         0.024773   
    128. D(H  27,C   6,C   5,H  26)      0.3422         0.025491   
    129. D(H  27,C   6,C   5,C   4)   -179.3644         0.025491   
    130. D(C   1,C   6,C   5,H  26)   -179.8446         0.025491   
    131. D(C   1,C   6,C   5,C   4)      0.4488         0.025491   
    132. D(H  27,C   6,C   1,C   2)    178.4895         0.025202   
    133. D(H  27,C   6,C   1,C   0)      1.4621         0.025202   
    134. D(C   5,C   6,C   1,C   0)   -178.3493         0.025202   
    135. D(C   5,C   6,C   1,C   2)     -1.3219         0.025202   
    136. D(O   8,P   7,C   4,C   3)     36.4469         0.004385   
    137. D(O   8,P   7,C   4,C   5)   -143.8707         0.004385   
    138. D(C  15,P   7,C   4,C   3)    -85.2088         0.004385   
    139. D(C   9,P   7,C   4,C   5)    -22.1990         0.004385   
    140. D(C   9,P   7,C   4,C   3)    158.1186         0.004385   
    141. D(C  14,C   9,P   7,O   8)   -144.2423         0.004372   
    142. D(C  14,C   9,P   7,C   4)     94.0677         0.004372   
    143. D(C  10,C   9,P   7,C  15)    157.8571         0.004372   
    144. D(C  10,C   9,P   7,O   8)     36.2396         0.004372   
    145. D(C  10,C   9,P   7,C   4)    -85.4504         0.004372   
    146. D(H  28,C  10,C   9,C  14)    179.3775         0.024255   
    147. D(H  28,C  10,C   9,P   7)     -1.0850         0.024255   
    148. D(C  11,C  10,C   9,C  14)     -0.2487         0.024255   
    149. D(C  11,C  10,C   9,P   7)    179.2887         0.024255   
    150. D(H  29,C  11,C  10,H  28)      0.1743         0.026019   
    151. D(H  29,C  11,C  10,C   9)    179.8005         0.026019   
    152. D(C  12,C  11,C  10,H  28)   -179.5500         0.026019   
    153. D(C  12,C  11,C  10,C   9)      0.0762         0.026019   
    154. D(H  30,C  12,C  11,H  29)      0.0583         0.026442   
    155. D(H  30,C  12,C  11,C  10)    179.7822         0.026442   
    156. D(C  13,C  12,C  11,H  29)   -179.6072         0.026442   
    157. D(C  13,C  12,C  11,C  10)      0.1167         0.026442   
    158. D(H  31,C  13,C  12,H  30)     -0.0491         0.026300   
    159. D(H  31,C  13,C  12,C  11)    179.6162         0.026300   
    160. D(C  14,C  13,C  12,H  30)   -179.7977         0.026300   
    161. D(C  14,C  13,C  12,C  11)     -0.1325         0.026300   
    162. D(H  32,C  14,C  13,C  12)    179.8196         0.025721   
    163. D(C   9,C  14,C  13,H  31)   -179.7930         0.025721   
    164. D(C   9,C  14,C  13,C  12)     -0.0446         0.025721   
    165. D(H  32,C  14,C   9,C  10)   -179.6288         0.024527   
    166. D(H  32,C  14,C   9,P   7)      0.8533         0.024527   
    167. D(C  13,C  14,C   9,C  10)      0.2324         0.024527   
    168. D(H  32,C  14,C  13,H  31)      0.0712         0.025721   
    169. D(C  13,C  14,C   9,P   7)   -179.2854         0.024527   
    170. D(C  20,C  15,P   7,O   8)     36.6345         0.004372   
    171. D(C  20,C  15,P   7,C   4)    158.3113         0.004372   
    172. D(C  16,C  15,P   7,C   9)     94.5408         0.004372   
    173. D(C  16,C  15,P   7,O   8)   -143.8391         0.004372   
    174. D(C  16,C  15,P   7,C   4)    -22.1623         0.004372   
    175. D(H  33,C  16,C  15,C  20)   -179.5975         0.024528   
    176. D(H  33,C  16,C  15,P   7)      0.8763         0.024528   
    177. D(C  17,C  16,C  15,C  20)      0.2441         0.024528   
    178. D(C  17,C  16,C  15,P   7)   -179.2821         0.024528   
    179. D(H  34,C  17,C  16,H  33)      0.0586         0.025721   
    180. D(H  34,C  17,C  16,C  15)   -179.7863         0.025721   
    181. D(C  18,C  17,C  16,H  33)    179.7974         0.025721   
    182. D(C  18,C  17,C  16,C  15)     -0.0475         0.025721   
    183. D(H  35,C  18,C  17,H  34)     -0.0542         0.026300   
    184. D(H  35,C  18,C  17,C  16)   -179.7931         0.026300   
    185. D(C  19,C  18,C  17,H  34)    179.6014         0.026300   
    186. D(C  19,C  18,C  17,C  16)     -0.1375         0.026300   
    187. D(H  36,C  19,C  18,H  35)      0.0594         0.026442   
    188. D(H  36,C  19,C  18,C  17)   -179.5964         0.026442   
    189. D(C  20,C  19,C  18,H  35)    179.7767         0.026442   
    190. D(C  20,C  19,C  18,C  17)      0.1209         0.026442   
    191. D(H  37,C  20,C  19,H  36)      0.1805         0.026019   
    192. D(H  37,C  20,C  19,C  18)   -179.5373         0.026019   
    193. D(C  15,C  20,C  19,H  36)    179.7987         0.026019   
    194. D(C  15,C  20,C  19,C  18)      0.0809         0.026019   
    195. D(H  37,C  20,C  15,C  16)    179.3569         0.024253   
    196. D(H  37,C  20,C  15,P   7)     -1.0976         0.024253   
    197. D(C  19,C  20,C  15,C  16)     -0.2613         0.024253   
    198. D(C  19,C  20,C  15,P   7)    179.2842         0.024253   
    -----------------------------------------------------------------

Number of atoms                         .... 38
Number of degrees of freedom            .... 198


         *************************************************************
         *                GEOMETRY OPTIMIZATION CYCLE   1            *
         *************************************************************
---------------------------------
CARTESIAN COORDINATES (ANGSTROEM)
---------------------------------
  C      5.165614    0.280653    1.488186
  C      3.794521    0.146094    0.894815
  C      3.571326    0.457884   -0.449931
  C      2.302453    0.299299   -1.010136
  C      1.232496   -0.182107   -0.241355
  C      1.465216   -0.510821    1.100773
  C      2.735581   -0.352291    1.661351
  P     -0.387121   -0.344642   -1.018007
  O     -0.251704   -0.792225   -2.464777
  C     -1.348136   -1.537149   -0.064377
  C     -1.202034   -2.903496   -0.352349
  C     -1.912509   -3.864079    0.367613
  C     -2.779660   -3.470372    1.384032
  C     -2.938361   -2.117659    1.678924
  C     -2.227524   -1.154999    0.959229
  C     -1.219402    1.252818   -0.915584
  C     -0.876480    2.225501    0.034892
  C     -1.561175    3.441575    0.083095
  C     -2.593582    3.699517   -0.816675
  C     -2.942264    2.744191   -1.768429
  C     -2.258925    1.529106   -1.817955
  H      5.725011   -0.650052    1.352612
  H      5.107552    0.506534    2.558152
  H      5.718044    1.098483    1.013630
  H      4.384616    0.823647   -1.073102
  H      2.143746    0.544588   -2.059601
  H      0.664870   -0.898321    1.725940
  H      2.894226   -0.624219    2.702944
  H     -0.530765   -3.216583   -1.151151
  H     -1.791816   -4.918299    0.131421
  H     -3.336261   -4.218214    1.943061
  H     -3.620379   -1.811600    2.468476
  H     -2.371476   -0.106425    1.206906
  H     -0.072966    2.050454    0.745781
  H     -1.285859    4.190926    0.821260
  H     -3.123259    4.648027   -0.779896
  H     -3.742886    2.945678   -2.475635
  H     -2.530729    0.788578   -2.569242

----------------------------
CARTESIAN COORDINATES (A.U.)
----------------------------
  NO LB      ZA    FRAG     MASS         X           Y           Z
   0 C     6.0000    0    12.011    9.761596    0.530357    2.812264
   1 C     6.0000    0    12.011    7.170605    0.276078    1.690955
   2 C     6.0000    0    12.011    6.748828    0.865275   -0.850246
   3 C     6.0000    0    12.011    4.351006    0.565593   -1.908880
   4 C     6.0000    0    12.011    2.329080   -0.344132   -0.456095
   5 C     6.0000    0    12.011    2.768857   -0.965312    2.080160
   6 C     6.0000    0    12.011    5.169499   -0.665734    3.139498
   7 P    15.0000    0    30.974   -0.731553   -0.651279   -1.923754
   8 O     8.0000    0    15.999   -0.475652   -1.497088   -4.657754
   9 C     6.0000    0    12.011   -2.547608   -2.904791   -0.121655
  10 C     6.0000    0    12.011   -2.271515   -5.486812   -0.665843
  11 C     6.0000    0    12.011   -3.614118   -7.302051    0.694688
  12 C     6.0000    0    12.011   -5.252796   -6.558053    2.615441
  13 C     6.0000    0    12.011   -5.552698   -4.001796    3.172707
  14 C     6.0000    0    12.011   -4.209410   -2.182632    1.812680
  15 C     6.0000    0    12.011   -2.304336    2.367483   -1.730203
  16 C     6.0000    0    12.011   -1.656307    4.205587    0.065936
  17 C     6.0000    0    12.011   -2.950193    6.503634    0.157027
  18 C     6.0000    0    12.011   -4.901160    6.991074   -1.543292
  19 C     6.0000    0    12.011   -5.560073    5.185769   -3.341846
  20 C     6.0000    0    12.011   -4.268750    2.889592   -3.435437
  21 H     1.0000    0     1.008   10.818703   -1.228420    2.556066
  22 H     1.0000    0     1.008    9.651874    0.957211    4.834207
  23 H     1.0000    0     1.008   10.805537    2.075832    1.915483
  24 H     1.0000    0     1.008    8.285723    1.556467   -2.027869
  25 H     1.0000    0     1.008    4.051093    1.029122   -3.892082
  26 H     1.0000    0     1.008    1.256422   -1.697581    3.261554
  27 H     1.0000    0     1.008    5.469295   -1.179603    5.107824
  28 H     1.0000    0     1.008   -1.003000   -6.078461   -2.175360
  29 H     1.0000    0     1.008   -3.386042   -9.294238    0.248350
  30 H     1.0000    0     1.008   -6.304620   -7.971269    3.671853
  31 H     1.0000    0     1.008   -6.841525   -3.423428    4.664744
  32 H     1.0000    0     1.008   -4.481440   -0.201114    2.280722
  33 H     1.0000    0     1.008   -0.137886    3.874797    1.409322
  34 H     1.0000    0     1.008   -2.429921    7.919702    1.551956
  35 H     1.0000    0     1.008   -5.902104    8.783498   -1.473790
  36 H     1.0000    0     1.008   -7.073029    5.566525   -4.678272
  37 H     1.0000    0     1.008   -4.782385    1.490196   -4.855164

--------------------------------
INTERNAL COORDINATES (ANGSTROEM)
--------------------------------
 C      0   0   0     0.000000000000     0.00000000     0.00000000
 C      1   0   0     1.500030427282     0.00000000     0.00000000
 C      2   1   0     1.398345742884   120.41784616     0.00000000
 C      3   2   1     1.396072180934   120.37344373   178.33375778
 C      4   3   2     1.402705936626   120.81995258   359.58154747
 C      5   4   3     1.401256243726   118.60511333   359.53693349
 C      6   5   4     1.397571711294   120.56640236     0.44748275
 P      5   4   3     1.803542398176   118.67940108   179.23251514
 O      8   5   4     1.520464316805   110.87330474    36.44690334
 C      8   5   4     1.804170987510   108.07688276   158.11860243
 C     10   8   5     1.403986392953   118.64668894   274.54963586
 C     11  10   8     1.394933585142   120.75027074   179.28872311
 C     12  11  10     1.392861673753   119.93903831     0.07616592
 C     13  12  11     1.393549338715   119.98000808     0.11666368
 C     14  13  12     1.396411260766   120.14207374   359.86752720
 C      8   5   4     1.804178645670   108.06058873   274.79119367
 C     16   8   5     1.402537822360   122.66571773   337.83767153
 C     17  16   8     1.396412097380   120.49486957   180.71794129
 C     18  17  16     1.393550982890   120.14300197   359.95246145
 C     19  18  17     1.392861292418   119.97993027   359.86245225
 C     20  19  18     1.394932461025   119.93862952     0.12086483
 H      1   2   3     1.094311249193   109.99549714   271.48788506
 H      1   2   3     1.095089340265   110.88771156   150.99567876
 H      1   2   3     1.095092786451   110.89581181    31.98686593
 H      3   2   1     1.087917869837   120.43074397   358.54114713
 H      4   3   2     1.089372017079   119.56481885   180.10417579
 H      6   5   4     1.086988384301   120.81123706   180.74735938
 H      7   6   5     1.088130989752   119.21787890   180.63562573
 H     11  10   8     1.089362279104   119.61863741   358.91497022
 H     12  11  10     1.087075558327   119.94190634   179.80053531
 H     13  12  11     1.087007706047   119.97415635   179.78215099
 H     14  13  12     1.087296199069   119.88998639   179.61618209
 H     15  14  13     1.087002073645   118.69611690   179.81962161
 H     17  16   8     1.087032368757   120.81302632     0.87634647
 H     18  17  16     1.087296366352   119.96443436   180.21370851
 H     19  18  17     1.087005813816   120.04417260   180.20690473
 H     20  19  18     1.087075399634   120.11761727   180.40358158
 H     21  20  19     1.089353610895   119.63022350   180.46274828

---------------------------
INTERNAL COORDINATES (A.U.)
---------------------------
 C      0   0   0     0.000000000000     0.00000000     0.00000000
 C      1   0   0     2.834646700111     0.00000000     0.00000000
 C      2   1   0     2.642490494585   120.41784616     0.00000000
 C      3   2   1     2.638194085152   120.37344373   178.33375778
 C      4   3   2     2.650730066649   120.81995258   359.58154747
 C      5   4   3     2.647990544089   118.60511333   359.53693349
 C      6   5   4     2.641027786861   120.56640236     0.44748275
 P      5   4   3     3.408201203468   118.67940108   179.23251514
 O      8   5   4     2.873261155162   110.87330474    36.44690334
 C      8   5   4     3.409389065161   108.07688276   158.11860243
 C     10   8   5     2.653149778433   118.64668894   274.54963586
 C     11  10   8     2.636042450928   120.75027074   179.28872311
 C     12  11  10     2.632127105829   119.93903831     0.07616592
 C     13  12  11     2.633426604279   119.98000808     0.11666368
 C     14  13  12     2.638834853171   120.14207374   359.86752720
 C      8   5   4     3.409403536984   108.06058873   274.79119367
 C     16   8   5     2.650412376726   122.66571773   337.83767153
 C     17  16   8     2.638836434143   120.49486957   180.71794129
 C     18  17  16     2.633429711318   120.14300197   359.95246145
 C     19  18  17     2.632126385209   119.97993027   359.86245225
 C     20  19  18     2.636040326655   119.93862952     0.12086483
 H      1   2   3     2.067948566244   109.99549714   271.48788506
 H      1   2   3     2.069418945276   110.88771156   150.99567876
 H      1   2   3     2.069425457624   110.89581181    31.98686593
 H      3   2   1     2.055866830190   120.43074397   358.54114713
 H      4   3   2     2.058614770237   119.56481885   180.10417579
 H      6   5   4     2.054110357082   120.81123706   180.74735938
 H      7   6   5     2.056269568463   119.21787890   180.63562573
 H     11  10   8     2.058596368130   119.61863741   358.91497022
 H     12  11  10     2.054275092118   119.94190634   179.80053531
 H     13  12  11     2.054146869891   119.97415635   179.78215099
 H     14  13  12     2.054692042693   119.88998639   179.61618209
 H     15  14  13     2.054136226194   118.69611690   179.81962161
 H     17  16   8     2.054193475659   120.81302632     0.87634647
 H     18  17  16     2.054692358813   119.96443436   180.21370851
 H     19  18  17     2.054143294093   120.04417260   180.20690473
 H     20  19  18     2.054274792231   120.11761727   180.40358158
 H     21  20  19     2.058579987589   119.63022350   180.46274828

---------------------
BASIS SET INFORMATION
---------------------
There are 4 groups of distinct atoms

 Group   1 Type C   : 7s4p1d contracted to 3s2p1d pattern {511/31/1}
 Group   2 Type P   : 10s7p1d contracted to 4s3p1d pattern {5311/511/1}
 Group   3 Type O   : 7s4p1d contracted to 3s2p1d pattern {511/31/1}
 Group   4 Type H   : 4s1p contracted to 2s1p pattern {31/1}

Atom   0C    basis set group =>   1
Atom   1C    basis set group =>   1
Atom   2C    basis set group =>   1
Atom   3C    basis set group =>   1
Atom   4C    basis set group =>   1
Atom   5C    basis set group =>   1
Atom   6C    basis set group =>   1
Atom   7P    basis set group =>   2
Atom   8O    basis set group =>   3
Atom   9C    basis set group =>   1
Atom  10C    basis set group =>   1
Atom  11C    basis set group =>   1
Atom  12C    basis set group =>   1
Atom  13C    basis set group =>   1
Atom  14C    basis set group =>   1
Atom  15C    basis set group =>   1
Atom  16C    basis set group =>   1
Atom  17C    basis set group =>   1
Atom  18C    basis set group =>   1
Atom  19C    basis set group =>   1
Atom  20C    basis set group =>   1
Atom  21H    basis set group =>   4
Atom  22H    basis set group =>   4
Atom  23H    basis set group =>   4
Atom  24H    basis set group =>   4
Atom  25H    basis set group =>   4
Atom  26H    basis set group =>   4
Atom  27H    basis set group =>   4
Atom  28H    basis set group =>   4
Atom  29H    basis set group =>   4
Atom  30H    basis set group =>   4
Atom  31H    basis set group =>   4
Atom  32H    basis set group =>   4
Atom  33H    basis set group =>   4
Atom  34H    basis set group =>   4
Atom  35H    basis set group =>   4
Atom  36H    basis set group =>   4
Atom  37H    basis set group =>   4
---------------------------------
AUXILIARY/J BASIS SET INFORMATION
---------------------------------
There are 4 groups of distinct atoms

 Group   1 Type C   : 12s5p4d2f1g contracted to 6s4p3d1f1g pattern {711111/2111/211/2/1}
 Group   2 Type P   : 14s5p5d2f1g contracted to 8s4p3d1f1g pattern {71111111/2111/311/2/1}
 Group   3 Type O   : 12s5p4d2f1g contracted to 6s4p3d1f1g pattern {711111/2111/211/2/1}
 Group   4 Type H   : 5s2p1d contracted to 3s1p1d pattern {311/2/1}

Atom   0C    basis set group =>   1
Atom   1C    basis set group =>   1
Atom   2C    basis set group =>   1
Atom   3C    basis set group =>   1
Atom   4C    basis set group =>   1
Atom   5C    basis set group =>   1
Atom   6C    basis set group =>   1
Atom   7P    basis set group =>   2
Atom   8O    basis set group =>   3
Atom   9C    basis set group =>   1
Atom  10C    basis set group =>   1
Atom  11C    basis set group =>   1
Atom  12C    basis set group =>   1
Atom  13C    basis set group =>   1
Atom  14C    basis set group =>   1
Atom  15C    basis set group =>   1
Atom  16C    basis set group =>   1
Atom  17C    basis set group =>   1
Atom  18C    basis set group =>   1
Atom  19C    basis set group =>   1
Atom  20C    basis set group =>   1
Atom  21H    basis set group =>   4
Atom  22H    basis set group =>   4
Atom  23H    basis set group =>   4
Atom  24H    basis set group =>   4
Atom  25H    basis set group =>   4
Atom  26H    basis set group =>   4
Atom  27H    basis set group =>   4
Atom  28H    basis set group =>   4
Atom  29H    basis set group =>   4
Atom  30H    basis set group =>   4
Atom  31H    basis set group =>   4
Atom  32H    basis set group =>   4
Atom  33H    basis set group =>   4
Atom  34H    basis set group =>   4
Atom  35H    basis set group =>   4
Atom  36H    basis set group =>   4
Atom  37H    basis set group =>   4


           ************************************************************
           *        Program running with 6 parallel MPI-processes     *
           *              working on a common directory               *
           ************************************************************
------------------------------------------------------------------------------
                             ORCA STARTUP CALCULATIONS
                           -- RI-GTO INTEGRALS CHOSEN --
------------------------------------------------------------------------------
------------------------------------------------------------------------------
                   ___                                                        
                  /   \      - P O W E R E D   B Y -                         
                 /     \                                                     
                 |  |  |   _    _      __       _____    __    __             
                 |  |  |  | |  | |    /  \     |  _  \  |  |  /  |          
                  \  \/   | |  | |   /    \    | | | |  |  | /  /          
                 / \  \   | |__| |  /  /\  \   | |_| |  |  |/  /          
                |  |  |   |  __  | /  /__\  \  |    /   |      \           
                |  |  |   | |  | | |   __   |  |    \   |  |\   \          
                \     /   | |  | | |  |  |  |  | |\  \  |  | \   \       
                 \___/    |_|  |_| |__|  |__|  |_| \__\ |__|  \__/        
                                                                              
                      - O R C A' S   B I G   F R I E N D -                    
                                      &                                       
                       - I N T E G R A L  F E E D E R -                       
                                                                              
 v1 FN, 2020, v2 2021, v3 2022-2024                                           
------------------------------------------------------------------------------


----------------------
SHARK INTEGRAL PACKAGE
----------------------

Number of atoms                             ...     38
Number of basis functions                   ...    383
Number of shells                            ...    179
Maximum angular momentum                    ...      2
Integral batch strategy                     ... SHARK/LIBINT Hybrid
RI-J (if used) integral strategy            ... SPLIT-RIJ (Revised 2003 algorithm where possible)
Printlevel                                  ...      1
Contraction scheme used                     ... SEGMENTED contraction
Prescreening option                         ... SCHWARTZ
   Thresh                                   ... 2.500e-11
   Tcut                                     ... 2.500e-12
   Tpresel                                  ... 2.500e-12 
Coulomb Range Separation                    ... NOT USED
Exchange Range Separation                   ... NOT USED
Multipole approximations                    ... NOT USED
Finite Nucleus Model                        ... NOT USED
CABS basis                                  ... NOT available
Auxiliary Coulomb fitting basis             ... AVAILABLE
   # of basis functions in Aux-J            ...   1218
   # of shells in Aux-J                     ...    402
   Maximum angular momentum in Aux-J        ...      4
Auxiliary J/K fitting basis                 ... NOT available
Auxiliary Correlation fitting basis         ... NOT available
Auxiliary 'external' fitting basis          ... NOT available

Checking pre-screening integrals            ... done (  0.0 sec) Dimension = 179
Check shell pair data                       ... done (  0.0 sec)
Shell pair information
Shell pair cut-off parameter TPreSel        ...   2.5e-12
Total number of shell pairs                 ...     16110
Shell pairs after pre-screening             ...     12069
Total number of primitive shell pairs       ...     59330
Primitive shell pairs kept                  ...     28405
          la=0 lb=0:   3723 shell pairs
          la=1 lb=0:   4502 shell pairs
          la=1 lb=1:   1400 shell pairs
          la=2 lb=0:   1429 shell pairs
          la=2 lb=1:    883 shell pairs
          la=2 lb=2:    132 shell pairs

Calculating one electron integrals          ... done (  0.0 sec)
Calculating RI/J V-Matrix + Cholesky decomp.... done (  0.1 sec)
Calculating Nuclear repulsion               ... done (  0.0 sec) ENN=   1696.567400127991 Eh

Diagonalization of the overlap matrix:
Smallest eigenvalue                        ... 2.650e-04
Time for diagonalization                   ...    0.020 sec
Threshold for overlap eigenvalues          ... 1.000e-07
Number of eigenvalues below threshold      ... 0
Time for construction of square roots      ...    0.010 sec
Total time needed                          ...    0.032 sec

-------------------
DFT GRID GENERATION
-------------------

General Integration Accuracy     IntAcc      ... 4.388
Radial Grid Type                 RadialGrid  ... OptM3 with GC (2021)
Angular Grid (max. ang.)         AngularGrid ... 4 (Lebedev-302)
Angular grid pruning method      GridPruning ... 4 (adaptive)
Weight generation scheme         WeightScheme... mBecke (2022)
Basis function cutoff            BFCut       ... 1.0000e-11
Integration weight cutoff        WCut        ... 1.0000e-14
Partially contracted basis set               ... off
Rotationally invariant grid construction     ... off
Angular grids for H and He will be reduced by one unit

Total number of grid points                  ...   181029
Total number of batches                      ...     2848
Average number of points per batch           ...       63
Average number of grid points per atom       ...     4764
Initializing property integral containers    ... done (  0.0 sec)

SHARK setup successfully completed in   1.2 seconds

Maximum memory used throughout the entire STARTUP-calculation: 49.8 MB


           ************************************************************
           *        Program running with 6 parallel MPI-processes     *
           *              working on a common directory               *
           ************************************************************
-------------------------------------------------------------------------------
                                 ORCA GUESS
                   Start orbitals & Density for SCF / CASSCF
-------------------------------------------------------------------------------

------------
SCF SETTINGS
------------
Hamiltonian:
 Density Functional     Method          .... DFT(GTOs)
 Exchange Functional    Exchange        .... B88
   X-Alpha parameter    XAlpha          ....  0.666667
   Becke's b parameter  XBeta           ....  0.004200
 Correlation Functional Correlation     .... P86
 LDA part of GGA corr.  LDAOpt          .... PW91-LDA
 Gradients option       PostSCFGGA      .... off
   NL short-range parameter             ....  4.400000
 RI-approximation to the Coulomb term is turned on
   Number of AuxJ basis functions       .... 1218


General Settings:
 Integral files         IntName         .... data/geom_opt_PO_BP86/70575/70575
 Hartree-Fock type      HFTyp           .... RHF
 Total Charge           Charge          ....    0
 Multiplicity           Mult            ....    1
 Number of Electrons    NEL             ....  154
 Basis Dimension        Dim             ....  383
 Nuclear Repulsion      ENuc            ....   1696.5674001280 Eh

Convergence Acceleration:
 AO-DIIS                CNVDIIS         .... on
   Start iteration      DIISMaxIt       ....    12
   Startup error        DIISStart       ....  0.200000
   # of expansion vecs  DIISMaxEq       ....     5
   Bias factor          DIISBfac        ....   1.050
   Max. coefficient     DIISMaxC        ....  10.000
 MO-DIIS                CNVKDIIS        .... off
 Trust-Rad. Augm. Hess. CNVTRAH         .... auto
   Auto Start mean grad. ratio tolernc. ....  1.125000
   Auto Start start iteration           ....    50
   Auto Start num. interpolation iter.  ....    10
   Max. Number of Micro iterations      ....    24
   Max. Number of Macro iterations      .... Maxiter - #DIIS iter
   Number of Davidson start vectors     ....     2
   Converg. threshold    (grad. norm)   ....   1.000e-05
   Grad. Scal. Fac. for Micro threshold ....   0.100
   Minimum threshold for Micro iter.    ....   1.000e-02
   NR start threshold (gradient norm)   ....   1.000e-04
   Initial trust radius                 ....   0.400
   Minimum AH scaling param. (alpha)    ....   1.000
   Maximum AH scaling param. (alpha)    .... 1000.000
   Quad. conv. algorithm                .... NR
   White noise on init. David. guess    .... on
   Maximum white noise                  ....   0.010
   Pseudo random numbers                .... off
   Inactive MOs                         .... canonical
   Orbital update algorithm             .... Taylor
   Preconditioner                       .... Diag
   Full preconditioner red. dimension   ....   250
 SOSCF                  CNVSOSCF        .... on
   Start iteration      SOSCFMaxIt      ....   150
   Startup grad/error   SOSCFStart      ....  0.003300
   Hessian update       SOSCFHessUp     .... L-BFGS
 Level Shifting         CNVShift        .... on
   Level shift para.    LevelShift      ....    0.2500
   Turn off err/grad.   ShiftErr        ....    0.0010
 Zerner damping         CNVZerner       .... off
 Static damping         CNVDamp         .... on
   Fraction old density DampFac         ....    0.7000
   Max. Damping (<1)    DampMax         ....    0.9800
   Min. Damping (>=0)   DampMin         ....    0.0000
   Turn off err/grad.   DampErr         ....    0.1000

SCF Procedure:
 Maximum # iterations   MaxIter         ....   125
 SCF integral mode      SCFMode         .... Direct
   Integral package                     .... SHARK and LIBINT hybrid scheme
 Reset frequency        DirectResetFreq ....    20
 Integral Threshold     Thresh          ....  2.500e-11 Eh
 Primitive CutOff       TCut            ....  2.500e-12 Eh

Convergence Tolerance:
 Convergence Check Mode ConvCheckMode   .... Total+1el-Energy
 Convergence forced     ConvForced      .... 0
 Energy Change          TolE            ....  1.000e-08 Eh
 1-El. energy change                    ....  1.000e-05 Eh
 Orbital Gradient       TolG            ....  1.000e-05
 Orbital Rotation angle TolX            ....  1.000e-05
 DIIS Error             TolErr          ....  5.000e-07

------------------------------
INITIAL GUESS: MODEL POTENTIAL
------------------------------
Loading Hartree-Fock densities                     ... done
Calculating cut-offs                               ... done
Initializing the effective Hamiltonian             ... done
Setting up the integral package (SHARK)            ... done
Starting the Coulomb interaction                   ... done (   0.2 sec)
Making the grid                                    ... done (   0.3 sec)
Mapping shells                                     ... done
Starting the XC term evaluation                    ... done (   0.2 sec)
  promolecular density results
     # of electrons  =    153.991404699
     EX              =   -133.594465278
     EC              =     -5.700125536
     EX+EC           =   -139.294590813
Transforming the Hamiltonian                       ... done (   0.0 sec)
Diagonalizing the Hamiltonian                      ... done (   0.0 sec)
Back transforming the eigenvectors                 ... done (   0.0 sec)
Now organizing SCF variables                       ... done
                      ------------------
                      INITIAL GUESS DONE (   0.7 sec)
                      ------------------
             **** ENERGY FILE WAS UPDATED (data/geom_opt_PO_BP86/70575/70575.en.tmp) ****
Finished Guess after   0.8 sec
Maximum memory used throughout the entire GUESS-calculation: 28.2 MB


           ************************************************************
           *        Program running with 6 parallel MPI-processes     *
           *              working on a common directory               *
           ************************************************************

-------------------------------------------------------------------------------------------
                                      ORCA LEAN-SCF
                              memory conserving SCF solver
-------------------------------------------------------------------------------------------

----------------------------------------D-I-I-S--------------------------------------------
Iteration    Energy (Eh)           Delta-E    RMSDP     MaxDP     DIISErr   Damp  Time(sec)
-------------------------------------------------------------------------------------------
               ***  Starting incremental Fock matrix formation  ***
    1    -1149.7393383976502719     0.00e+00  3.27e-03  1.61e-01  3.35e-01  0.700   1.1
    2    -1149.9681997690129265    -2.29e-01  1.88e-03  5.97e-02  7.68e-02  0.700   1.0
                               ***Turning on AO-DIIS***
    3    -1150.0406665810326103    -7.25e-02  6.74e-04  2.04e-02  3.09e-02  0.700   1.0
    4    -1150.0908622393046699    -5.02e-02  1.20e-03  5.10e-02  1.70e-02  0.000   1.0
    5    -1150.2016447449020689    -1.11e-01  2.87e-04  1.18e-02  7.45e-03  0.000   0.9
    6    -1150.2028474020487465    -1.20e-03  1.04e-04  3.32e-03  3.61e-03  0.000   0.9
                              *** Initializing SOSCF ***
---------------------------------------S-O-S-C-F--------------------------------------
Iteration    Energy (Eh)           Delta-E    RMSDP     MaxDP     MaxGrad    Time(sec)
--------------------------------------------------------------------------------------
    7    -1150.2029181428026732    -7.07e-05  4.25e-05  1.18e-03  1.79e-03     1.0
               *** Restarting incremental Fock matrix formation ***
    8    -1150.2029318039333248    -1.37e-05  2.49e-05  1.00e-03  1.08e-04     1.0
    9    -1150.2029326566159853    -8.53e-07  1.07e-05  5.70e-04  7.13e-05     0.8
   10    -1150.2029328110563711    -1.54e-07  6.69e-06  2.18e-04  7.56e-05     1.3
   11    -1150.2029329098238577    -9.88e-08  4.30e-06  3.16e-04  4.54e-05     0.9
   12    -1150.2029329672448057    -5.74e-08  3.56e-06  9.45e-05  4.72e-05     0.8
   13    -1150.2029330087236758    -4.15e-08  2.90e-06  2.47e-04  2.42e-05     0.8
   14    -1150.2029330133425447    -4.62e-09  2.15e-06  1.20e-04  1.51e-05     0.8
                 **** Energy Check signals convergence ****

               *****************************************************
               *                     SUCCESS                       *
               *           SCF CONVERGED AFTER  14 CYCLES          *
               *****************************************************

             **** ENERGY FILE WAS UPDATED (data/geom_opt_PO_BP86/70575/70575.en.tmp) ****

----------------
TOTAL SCF ENERGY
----------------

Total Energy       :      -1150.20293301334254 Eh          -31298.61300 eV

Components:
Nuclear Repulsion  :       1696.56740012799060 Eh           46165.94599 eV
Electronic Energy  :      -2846.77033314133314 Eh          -77464.55899 eV
One Electron Energy:      -4938.26279119977880 Eh         -134376.96214 eV
Two Electron Energy:       2091.49245805844566 Eh           56912.40315 eV

Virial components:
Potential Energy   :      -2290.23938060674254 Eh          -62320.58186 eV
Kinetic Energy     :       1140.03644759340000 Eh           31021.96887 eV
Virial Ratio       :          2.00891768455421

DFT components:
N(Alpha)           :       76.999858203590 electrons
N(Beta)            :       76.999858203590 electrons
N(Total)           :      153.999716407181 electrons
E(X)               :     -135.553703963894 Eh       
E(C)               :       -5.708394564535 Eh       
E(XC)              :     -141.262098528429 Eh       

---------------
SCF CONVERGENCE
---------------

  Last Energy change         ...    4.6189e-09  Tolerance :   1.0000e-08
  Last MAX-Density change    ...    1.2007e-04  Tolerance :   1.0000e-07
  Last RMS-Density change    ...    2.1515e-06  Tolerance :   5.0000e-09
  Last DIIS Error            ...    1.7860e-03  Tolerance :   5.0000e-07
  Last Orbital Gradient      ...    1.5117e-05  Tolerance :   1.0000e-05
  Last Orbital Rotation      ...    5.9311e-05  Tolerance :   1.0000e-05


----------------
ORBITAL ENERGIES
----------------

  NO   OCC          E(Eh)            E(eV) 
   0   2.0000     -76.407653     -2079.1579 
   1   2.0000     -18.701806      -508.9020 
   2   2.0000      -9.931153      -270.2404 
   3   2.0000      -9.928054      -270.1561 
   4   2.0000      -9.927845      -270.1504 
   5   2.0000      -9.926413      -270.1114 
   6   2.0000      -9.925486      -270.0862 
   7   2.0000      -9.925368      -270.0830 
   8   2.0000      -9.925072      -270.0749 
   9   2.0000      -9.924924      -270.0709 
  10   2.0000      -9.924393      -270.0565 
  11   2.0000      -9.924271      -270.0531 
  12   2.0000      -9.923750      -270.0390 
  13   2.0000      -9.923527      -270.0329 
  14   2.0000      -9.923476      -270.0315 
  15   2.0000      -9.923368      -270.0286 
  16   2.0000      -9.923220      -270.0246 
  17   2.0000      -9.920583      -269.9528 
  18   2.0000      -9.920309      -269.9453 
  19   2.0000      -9.919674      -269.9281 
  20   2.0000      -9.917672      -269.8736 
  21   2.0000      -6.366695      -173.2466 
  22   2.0000      -4.587817      -124.8408 
  23   2.0000      -4.587770      -124.8396 
  24   2.0000      -4.587659      -124.8365 
  25   2.0000      -0.841118       -22.8880 
  26   2.0000      -0.784339       -21.3430 
  27   2.0000      -0.782260       -21.2864 
  28   2.0000      -0.781299       -21.2602 
  29   2.0000      -0.710603       -19.3365 
  30   2.0000      -0.690568       -18.7913 
  31   2.0000      -0.679650       -18.4942 
  32   2.0000      -0.678345       -18.4587 
  33   2.0000      -0.677633       -18.4393 
  34   2.0000      -0.675788       -18.3891 
  35   2.0000      -0.628607       -17.1053 
  36   2.0000      -0.579404       -15.7664 
  37   2.0000      -0.553844       -15.0709 
  38   2.0000      -0.550895       -14.9906 
  39   2.0000      -0.550374       -14.9764 
  40   2.0000      -0.543107       -14.7787 
  41   2.0000      -0.531439       -14.4612 
  42   2.0000      -0.505969       -13.7681 
  43   2.0000      -0.477313       -12.9883 
  44   2.0000      -0.469814       -12.7843 
  45   2.0000      -0.439265       -11.9530 
  46   2.0000      -0.426970       -11.6184 
  47   2.0000      -0.416867       -11.3435 
  48   2.0000      -0.415535       -11.3073 
  49   2.0000      -0.408021       -11.1028 
  50   2.0000      -0.405860       -11.0440 
  51   2.0000      -0.398625       -10.8471 
  52   2.0000      -0.389114       -10.5883 
  53   2.0000      -0.382795       -10.4164 
  54   2.0000      -0.382431       -10.4065 
  55   2.0000      -0.381386       -10.3780 
  56   2.0000      -0.379278       -10.3207 
  57   2.0000      -0.372618       -10.1395 
  58   2.0000      -0.348388        -9.4801 
  59   2.0000      -0.341306        -9.2874 
  60   2.0000      -0.341083        -9.2813 
  61   2.0000      -0.332524        -9.0485 
  62   2.0000      -0.328508        -8.9391 
  63   2.0000      -0.313240        -8.5237 
  64   2.0000      -0.311787        -8.4842 
  65   2.0000      -0.308875        -8.4049 
  66   2.0000      -0.304324        -8.2811 
  67   2.0000      -0.304119        -8.2755 
  68   2.0000      -0.289887        -7.8882 
  69   2.0000      -0.248511        -6.7623 
  70   2.0000      -0.244417        -6.6509 
  71   2.0000      -0.241730        -6.5778 
  72   2.0000      -0.238029        -6.4771 
  73   2.0000      -0.236918        -6.4469 
  74   2.0000      -0.231276        -6.2933 
  75   2.0000      -0.204466        -5.5638 
  76   2.0000      -0.203840        -5.5468 
  77   0.0000      -0.063860        -1.7377 
  78   0.0000      -0.062718        -1.7066 
  79   0.0000      -0.059835        -1.6282 
  80   0.0000      -0.054721        -1.4890 
  81   0.0000      -0.044322        -1.2061 
  82   0.0000      -0.044227        -1.2035 
  83   0.0000       0.037165         1.0113 
  84   0.0000       0.045095         1.2271 
  85   0.0000       0.046614         1.2684 
  86   0.0000       0.052004         1.4151 
  87   0.0000       0.064403         1.7525 
*Only the first 10 virtual orbitals were printed.

                    ********************************
                    * MULLIKEN POPULATION ANALYSIS *
                    ********************************

-----------------------
MULLIKEN ATOMIC CHARGES
-----------------------
   0 C :    0.031329
   1 C :   -0.043498
   2 C :   -0.012629
   3 C :    0.013280
   4 C :   -0.112228
   5 C :   -0.004906
   6 C :   -0.010117
   7 P :    0.623849
   8 O :   -0.468849
   9 C :   -0.116936
  10 C :    0.014253
  11 C :    0.010747
  12 C :    0.014944
  13 C :    0.011969
  14 C :   -0.005500
  15 C :   -0.116988
  16 C :   -0.005704
  17 C :    0.011896
  18 C :    0.015042
  19 C :    0.010727
  20 C :    0.014174
  21 H :    0.055606
  22 H :    0.030722
  23 H :    0.032233
  24 H :   -0.014047
  25 H :    0.010490
  26 H :   -0.000846
  27 H :   -0.019524
  28 H :    0.013330
  29 H :    0.002246
  30 H :    0.000278
  31 H :   -0.002941
  32 H :    0.002214
  33 H :    0.002758
  34 H :   -0.003179
  35 H :    0.000225
  36 H :    0.002308
  37 H :    0.013273
Sum of atomic charges:   -0.0000000

--------------------------------
MULLIKEN REDUCED ORBITAL CHARGES
--------------------------------
  0 C s       :     2.949089  s :     2.949089
      pz      :     0.999668  p :     2.994090
      px      :     0.978791
      py      :     1.015632
      dz2     :     0.006998  d :     0.025491
      dxz     :     0.004113
      dyz     :     0.002708
      dx2y2   :     0.004251
      dxy     :     0.007422

  1 C s       :     3.070530  s :     3.070530
      pz      :     0.979352  p :     2.931151
      px      :     0.988104
      py      :     0.963695
      dz2     :     0.010436  d :     0.041817
      dxz     :     0.012197
      dyz     :     0.006203
      dx2y2   :     0.006008
      dxy     :     0.006972

  2 C s       :     3.225028  s :     3.225028
      pz      :     0.918663  p :     2.755613
      px      :     0.855227
      py      :     0.981723
      dz2     :     0.007901  d :     0.031988
      dxz     :     0.010984
      dyz     :     0.004816
      dx2y2   :     0.003968
      dxy     :     0.004319

  3 C s       :     3.242874  s :     3.242874
      pz      :     0.854363  p :     2.710921
      px      :     0.917985
      py      :     0.938573
      dz2     :     0.008339  d :     0.032925
      dxz     :     0.009192
      dyz     :     0.003035
      dx2y2   :     0.005839
      dxy     :     0.006519

  4 C s       :     3.065337  s :     3.065337
      pz      :     0.976888  p :     3.013599
      px      :     0.997580
      py      :     1.039131
      dz2     :     0.008699  d :     0.033291
      dxz     :     0.010224
      dyz     :     0.005833
      dx2y2   :     0.004942
      dxy     :     0.003593

  5 C s       :     3.231648  s :     3.231648
      pz      :     0.923061  p :     2.740084
      px      :     0.863245
      py      :     0.953779
      dz2     :     0.007838  d :     0.033174
      dxz     :     0.011321
      dyz     :     0.005354
      dx2y2   :     0.003894
      dxy     :     0.004767

  6 C s       :     3.222423  s :     3.222423
      pz      :     0.822266  p :     2.755803
      px      :     0.949749
      py      :     0.983788
      dz2     :     0.008237  d :     0.031891
      dxz     :     0.008996
      dyz     :     0.003037
      dx2y2   :     0.005617
      dxy     :     0.006003

  7 P s       :     5.210824  s :     5.210824
      pz      :     2.820997  p :     8.679884
      px      :     2.935104
      py      :     2.923782
      dz2     :     0.099558  d :     0.485443
      dxz     :     0.138114
      dyz     :     0.112797
      dx2y2   :     0.062641
      dxy     :     0.072333

  8 O s       :     3.823247  s :     3.823247
      pz      :     1.362329  p :     4.633945
      px      :     1.648645
      py      :     1.622970
      dz2     :     0.004551  d :     0.011657
      dxz     :     0.002996
      dyz     :     0.003426
      dx2y2   :     0.000344
      dxy     :     0.000340

  9 C s       :     3.071444  s :     3.071444
      pz      :     0.996715  p :     3.012263
      px      :     1.005985
      py      :     1.009563
      dz2     :     0.005929  d :     0.033229
      dxz     :     0.004561
      dyz     :     0.008552
      dx2y2   :     0.006328
      dxy     :     0.007859

 10 C s       :     3.238293  s :     3.238293
      pz      :     0.878011  p :     2.714752
      px      :     0.896728
      py      :     0.940014
      dz2     :     0.004854  d :     0.032702
      dxz     :     0.004095
      dyz     :     0.008361
      dx2y2   :     0.007580
      dxy     :     0.007812

 11 C s       :     3.171543  s :     3.171543
      pz      :     0.961913  p :     2.784916
      px      :     0.973470
      py      :     0.849534
      dz2     :     0.007015  d :     0.032794
      dxz     :     0.005158
      dyz     :     0.006934
      dx2y2   :     0.007907
      dxy     :     0.005781

 12 C s       :     3.169709  s :     3.169709
      pz      :     0.934035  p :     2.782259
      px      :     0.937195
      py      :     0.911029
      dz2     :     0.005536  d :     0.033088
      dxz     :     0.004114
      dyz     :     0.008967
      dx2y2   :     0.006417
      dxy     :     0.008054

 13 C s       :     3.169767  s :     3.169767
      pz      :     0.905772  p :     2.785560
      px      :     0.928888
      py      :     0.950899
      dz2     :     0.004692  d :     0.032704
      dxz     :     0.004195
      dyz     :     0.008310
      dx2y2   :     0.007681
      dxy     :     0.007826

 14 C s       :     3.227555  s :     3.227555
      pz      :     0.945005  p :     2.745002
      px      :     0.964615
      py      :     0.835381
      dz2     :     0.007159  d :     0.032943
      dxz     :     0.005153
      dyz     :     0.006946
      dx2y2   :     0.007956
      dxy     :     0.005729

 15 C s       :     3.071857  s :     3.071857
      pz      :     0.989698  p :     3.011899
      px      :     1.027716
      py      :     0.994485
      dz2     :     0.007762  d :     0.033232
      dxz     :     0.005757
      dyz     :     0.006431
      dx2y2   :     0.006193
      dxy     :     0.007089

 16 C s       :     3.227910  s :     3.227910
      pz      :     0.921558  p :     2.744854
      px      :     0.889153
      py      :     0.934144
      dz2     :     0.005091  d :     0.032940
      dxz     :     0.005732
      dyz     :     0.007471
      dx2y2   :     0.007720
      dxy     :     0.006926

 17 C s       :     3.169722  s :     3.169722
      pz      :     0.912257  p :     2.785675
      px      :     0.963073
      py      :     0.910346
      dz2     :     0.004996  d :     0.032706
      dxz     :     0.004977
      dyz     :     0.007970
      dx2y2   :     0.007525
      dxy     :     0.007238

 18 C s       :     3.169670  s :     3.169670
      pz      :     0.965685  p :     2.782199
      px      :     0.941128
      py      :     0.875386
      dz2     :     0.007807  d :     0.033089
      dxz     :     0.005794
      dyz     :     0.006186
      dx2y2   :     0.006037
      dxy     :     0.007264

 19 C s       :     3.171539  s :     3.171539
      pz      :     0.916958  p :     2.784940
      px      :     0.907462
      py      :     0.960521
      dz2     :     0.005158  d :     0.032793
      dxz     :     0.005639
      dyz     :     0.007636
      dx2y2   :     0.007509
      dxy     :     0.006851

 20 C s       :     3.238352  s :     3.238352
      pz      :     0.908926  p :     2.714767
      px      :     0.942536
      py      :     0.863305
      dz2     :     0.005023  d :     0.032707
      dxz     :     0.005081
      dyz     :     0.007976
      dx2y2   :     0.007514
      dxy     :     0.007112

 21 H s       :     0.920706  s :     0.920706
      pz      :     0.005676  p :     0.023687
      px      :     0.007051
      py      :     0.010961

 22 H s       :     0.946234  s :     0.946234
      pz      :     0.012640  p :     0.023044
      px      :     0.004558
      py      :     0.005846

 23 H s       :     0.944727  s :     0.944727
      pz      :     0.006665  p :     0.023040
      px      :     0.006618
      py      :     0.009757

 24 H s       :     0.991686  s :     0.991686
      pz      :     0.007008  p :     0.022361
      px      :     0.009330
      py      :     0.006023

 25 H s       :     0.966875  s :     0.966875
      pz      :     0.013630  p :     0.022636
      px      :     0.004085
      py      :     0.004920

 26 H s       :     0.977744  s :     0.977744
      pz      :     0.007036  p :     0.023102
      px      :     0.009791
      py      :     0.006275

 27 H s       :     0.997133  s :     0.997133
      pz      :     0.012870  p :     0.022391
      px      :     0.003971
      py      :     0.005550

 28 H s       :     0.964049  s :     0.964049
      pz      :     0.010188  p :     0.022622
      px      :     0.008109
      py      :     0.004325

 29 H s       :     0.975418  s :     0.975418
      pz      :     0.004731  p :     0.022337
      px      :     0.004513
      py      :     0.013092

 30 H s       :     0.977422  s :     0.977422
      pz      :     0.006871  p :     0.022300
      px      :     0.006999
      py      :     0.008430

 31 H s       :     0.980574  s :     0.980574
      pz      :     0.009509  p :     0.022367
      px      :     0.008380
      py      :     0.004479

 32 H s       :     0.974710  s :     0.974710
      pz      :     0.004753  p :     0.023076
      px      :     0.004643
      py      :     0.013679

 33 H s       :     0.974157  s :     0.974157
      pz      :     0.008445  p :     0.023086
      px      :     0.010274
      py      :     0.004367

 34 H s       :     0.980815  s :     0.980815
      pz      :     0.008797  p :     0.022365
      px      :     0.004912
      py      :     0.008655

 35 H s       :     0.977476  s :     0.977476
      pz      :     0.004224  p :     0.022300
      px      :     0.006586
      py      :     0.011490

 36 H s       :     0.975356  s :     0.975356
      pz      :     0.008478  p :     0.022336
      px      :     0.009645
      py      :     0.004213

 37 H s       :     0.964112  s :     0.964112
      pz      :     0.009163  p :     0.022614
      px      :     0.004533
      py      :     0.008918



                     *******************************
                     * LOEWDIN POPULATION ANALYSIS *
                     *******************************

----------------------
LOEWDIN ATOMIC CHARGES
----------------------
   0 C :   -0.056536
   1 C :   -0.017318
   2 C :   -0.029271
   3 C :   -0.004983
   4 C :   -0.193280
   5 C :   -0.028424
   6 C :   -0.033010
   7 P :    0.883382
   8 O :   -0.499142
   9 C :   -0.185434
  10 C :   -0.006666
  11 C :   -0.025148
  12 C :   -0.017981
  13 C :   -0.028427
  14 C :   -0.030257
  15 C :   -0.185697
  16 C :   -0.030064
  17 C :   -0.028571
  18 C :   -0.017989
  19 C :   -0.025125
  20 C :   -0.006855
  21 H :    0.045314
  22 H :    0.035126
  23 H :    0.035785
  24 H :    0.030520
  25 H :    0.035690
  26 H :    0.029886
  27 H :    0.028533
  28 H :    0.036132
  29 H :    0.033348
  30 H :    0.031654
  31 H :    0.031496
  32 H :    0.030342
  33 H :    0.030511
  34 H :    0.031404
  35 H :    0.031632
  36 H :    0.033359
  37 H :    0.036062

-------------------------------
LOEWDIN REDUCED ORBITAL CHARGES
-------------------------------
  0 C s       :     2.833228  s :     2.833228
      pz      :     1.058888  p :     3.153864
      px      :     1.027717
      py      :     1.067259
      dz2     :     0.019397  d :     0.069445
      dxz     :     0.011373
      dyz     :     0.007073
      dx2y2   :     0.012281
      dxy     :     0.019320

  1 C s       :     2.858034  s :     2.858034
      pz      :     1.065841  p :     3.052047
      px      :     1.036966
      py      :     0.949240
      dz2     :     0.029016  d :     0.107238
      dxz     :     0.034212
      dyz     :     0.014715
      dx2y2   :     0.014815
      dxy     :     0.014481

  2 C s       :     2.863603  s :     2.863603
      pz      :     1.044017  p :     3.077471
      px      :     1.044520
      py      :     0.988934
      dz2     :     0.023522  d :     0.088197
      dxz     :     0.032674
      dyz     :     0.011265
      dx2y2   :     0.011003
      dxy     :     0.009733

  3 C s       :     2.867470  s :     2.867470
      pz      :     1.044002  p :     3.047849
      px      :     1.054715
      py      :     0.949133
      dz2     :     0.023092  d :     0.089664
      dxz     :     0.027380
      dyz     :     0.006807
      dx2y2   :     0.016645
      dxy     :     0.015739

  4 C s       :     2.912368  s :     2.912368
      pz      :     1.083543  p :     3.192027
      px      :     1.082372
      py      :     1.026112
      dz2     :     0.025194  d :     0.088885
      dxz     :     0.029180
      dyz     :     0.013884
      dx2y2   :     0.012210
      dxy     :     0.008416

  5 C s       :     2.867190  s :     2.867190
      pz      :     1.050138  p :     3.070467
      px      :     1.052415
      py      :     0.967913
      dz2     :     0.023090  d :     0.090767
      dxz     :     0.033451
      dyz     :     0.012547
      dx2y2   :     0.010794
      dxy     :     0.010885

  6 C s       :     2.863957  s :     2.863957
      pz      :     1.032832  p :     3.081016
      px      :     1.054781
      py      :     0.993402
      dz2     :     0.022829  d :     0.088038
      dxz     :     0.027245
      dyz     :     0.007006
      dx2y2   :     0.016258
      dxy     :     0.014700

  7 P s       :     4.930726  s :     4.930726
      pz      :     2.787149  p :     8.508404
      px      :     2.864536
      py      :     2.856719
      dz2     :     0.142756  d :     0.677488
      dxz     :     0.187428
      dyz     :     0.156078
      dx2y2   :     0.084877
      dxy     :     0.106349

  8 O s       :     3.667028  s :     3.667028
      pz      :     1.484693  p :     4.814033
      px      :     1.673211
      py      :     1.656130
      dz2     :     0.008688  d :     0.018080
      dxz     :     0.003532
      dyz     :     0.005026
      dx2y2   :     0.000441
      dxy     :     0.000393

  9 C s       :     2.914491  s :     2.914491
      pz      :     1.051252  p :     3.182320
      px      :     1.043204
      py      :     1.087865
      dz2     :     0.014361  d :     0.088623
      dxz     :     0.013013
      dyz     :     0.022563
      dx2y2   :     0.018623
      dxy     :     0.020063

 10 C s       :     2.867757  s :     2.867757
      pz      :     1.001843  p :     3.049728
      px      :     0.990072
      py      :     1.057813
      dz2     :     0.012423  d :     0.089180
      dxz     :     0.010564
      dyz     :     0.022904
      dx2y2   :     0.022288
      dxy     :     0.021001

 11 C s       :     2.863543  s :     2.863543
      pz      :     1.021161  p :     3.072584
      px      :     1.009527
      py      :     1.041896
      dz2     :     0.017086  d :     0.089021
      dxz     :     0.015572
      dyz     :     0.019585
      dx2y2   :     0.020827
      dxy     :     0.015952

 12 C s       :     2.864815  s :     2.864815
      pz      :     1.010869  p :     3.063719
      px      :     0.996477
      py      :     1.056374
      dz2     :     0.013822  d :     0.089446
      dxz     :     0.011821
      dyz     :     0.024199
      dx2y2   :     0.018667
      dxy     :     0.020937

 13 C s       :     2.863944  s :     2.863944
      pz      :     1.008781  p :     3.075614
      px      :     1.001086
      py      :     1.065747
      dz2     :     0.011802  d :     0.088869
      dxz     :     0.010877
      dyz     :     0.022956
      dx2y2   :     0.022190
[...]
      dxy     :     0.012449

 15 C s       :     2.922256  s :     2.922256
      pz      :     1.065554  p :     3.173729
      px      :     1.040686
      py      :     1.067489
      dz2     :     0.021536  d :     0.086256
      dxz     :     0.017394
      dyz     :     0.020347
      dx2y2   :     0.012489
      dxy     :     0.014490

 16 C s       :     2.875059  s :     2.875059
      pz      :     1.026051  p :     3.073128
      px      :     1.002678
      py      :     1.044399
      dz2     :     0.015702  d :     0.087629
      dxz     :     0.015190
      dyz     :     0.022803
      dx2y2   :     0.017289
      dxy     :     0.016645

 17 C s       :     2.872864  s :     2.872864
      pz      :     1.024179  p :     3.071589
      px      :     1.013736
      py      :     1.033675
      dz2     :     0.015556  d :     0.085893
      dxz     :     0.013946
      dyz     :     0.022233
      dx2y2   :     0.016661
      dxy     :     0.017498

 18 C s       :     2.874638  s :     2.874638
      pz      :     1.038069  p :     3.061586
      px      :     1.000330
      py      :     1.023186
      dz2     :     0.022084  d :     0.085571
      dxz     :     0.017358
      dyz     :     0.019834
      dx2y2   :     0.011633
      dxy     :     0.014662

 19 C s       :     2.872963  s :     2.872963
      pz      :     1.025196  p :     3.067409
      px      :     0.999529
      py      :     1.042684
      dz2     :     0.015991  d :     0.085912
      dxz     :     0.014779
      dyz     :     0.023086
      dx2y2   :     0.015800
      dxy     :     0.016256

 20 C s       :     2.875326  s :     2.875326
      pz      :     1.025734  p :     3.052371
      px      :     0.994048
      py      :     1.032590
      dz2     :     0.015895  d :     0.086947
      dxz     :     0.014417
      dyz     :     0.022864
      dx2y2   :     0.016583
      dxy     :     0.017188

 21 H s       :     0.888850  s :     0.888850
      pz      :     0.012193  p :     0.063862
      px      :     0.018791
      py      :     0.032878

 22 H s       :     0.899307  s :     0.899307
      pz      :     0.036727  p :     0.063728
      px      :     0.011786
      py      :     0.015215

 23 H s       :     0.898184  s :     0.898184
      pz      :     0.019260  p :     0.063777
      px      :     0.020796
      py      :     0.023720

 24 H s       :     0.901579  s :     0.901579
      pz      :     0.021347  p :     0.066092
      px      :     0.029383
      py      :     0.015362

 25 H s       :     0.892425  s :     0.892425
      pz      :     0.043776  p :     0.068997
      px      :     0.012236
      py      :     0.012985

 26 H s       :     0.899402  s :     0.899402
      pz      :     0.021570  p :     0.068459
      px      :     0.030997
      py      :     0.015893

 27 H s       :     0.903016  s :     0.903016
      pz      :     0.040582  p :     0.066189
      px      :     0.011267
      py      :     0.014340

 28 H s       :     0.892058  s :     0.892058
      pz      :     0.036145  p :     0.069284
      px      :     0.020563
      py      :     0.012576

 29 H s       :     0.898355  s :     0.898355
      pz      :     0.014388  p :     0.065908
      px      :     0.012739
      py      :     0.038782

 30 H s       :     0.899539  s :     0.899539
      pz      :     0.020243  p :     0.065833
      px      :     0.020238
      py      :     0.025352

 31 H s       :     0.899772  s :     0.899772
      pz      :     0.032125  p :     0.065985
      px      :     0.020745
      py      :     0.013115

 32 H s       :     0.899302  s :     0.899302
      pz      :     0.014122  p :     0.068528
      px      :     0.013119
      py      :     0.041287

 33 H s       :     0.899092  s :     0.899092
      pz      :     0.027244  p :     0.068584
      px      :     0.027590
      py      :     0.013750

 34 H s       :     0.899834  s :     0.899834
      pz      :     0.029447  p :     0.065984
      px      :     0.013168
      py      :     0.023368

 35 H s       :     0.899542  s :     0.899542
      pz      :     0.011671  p :     0.065833
      px      :     0.019956
      py      :     0.034206

 36 H s       :     0.898324  s :     0.898324
      pz      :     0.027536  p :     0.065910
      px      :     0.025101
      py      :     0.013273

 37 H s       :     0.892123  s :     0.892123
      pz      :     0.031238  p :     0.069246
      px      :     0.012344
      py      :     0.025664



                      *****************************
                      * MAYER POPULATION ANALYSIS *
                      *****************************

  NA   - Mulliken gross atomic population
  ZA   - Total nuclear charge
  QA   - Mulliken gross atomic charge
  VA   - Mayer's total valence
  BVA  - Mayer's bonded valence
  FA   - Mayer's free valence

  ATOM       NA         ZA         QA         VA         BVA        FA
  0 C      5.9916     6.0000     0.0084     3.9149     3.9149    -0.0000
  1 C      6.0369     6.0000    -0.0369     3.9702     3.9702    -0.0000
  2 C      6.0208     6.0000    -0.0208     3.8404     3.8404    -0.0000
  3 C      5.9871     6.0000     0.0129     3.8758     3.8758    -0.0000
  4 C      6.1242     6.0000    -0.1242     3.7542     3.7542    -0.0000
  5 C      6.0043     6.0000    -0.0043     3.8679     3.8679    -0.0000
  6 C      6.0218     6.0000    -0.0218     3.8656     3.8656    -0.0000
  7 P     14.3669    15.0000     0.6331     4.7059     4.7059    -0.0000
  8 O      8.4562     8.0000    -0.4562     2.1465     2.1465    -0.0000
  9 C      6.1290     6.0000    -0.1290     3.7774     3.7774    -0.0000
 10 C      5.9879     6.0000     0.0121     3.8830     3.8830    -0.0000
 11 C      5.9990     6.0000     0.0010     3.8332     3.8332    -0.0000
 12 C      5.9908     6.0000     0.0092     3.8269     3.8269    -0.0000
 13 C      6.0008     6.0000    -0.0008     3.8592     3.8592    -0.0000
 14 C      6.0069     6.0000    -0.0069     3.8759     3.8759    -0.0000
 15 C      6.1288     6.0000    -0.1288     3.7774     3.7774    -0.0000
 16 C      6.0075     6.0000    -0.0075     3.8765     3.8765    -0.0000
 17 C      6.0005     6.0000    -0.0005     3.8580     3.8580    -0.0000
 18 C      5.9909     6.0000     0.0091     3.8269     3.8269    -0.0000
 19 C      5.9989     6.0000     0.0011     3.8331     3.8331    -0.0000
 20 C      5.9878     6.0000     0.0122     3.8821     3.8821    -0.0000
 21 H      0.9422     1.0000     0.0578     0.9860     0.9860     0.0000
 22 H      0.9640     1.0000     0.0360     0.9929     0.9929    -0.0000
 23 H      0.9616     1.0000     0.0384     0.9930     0.9930     0.0000
 24 H      1.0061     1.0000    -0.0061     0.9881     0.9881    -0.0000
 25 H      0.9811     1.0000     0.0189     1.0110     1.0110     0.0000
 26 H      0.9981     1.0000     0.0019     0.9994     0.9994    -0.0000
 27 H      1.0116     1.0000    -0.0116     0.9871     0.9871     0.0000
 28 H      0.9781     1.0000     0.0219     1.0125     1.0125    -0.0000
 29 H      0.9894     1.0000     0.0106     0.9798     0.9798    -0.0000
 30 H      0.9912     1.0000     0.0088     0.9789     0.9789    -0.0000
 31 H      0.9949     1.0000     0.0051     0.9791     0.9791    -0.0000
 32 H      0.9949     1.0000     0.0051     0.9999     0.9999    -0.0000
 33 H      0.9943     1.0000     0.0057     0.9998     0.9998    -0.0000
 34 H      0.9951     1.0000     0.0049     0.9791     0.9791    -0.0000
 35 H      0.9912     1.0000     0.0088     0.9789     0.9789    -0.0000
 36 H      0.9893     1.0000     0.0107     0.9799     0.9799    -0.0000
 37 H      0.9782     1.0000     0.0218     1.0122     1.0122    -0.0000

  Mayer bond orders larger than 0.100000
B(  0-C ,  1-C ) :   1.0735 B(  0-C , 21-H ) :   0.9458 B(  0-C , 22-H ) :   0.9542 
B(  0-C , 23-H ) :   0.9539 B(  1-C ,  2-C ) :   1.3717 B(  1-C ,  6-C ) :   1.3754 
B(  2-C ,  3-C ) :   1.3724 B(  2-C , 24-H ) :   0.9788 B(  3-C ,  4-C ) :   1.3689 
B(  3-C , 25-H ) :   0.9716 B(  4-C ,  5-C ) :   1.3559 B(  4-C ,  7-P ) :   0.8823 
B(  5-C ,  6-C ) :   1.3845 B(  5-C , 26-H ) :   0.9639 B(  6-C , 27-H ) :   0.9760 
B(  7-P ,  8-O ) :   1.8773 B(  7-P ,  9-C ) :   0.8774 B(  7-P , 15-C ) :   0.8781 
B(  9-C , 10-C ) :   1.3808 B(  9-C , 14-C ) :   1.3650 B( 10-C , 11-C ) :   1.3756 
B( 10-C , 28-H ) :   0.9717 B( 11-C , 12-C ) :   1.3779 B( 11-C , 29-H ) :   0.9778 
B( 12-C , 13-C ) :   1.3813 B( 12-C , 30-H ) :   0.9759 B( 13-C , 14-C ) :   1.3898 
B( 13-C , 31-H ) :   0.9752 B( 14-C , 32-H ) :   0.9645 B( 15-C , 16-C ) :   1.3662 
B( 15-C , 20-C ) :   1.3798 B( 16-C , 17-C ) :   1.3889 B( 16-C , 33-H ) :   0.9645 
B( 17-C , 18-C ) :   1.3814 B( 17-C , 34-H ) :   0.9753 B( 18-C , 19-C ) :   1.3778 
B( 18-C , 35-H ) :   0.9759 B( 19-C , 20-C ) :   1.3757 B( 19-C , 36-H ) :   0.9777 
B( 20-C , 37-H ) :   0.9719 

-------
TIMINGS
-------

Total SCF time: 0 days 0 hours 0 min 7 sec 

Total time                  ....       7.192 sec
Sum of individual times     ....       7.100 sec  ( 98.7%)

SCF preparation             ....       0.127 sec  (  1.8%)
Fock matrix formation       ....       6.379 sec  ( 88.7%)
  Startup                   ....       0.031 sec  (  0.5% of F)
  Split-RI-J                ....       2.217 sec  ( 34.8% of F)
  XC integration            ....       4.022 sec  ( 63.1% of F)
    Basis function eval.    ....       1.237 sec  ( 30.8% of XC)
    Density eval.           ....       1.219 sec  ( 30.3% of XC)
    XC-Functional eval.     ....       0.113 sec  (  2.8% of XC)
    XC-Potential eval.      ....       0.844 sec  ( 21.0% of XC)
Diagonalization             ....       0.000 sec  (  0.0%)
Density matrix formation    ....       0.074 sec  (  1.0%)
Total Energy calculation    ....       0.029 sec  (  0.4%)
Population analysis         ....       0.088 sec  (  1.2%)
Orbital Transformation      ....       0.043 sec  (  0.6%)
Orbital Orthonormalization  ....       0.000 sec  (  0.0%)
DIIS solution               ....       0.055 sec  (  0.8%)
SOSCF solution              ....       0.305 sec  (  4.2%)
Finished LeanSCF after   7.2 sec

Maximum memory used throughout the entire LEANSCF-calculation: 40.4 MB


-------------------------------------------------------------------------------
                          DFT DISPERSION CORRECTION                            
                                                                               
                              DFTD3 V3.1  Rev 1                                
                          USING Becke-Johnson damping                          
-------------------------------------------------------------------------------
The BP86 functional is recognized
Active option DFTDOPT                   ...         4   

molecular C6(AA) [au] = 19621.984177 


            DFT-D V3
 parameters
 s6 scaling factor         :     1.0000 
 a1 scaling factor         :     0.3946 
 s8 scaling factor         :     3.2822 
 a2 scaling factor         :     4.8516 
 ad hoc parameters k1-k3   :    16.0000     1.3333    -4.0000 

 Edisp/kcal,au: -56.266995229931  -0.089667154925 
 E6   /kcal   : -20.424992690 
 E8   /kcal   : -35.842002540 
 % E8         :  63.699869513 

-------------------------   ----------------
Dispersion correction           -0.089667155
-------------------------   ----------------


-------------------------   --------------------
FINAL SINGLE POINT ENERGY     -1150.300503510144
-------------------------   --------------------

                                *** OPTIMIZATION RUN DONE ***



           ************************************************************
           *        Program running with 6 parallel MPI-processes     *
           *              working on a common directory               *
           ************************************************************

------------------------------------------------------------------------------
                              ORCA PROPERTY CALCULATIONS
------------------------------------------------------------------------------

GBWName                                 ... data/geom_opt_PO_BP86/70575/70575.gbw
Number of atoms                         ...     38
Number of basis functions               ...    383
Max core memory                         ...   1024 MB

Electric properties:
Dipole moment                           ... YES
Quadrupole moment                       ...  NO
Static polarizability (Dipole/Dipole)   ...  NO
Static polarizability (Dipole/Quad.)    ...  NO
Static polarizability (Quad./Quad.)     ...  NO
Static polarizability (Velocity)        ...  NO

Atomic electric properties:
Dipole moment                           ...  NO
Quadrupole moment                       ...  NO
Static polarizability                   ...  NO

Choice of electric origin               ... Center of mass
Position of electric origin             ...    -0.356760    -0.155762    -0.266426

General magnetic properties:
Magnetizability                         ...  NO

EPR properties:
g-Tensor (aka g-matrix)                 ...  NO
Zero-Field splitting spin-orbit         ...  NO
Zero-field splitting spin-spin          ...  NO
Hyperfine couplings                     ...  NO (   0 nuclei)
Quadrupole couplings                    ...  NO (   0 nuclei)
Contact density                         ...  NO (   0 nuclei)

NMR properties:
Chemical shifts                         ...  NO (   0 nuclei)
Spin-rotation constants                 ...  NO (   0 nuclei)
Spin-spin couplings                     ...  NO (   0 nuclei,    0 pairs)

Choice of magnetic origin               ... GIAO
Position of magnetic origin             ...     0.000000     0.000000     0.000000

Properties with geometric perturbations:
SCF Hessian                             ...  NO
IR spectrum                             ...  NO
VCD spectrum                            ...  NO
X-ray spectroscopy properties:
SCF XES/XAS/RIXS spectra                ...  NO


-------------
DIPOLE MOMENT
-------------

Method             : SCF
Type of density    : Electron Density
Multiplicity       :   1
Irrep              :   0
Energy             : -1150.2108363552188166 Eh
Relativity type    : 
Basis              : AO
                                X                 Y                 Z
Electronic contribution:     -7.066217260      -2.303037802      -7.873348098
Nuclear contribution   :      7.184150592       2.733324093       9.354348076
                        -----------------------------------------
Total Dipole Moment    :      0.117933333       0.430286291       1.480999978
                        -----------------------------------------
Magnitude (a.u.)       :      1.546743514
Magnitude (Debye)      :      3.931509571



--------------------
Rotational spectrum 
--------------------
 
Rotational constants in cm-1:             0.010571             0.008144             0.005807 
Rotational constants in MHz :           316.897931           244.161710           174.098078 

Dipole components along the rotational axes: 
x,y,z [a.u.] :     0.374369    -0.021600     1.500599 
x,y,z [Debye]:     0.951570    -0.054902     3.814219 

 

Dipole moment calculation done in   0.0 sec 

Maximum memory used throughout the entire PROP-calculation: 20.6 MB

--------------------------------
SUGGESTED CITATIONS FOR THIS RUN
--------------------------------

Below you find a list of papers that are relevant to this ORCA run
We neither can nor want to force you to cite these papers, but we appreciate if you do
You receive ORCA, which is the product of decades of hard work by many enthusiastic individuals, for free
The only thing we kindly ask in return is that you cite our papers,
We deeply appreciate it, if you show your appreciation for ORCA by not just citing the generic ORCA reference.

Please note that relegating all ORCA citations to the supporting information does *not* help us.
SI sections are not indexed - citations you put there will not count into any citation statistics
But we need these citations in order to attract the funding resources that allow us to do what we are doing

Therefore, if you are a happy ORCA user, please consider citing a few of the papers listed below in the main body of your paper

In addition to the list printed below, the program has created the file data/geom_opt_PO_BP86/70575/70575.bibtex that contains the list in bibtex format
You can import this file easily into all common literature databanks and citation aid programs


List of essential papers. We consider these as the minimum necessary citations

  1. Neese,F.
     Software update: the ORCA program system, version 5.0
     WIRES Comput. Molec. Sci., 2022 12(1)e1606
     doi.org/10.1002/wcms.1606

List of papers to cite with high priority. The work reported in these papers was absolutely
necessary for this run to complete.
Our perspective: the developers of density functionals and basis sets usually get cited in chemistry papers
Good! But without the algorithms to do something with them, the functionals or basis sets would not do anything.
Hence, in our opinion, the algorithm design and method developments papers are equally worthy of getting cited

  1. Neese,F.
     An improvement of the resolution of the identity approximation for the formation of the Coulomb matrix
     J. Comp. Chem., 2003 24(14)1740-1747
     doi.org/10.1002/jcc.10318
  2. Neese,F.
     The SHARK Integral Generation and Digestion System
     J. Comp. Chem., 2022  1-16
     doi.org/10.1002/jcc.26942
  3. Grimme,S.; Antony,J.; Ehrlich,S.; Krieg,H.
     A consistent and accurate ab initio parametrization of density functional dispersion correction (DFT-D) for the 94 elements H-Pu
     J. Chem. Phys., 2010 132 154104-XXXX
     doi.org/10.1063/1.3382344
  4. Grimme,S.; Ehrlich,S.; Goerigk,L.
     Effect of the damping function in dispersion corrected density functional theory
     J. Comput. Chem., 2011 32(7)1456-1465
     doi.org/10.1002/jcc.21759

List of suggested additional citations. These are papers that are important in the 'surrounding' of 
of this run, or papers that preceded the highly important papers. If you like your results we are grateful for a citation.

  1. Neese,F.
     The ORCA program system
     WIRES Comput. Molec. Sci., 2012 2(1)73-78
     doi.org/10.1002/wcms.81
  2. Neese,F.
     Software update: the ORCA program system, version 4.0
     WIRES Comput. Molec. Sci., 2018 8(1)1-6
     doi.org/10.1002/wcms.1327
  3. Neese,F.; Wennmohs,F.; Becker,U.; Riplinger,C.
     The ORCA quantum chemistry program package
     J. Chem. Phys., 2020 152 Art. No. L224108
     doi.org/10.1063/5.0004608

List of optional additional citations

  1. Neese,F.
     Approximate second-order SCF convergence for spin unrestricted wavefunctions
     Chem. Phys. Lett., 2000 325(1-3)93-98
     doi.org/10.1016/s0009-2614(00)00662-x

Timings for individual modules:

Sum of individual times          ...      142.385 sec (=   2.373 min)
Startup calculation              ...       11.410 sec (=   0.190 min)   8.0 %
SCF iterations                   ...       87.693 sec (=   1.462 min)  61.6 %
Property calculations            ...        0.177 sec (=   0.003 min)   0.1 %
SCF Gradient evaluation          ...       42.971 sec (=   0.716 min)  30.2 %
Geometry relaxation              ...        0.134 sec (=   0.002 min)   0.1 %
                             ****ORCA TERMINATED NORMALLY****
TOTAL RUN TIME: 0 days 0 hours 2 minutes 23 seconds 908 msec
