
                                 *****************
                                 * O   R   C   A *
                                 *****************

                                            #,                                       
                                            ###                                      
                                            ####                                     
                                            #####                                    
                                            ######                                   
                                           ########,                                 
                                     ,,################,,,,,                         
                               ,,#################################,,                 
                          ,,##########################################,,             
                       ,#########################################, ''#####,          
                    ,#############################################,,   '####,        
                  ,##################################################,,,,####,       
                ,###########''''           ''''###############################       
              ,#####''   ,,,,##########,,,,          '''####'''          '####       
            ,##' ,,,,###########################,,,                        '##       
           ' ,,###''''                  '''############,,,                           
         ,,##''                                '''############,,,,        ,,,,,,###''
      ,#''                                            '''#######################'''  
     '                                                          ''''####''''         
             ,#######,   #######,   ,#######,      ##                                
            ,#'     '#,  ##    ##  ,#'     '#,    #''#        ,####,   ,####,        
            ##       ##  ##   ,#'  ##            #'  '#       #'       #'  '#        
            ##       ##  #######   ##           ,######,      #####,   #    #        
            '#,     ,#'  ##    ##  '#,     ,#' ,#      #,     #,   #   #,  ,#        
             '#######'   ##     ##  '#######'  #'      '#     '####' # '####'        



                #########################################################
                #                        -***-                          #
                #          Department of theory and spectroscopy        #
                #                                                       #
                #                      Frank Neese                      #
                #                                                       #
                #     Directorship, Architecture, Infrastructure        #
                #                    SHARK, DRIVERS                     #
                #        Core code/Algorithms in most modules           #
                #                                                       #
                #        Max Planck Institute fuer Kohlenforschung      #
                #                Kaiser Wilhelm Platz 1                 #
                #                 D-45470 Muelheim/Ruhr                 #
                #                      Germany                          #
                #                                                       #
                #                  All rights reserved                  #
                #                        -***-                          #
                #########################################################


                         Program Version 6.0.0  -   RELEASE   -


 With contributions from (in alphabetic order):
   Daniel Aravena         : Magnetic Suceptibility
   Michael Atanasov       : Ab Initio Ligand Field Theory (pilot matlab implementation)
   Alexander A. Auer      : GIAO ZORA, VPT2 properties, NMR spectrum
   Ute Becker             : All parallelization in ORCA, NUMFREQ, NUMCALC
   Giovanni Bistoni       : ED, misc. LED, open-shell LED, HFLD
   Martin Brehm           : Molecular dynamics
   Dmytro Bykov           : pre 5.0 version of the SCF Hessian
   Marcos Casanova-Páez   : Triplet and SCS-CIS(D). UHF-(DLPNO)-IP/EA/STEOM-CCSD. UHF-CVS-IP/STEOM-CCSD
   Vijay G. Chilkuri      : MRCI spin determinant printing, contributions to CSF-ICE
   Pauline Colinet        : FMM embedding
   Dipayan Datta          : RHF DLPNO-CCSD density
   Achintya Kumar Dutta   : EOM-CC, STEOM-CC
   Nicolas Foglia         : Exact transition moments, OPA infrastructure, MCD improvements
   Dmitry Ganyushin       : Spin-Orbit,Spin-Spin,Magnetic field MRCI
   Miquel Garcia          : C-PCM and meta-GGA Hessian, CCSD/C-PCM, Gaussian charge scheme
   Tiago L. C. Gouveia    : GS-ROHF, GS-ROCIS
   Yang Guo               : DLPNO-NEVPT2, F12-NEVPT2, CIM, IAO-localization
   Andreas Hansen         : Spin unrestricted coupled pair/coupled cluster methods
   Ingolf Harden          : AUTO-CI MPn and infrastructure 
   Benjamin Helmich-Paris : MC-RPA, TRAH-(SCF,CASSCF), AVAS, COSX integrals, SCF dyn. polar.
   Lee Huntington         : MR-EOM, pCC
   Robert Izsak           : Overlap fitted RIJCOSX, COSX-SCS-MP3, EOM
   Riya Kayal             : Wick's Theorem for AUTO-CI, AUTO-CI UHF-CCSDT
   Emily Kempfer          : AUTO-CI, RHF CISDT and CCSDT
   Christian Kollmar      : KDIIS, OOCD, Brueckner-CCSD(T), CCSD density, CASPT2, CASPT2-K, improved NEVPT2
   Axel Koslowski         : Symmetry handling
   Simone Kossmann        : Meta GGA functionals, TD-DFT gradient, OOMP2, (MP2 Hessian; deprecated post 5.0)
   Lucas Lang             : DCDCAS
   Marvin Lechner         : AUTO-CI (C++ implementation), FIC-MRCC
   Spencer Leger          : CASSCF response
   Dagmar Lenk            : GEPOL surface, SMD, ORCA-2-JSON
   Dimitrios Liakos       : Extrapolation schemes; Compound Job, initial MDCI parallelization
   Dimitrios Manganas     : Further ROCIS development; embedding schemes. LFT, Crystal Embedding
   Dimitrios Pantazis     : SARC Basis sets
   Anastasios Papadopoulos: AUTO-CI, single reference methods and gradients
   Taras Petrenko         : pre 6.0 DFT Hessian and TD-DFT gradient, (ASA, deprecated), ECA, 1-Electron XAS/XES, NRVS
   Peter Pinski           : DLPNO-MP2, DLPNO-MP2 Gradient
   Christoph Reimann      : Effective Core Potentials
   Marius Retegan         : Local ZFS, SOC
   Christoph Riplinger    : Optimizer, TS searches, QM/MM, DLPNO-CCSD(T), (RO)-DLPNO pert. Triples
   Michael Roemelt        : Original ROCIS implementation
   Masaaki Saitow         : Open-shell DLPNO-CCSD energy and density
   Barbara Sandhoefer     : DKH picture change effects
   Kantharuban Sivalingam : CASSCF convergence/infrastructure, NEVPT2 and variants, FIC-MRCI
   Bernardo de Souza      : ESD, SOC TD-DFT
   Georgi Stoychev        : AutoAux, RI-MP2 NMR, DLPNO-MP2 response, X2C
   Van Anh Tran           : RI-MP2 g-tensors
   Willem Van den Heuvel  : Paramagnetic NMR
   Zikuan Wang            : NOTCH, Electric field optimization 
   Frank Wennmohs         : Technical directorship and infrastructure
   Hang Xu                : AUTO-CI-Response properties 


 We gratefully acknowledge several colleagues who have allowed us to
 interface, adapt or use parts of their codes:
   Stefan Grimme, W. Hujo, H. Kruse, P. Pracht,  : VdW corrections, initial TS optimization,
                  C. Bannwarth, S. Ehlert,         DFT functionals, gCP, sTDA/sTD-DF
                  L. Wittmann, M. Mueller
   Ed Valeev, F. Pavosevic, A. Kumar             : LibInt (2-el integral package), F12 methods
   Garnet Chan, S. Sharma, J. Yang, R. Olivares  : DMRG
   Ulf Ekstrom                                   : XCFun DFT Library
   Mihaly Kallay                                 : mrcc  (arbitrary order and MRCC methods)
   Frank Weinhold                                : gennbo (NPA and NBO analysis)
   Simon Mueller                                 : openCOSMO-RS
   Christopher J. Cramer and Donald G. Truhlar   : smd solvation model
   Lars Goerigk                                  : TD-DFT with DH, B97 family of functionals
   V. Asgeirsson, H. Jonsson                     : NEB implementation
   FAccTs GmbH                                   : IRC, NEB, NEB-TS, DLPNO-Multilevel, CI-OPT
                                                   MM, QMMM, 2- and 3-layer-ONIOM, Crystal-QMMM,
                                                   LR-CPCM, SF, NACMEs, symmetry and pop. for TD-DFT,
                                                   nearIR, NL-DFT gradient (VV10), updates on ESD,
                                                   ML-optimized integration grids, MBIS, APM,
                                                   GOAT, DOCKER, SOLVATOR, interface openCOSMO-RS
   S Lehtola, MJT Oliveira, MAL Marques          : LibXC Library
   Liviu Ungur et al                             : ANISO software


 Your calculation uses the libint2 library for the computation of 2-el integrals
 For citations please refer to: http://libint.valeyev.net

 Your ORCA version has been built with support for libXC version: 6.2.2
 For citations please refer to: https://libxc.gitlab.io

 This ORCA versions uses:
   CBLAS   interface :  Fast vector & matrix operations
   LAPACKE interface :  Fast linear algebra routines
   Shared memory     :  Shared parallel matrices


Your calculation utilizes the atom-pairwise dispersion correction
with the Becke-Johnson damping scheme (D3BJ)


Warning: RI is on but no J-basis has been assigned. Assigning Def2/J (nothing to worry about!)
================================================================================

----- Orbital basis set information -----
Your calculation utilizes the basis: def2-SVP
   F. Weigend and R. Ahlrichs, Phys. Chem. Chem. Phys. 7, 3297 (2005).

----- AuxJ basis set information -----
Your calculation utilizes the auxiliary basis: def2/J
   F. Weigend, Phys. Chem. Chem. Phys. 8, 1057 (2006).

================================================================================
                                        WARNINGS
                       Please study these warnings very carefully!
================================================================================


WARNING: Geometry Optimization
  ===> : Switching off AutoStart
         For restart on a previous wavefunction, please use MOREAD

================================================================================
                                       INPUT FILE
================================================================================
NAME = data/geom_opt_P_BP86/76001/76001.inp
|  1> ! RI BP86 def2-SVP D3BJ TIGHTSCF Opt
|  2> %pal
|  3> nprocs 6
|  4> end
|  5> 
|  6> * xyz 0 1
|  7> C     -0.233815    1.589409   -0.238579
|  8> O     -1.507464    2.218849   -0.220496
|  9> P     -0.176268   -0.014496    0.658466
| 10> C      1.520881   -0.539231    0.184281
| 11> O      2.555214    0.196624    0.822542
| 12> C     -1.129033   -1.037181   -0.536049
| 13> O     -1.148269   -2.423739   -0.226548
| 14> H      0.480833    2.284633    0.213647
| 15> H      0.055577    1.464883   -1.286643
| 16> H     -1.778948    2.226238    0.713391
| 17> H      1.661369   -1.593377    0.444296
| 18> H      1.673246   -0.449772   -0.895753
| 19> H      2.337412    0.179902    1.770269
| 20> H     -0.729770   -0.932950   -1.549665
| 21> H     -2.168145   -0.693390   -0.561031
| 22> H     -1.412821   -2.476401    0.707873
| 23> **                         ****END OF INPUT****
================================================================================

                       *****************************
                       * Geometry Optimization Run *
                       *****************************

Geometry optimization settings:
Update method            Update   .... BFGS
Choice of coordinates    CoordSys .... (2022) Redundant Internals
Initial Hessian          InHess   .... Almloef's Model
Max. no of cycles        MaxIter  .... 50

Convergence Tolerances:
Energy Change            TolE     ....  5.0000e-06 Eh
Max. Gradient            TolMAXG  ....  3.0000e-04 Eh/bohr
RMS Gradient             TolRMSG  ....  1.0000e-04 Eh/bohr
Max. Displacement        TolMAXD  ....  4.0000e-03 bohr
RMS Displacement         TolRMSD  ....  2.0000e-03 bohr
Strict Convergence                .... False

------------------------------------------------------------------------------
                        ORCA OPTIMIZATION COORDINATE SETUP
------------------------------------------------------------------------------

The optimization will be done in redundant internal coordinates (2022)
Making redundant internal coordinates   ...  (2022 redundants) done
Evaluating the initial hessian          ...  (Almloef) done
Evaluating the coordinates              ...  done
Calculating the B-matrix                .... done
Calculating the G-matrix                .... done
Diagonalizing the G-matrix              .... done
The first mode is                       ....   21
The number of degrees of freedom        ....   42

    -----------------------------------------------------------------
                    Redundant Internal Coordinates


    -----------------------------------------------------------------
         Definition                    Initial Value    Approx d2E/dq
    -----------------------------------------------------------------
      1. B(O   1,C   0)                  1.4208         0.499711   
      2. B(P   2,C   0)                  1.8386         0.404104   
      3. B(C   3,P   2)                  1.8386         0.404103   
      4. B(O   4,C   3)                  1.4208         0.499710   
      5. B(C   5,P   2)                  1.8386         0.404104   
      6. B(O   6,C   5)                  1.4208         0.499710   
      7. B(H   7,C   0)                  1.0948         0.353818   
      8. B(H   8,C   0)                  1.0944         0.354337   
      9. B(H   9,O   1)                  0.9726         0.496482   
     10. B(H  10,C   3)                  1.0948         0.353817   
     11. B(H  11,C   3)                  1.0944         0.354338   
     12. B(H  12,O   4)                  0.9726         0.496481   
     13. B(H  13,C   5)                  1.0944         0.354337   
     14. B(H  14,C   5)                  1.0948         0.353816   
     15. B(H  15,O   6)                  0.9726         0.496481   
     16. A(P   2,C   0,H   7)          109.3901         0.347859   
     17. A(P   2,C   0,H   8)          111.0819         0.347945   
     18. A(H   7,C   0,H   8)          107.1712         0.289304   
     19. A(O   1,C   0,P   2)          114.0986         0.409960   
     20. A(O   1,C   0,H   7)          107.3721         0.337276   
     21. A(O   1,C   0,H   8)          107.4360         0.337358   
     22. A(C   0,O   1,H   9)          105.4153         0.353937   
     23. A(C   3,P   2,C   5)           98.7443         0.423642   
     24. A(C   0,P   2,C   3)           98.7444         0.423642   
     25. A(C   0,P   2,C   5)           98.7444         0.423642   
     26. A(O   4,C   3,H  10)          107.3720         0.337275   
     27. A(P   2,C   3,H  10)          109.3901         0.347859   
     28. A(P   2,C   3,O   4)          114.0986         0.409960   
     29. A(P   2,C   3,H  11)          111.0819         0.347945   
     30. A(H  10,C   3,H  11)          107.1713         0.289304   
     31. A(O   4,C   3,H  11)          107.4360         0.337358   
     32. A(C   3,O   4,H  12)          105.4153         0.353937   
     33. A(P   2,C   5,O   6)          114.0986         0.409960   
     34. A(O   6,C   5,H  14)          107.3720         0.337275   
     35. A(P   2,C   5,H  14)          109.3901         0.347859   
     36. A(O   6,C   5,H  13)          107.4360         0.337358   
     37. A(H  13,C   5,H  14)          107.1713         0.289304   
     38. A(P   2,C   5,H  13)          111.0819         0.347945   
     39. A(C   5,O   6,H  15)          105.4152         0.353937   
     40. D(H   9,O   1,C   0,P   2)     50.3394         0.019741   
     41. D(H   9,O   1,C   0,H   8)    173.9471         0.019741   
     42. D(H   9,O   1,C   0,H   7)    -71.0609         0.019741   
     43. D(C   5,P   2,C   0,O   1)     72.4596         0.003712   
     44. D(C   3,P   2,C   0,H   7)    -66.9355         0.003712   
     45. D(C   3,P   2,C   0,O   1)    172.7875         0.003712   
     46. D(C   5,P   2,C   0,H   7)   -167.2634         0.003712   
     47. D(C   3,P   2,C   0,H   8)     51.1712         0.003712   
     48. D(H  11,C   3,P   2,C   0)    -49.1568         0.003712   
     49. D(H  10,C   3,P   2,C   5)    -66.9356         0.003712   
     50. D(H  10,C   3,P   2,C   0)   -167.2635         0.003712   
     51. D(O   4,C   3,P   2,C   5)    172.7876         0.003712   
     52. D(O   4,C   3,P   2,C   0)     72.4596         0.003712   
     53. D(H  12,O   4,C   3,H  10)    -71.0608         0.019741   
     54. D(H  12,O   4,C   3,P   2)     50.3394         0.019741   
     55. D(H  12,O   4,C   3,H  11)    173.9472         0.019741   
     56. D(H  14,C   5,P   2,C   0)    -66.9356         0.003712   
     57. D(H  13,C   5,P   2,C   3)    -49.1567         0.003712   
     58. D(H  13,C   5,P   2,C   0)     51.1712         0.003712   
     59. D(O   6,C   5,P   2,C   3)     72.4597         0.003712   
     60. D(O   6,C   5,P   2,C   0)    172.7876         0.003712   
     61. D(H  15,O   6,C   5,H  14)    -71.0609         0.019741   
     62. D(H  15,O   6,C   5,H  13)    173.9471         0.019741   
     63. D(H  15,O   6,C   5,P   2)     50.3393         0.019741   
    -----------------------------------------------------------------

Number of atoms                         .... 16
Number of degrees of freedom            .... 63


         *************************************************************
         *                GEOMETRY OPTIMIZATION CYCLE   1            *
         *************************************************************
---------------------------------
CARTESIAN COORDINATES (ANGSTROEM)
---------------------------------
  C     -0.233815    1.589409   -0.238579
  O     -1.507464    2.218849   -0.220496
  P     -0.176268   -0.014496    0.658466
  C      1.520881   -0.539231    0.184281
  O      2.555214    0.196624    0.822542
  C     -1.129033   -1.037181   -0.536049
  O     -1.148269   -2.423739   -0.226548
  H      0.480833    2.284633    0.213647
  H      0.055577    1.464883   -1.286643
  H     -1.778948    2.226238    0.713391
  H      1.661369   -1.593377    0.444296
  H      1.673246   -0.449772   -0.895753
  H      2.337412    0.179902    1.770269
  H     -0.729770   -0.932950   -1.549665
  H     -2.168145   -0.693390   -0.561031
  H     -1.412821   -2.476401    0.707873

----------------------------
CARTESIAN COORDINATES (A.U.)
----------------------------
  NO LB      ZA    FRAG     MASS         X           Y           Z
   0 C     6.0000    0    12.011   -0.441846    3.003548   -0.450849
   1 O     8.0000    0    15.999   -2.848694    4.193017   -0.416677
   2 P    15.0000    0    30.974   -0.333098   -0.027393    1.244320
   3 C     6.0000    0    12.011    2.874049   -1.018999    0.348241
   4 O     8.0000    0    15.999    4.828655    0.371566    1.554379
   5 C     6.0000    0    12.011   -2.133563   -1.959988   -1.012986
   6 O     8.0000    0    15.999   -2.169914   -4.580203   -0.428114
   7 H     1.0000    0     1.008    0.908643    4.317331    0.403734
   8 H     1.0000    0     1.008    0.105025    2.768228   -2.431403
   9 H     1.0000    0     1.008   -3.361725    4.206980    1.348114
  10 H     1.0000    0     1.008    3.139532   -3.011046    0.839598
  11 H     1.0000    0     1.008    3.161977   -0.849946   -1.692728
  12 H     1.0000    0     1.008    4.417069    0.339966    3.345324
  13 H     1.0000    0     1.008   -1.379065   -1.763020   -2.928442
  14 H     1.0000    0     1.008   -4.097200   -1.310317   -1.060195
  15 H     1.0000    0     1.008   -2.669845   -4.679720    1.337686

--------------------------------
INTERNAL COORDINATES (ANGSTROEM)
--------------------------------
 C      0   0   0     0.000000000000     0.00000000     0.00000000
 O      1   0   0     1.420810854298     0.00000000     0.00000000
 P      1   2   0     1.838617045026   114.09862250     0.00000000
 C      3   1   2     1.838617133242    98.74435111   172.78752162
 O      4   3   1     1.420811190847   114.09859534    72.45963456
 C      3   1   2     1.838616827856    98.74437777    72.45963271
 O      6   3   1     1.420811028976   114.09863418   172.78757501
 H      1   2   3     1.094790632567   107.37206386   238.59976210
 H      1   2   3     1.094391430173   107.43599834   123.60772703
 H      2   1   3     0.972575492363   105.41531661    50.33936070
 H      4   3   1     1.094791517909   109.39013835   192.73648988
 H      4   3   1     1.094390902311   111.08188607   310.84322717
 H      5   4   3     0.972575859775   105.41525028    50.33938264
 H      6   3   1     1.094391355954   111.08189469    51.17118384
 H      6   3   1     1.094792263651   109.39012381   293.06443078
 H      7   6   3     0.972575782234   105.41523846    50.33927777

---------------------------
INTERNAL COORDINATES (A.U.)
---------------------------
 C      0   0   0     0.000000000000     0.00000000     0.00000000
 O      1   0   0     2.684943402725     0.00000000     0.00000000
 P      1   2   0     3.474482680258   114.09862250     0.00000000
 C      3   1   2     3.474482846963    98.74435111   172.78752162
 O      4   3   1     2.684944038711   114.09859534    72.45963456
 C      3   1   2     3.474482269867    98.74437777    72.45963271
 O      6   3   1     2.684943732820   114.09863418   172.78757501
 H      1   2   3     2.068854469534   107.37206386   238.59976210
 H      1   2   3     2.068100086337   107.43599834   123.60772703
 H      2   1   3     1.837901325131   105.41531661    50.33936070
 H      4   3   1     2.068856142588   109.39013835   192.73648988
 H      4   3   1     2.068099088824   111.08188607   310.84322717
 H      5   4   3     1.837902019438   105.41525028    50.33938264
 H      6   3   1     2.068099946083   111.08189469    51.17118384
 H      6   3   1     2.068857551835   109.39012381   293.06443078
 H      7   6   3     1.837901872907   105.41523846    50.33927777

---------------------
BASIS SET INFORMATION
---------------------
There are 4 groups of distinct atoms

 Group   1 Type C   : 7s4p1d contracted to 3s2p1d pattern {511/31/1}
 Group   2 Type O   : 7s4p1d contracted to 3s2p1d pattern {511/31/1}
 Group   3 Type P   : 10s7p1d contracted to 4s3p1d pattern {5311/511/1}
 Group   4 Type H   : 4s1p contracted to 2s1p pattern {31/1}

Atom   0C    basis set group =>   1
Atom   1O    basis set group =>   2
Atom   2P    basis set group =>   3
Atom   3C    basis set group =>   1
Atom   4O    basis set group =>   2
Atom   5C    basis set group =>   1
Atom   6O    basis set group =>   2
Atom   7H    basis set group =>   4
Atom   8H    basis set group =>   4
Atom   9H    basis set group =>   4
Atom  10H    basis set group =>   4
Atom  11H    basis set group =>   4
Atom  12H    basis set group =>   4
Atom  13H    basis set group =>   4
Atom  14H    basis set group =>   4
Atom  15H    basis set group =>   4
---------------------------------
AUXILIARY/J BASIS SET INFORMATION
---------------------------------
There are 4 groups of distinct atoms

 Group   1 Type C   : 12s5p4d2f1g contracted to 6s4p3d1f1g pattern {711111/2111/211/2/1}
 Group   2 Type O   : 12s5p4d2f1g contracted to 6s4p3d1f1g pattern {711111/2111/211/2/1}
 Group   3 Type P   : 14s5p5d2f1g contracted to 8s4p3d1f1g pattern {71111111/2111/311/2/1}
 Group   4 Type H   : 5s2p1d contracted to 3s1p1d pattern {311/2/1}

Atom   0C    basis set group =>   1
Atom   1O    basis set group =>   2
Atom   2P    basis set group =>   3
Atom   3C    basis set group =>   1
Atom   4O    basis set group =>   2
Atom   5C    basis set group =>   1
Atom   6O    basis set group =>   2
Atom   7H    basis set group =>   4
Atom   8H    basis set group =>   4
Atom   9H    basis set group =>   4
Atom  10H    basis set group =>   4
Atom  11H    basis set group =>   4
Atom  12H    basis set group =>   4
Atom  13H    basis set group =>   4
Atom  14H    basis set group =>   4
Atom  15H    basis set group =>   4


           ************************************************************
           *        Program running with 6 parallel MPI-processes     *
           *              working on a common directory               *
           ************************************************************
------------------------------------------------------------------------------
                             ORCA STARTUP CALCULATIONS
                           -- RI-GTO INTEGRALS CHOSEN --
------------------------------------------------------------------------------
------------------------------------------------------------------------------
                   ___                                                        
                  /   \      - P O W E R E D   B Y -                         
                 /     \                                                     
                 |  |  |   _    _      __       _____    __    __             
                 |  |  |  | |  | |    /  \     |  _  \  |  |  /  |          
                  \  \/   | |  | |   /    \    | | | |  |  | /  /          
                 / \  \   | |__| |  /  /\  \   | |_| |  |  |/  /          
                |  |  |   |  __  | /  /__\  \  |    /   |      \           
                |  |  |   | |  | | |   __   |  |    \   |  |\   \          
                \     /   | |  | | |  |  |  |  | |\  \  |  | \   \       
                 \___/    |_|  |_| |__|  |__|  |_| \__\ |__|  \__/        
                                                                              
                      - O R C A' S   B I G   F R I E N D -                    
                                      &                                       
                       - I N T E G R A L  F E E D E R -                       
                                                                              
 v1 FN, 2020, v2 2021, v3 2022-2024                                           
------------------------------------------------------------------------------


----------------------
SHARK INTEGRAL PACKAGE
----------------------

Number of atoms                             ...     16
Number of basis functions                   ...    147
Number of shells                            ...     71
Maximum angular momentum                    ...      2
Integral batch strategy                     ... SHARK/LIBINT Hybrid
RI-J (if used) integral strategy            ... SPLIT-RIJ (Revised 2003 algorithm where possible)
Printlevel                                  ...      1
Contraction scheme used                     ... SEGMENTED contraction
Prescreening option                         ... SCHWARTZ
   Thresh                                   ... 2.500e-11
   Tcut                                     ... 2.500e-12
   Tpresel                                  ... 2.500e-12 
Coulomb Range Separation                    ... NOT USED
Exchange Range Separation                   ... NOT USED
Multipole approximations                    ... NOT USED
Finite Nucleus Model                        ... NOT USED
CABS basis                                  ... NOT available
Auxiliary Coulomb fitting basis             ... AVAILABLE
   # of basis functions in Aux-J            ...    444
   # of shells in Aux-J                     ...    152
   Maximum angular momentum in Aux-J        ...      4
Auxiliary J/K fitting basis                 ... NOT available
Auxiliary Correlation fitting basis         ... NOT available
Auxiliary 'external' fitting basis          ... NOT available

Checking pre-screening integrals            ... done (  0.0 sec) Dimension = 71
Check shell pair data                       ... done (  0.0 sec)
Shell pair information
Shell pair cut-off parameter TPreSel        ...   2.5e-12
Total number of shell pairs                 ...      2556
Shell pairs after pre-screening             ...      2383
Total number of primitive shell pairs       ...      9308
Primitive shell pairs kept                  ...      6375
          la=0 lb=0:    772 shell pairs
          la=1 lb=0:    900 shell pairs
          la=1 lb=1:    279 shell pairs
          la=2 lb=0:    254 shell pairs
          la=2 lb=1:    153 shell pairs
          la=2 lb=2:     25 shell pairs

Calculating one electron integrals          ... done (  0.0 sec)
Calculating RI/J V-Matrix + Cholesky decomp.... done (  0.0 sec)
Calculating Nuclear repulsion               ... done (  0.0 sec) ENN=    402.579932731925 Eh

Diagonalization of the overlap matrix:
Smallest eigenvalue                        ... 2.353e-03
Time for diagonalization                   ...    0.003 sec
Threshold for overlap eigenvalues          ... 1.000e-07
Number of eigenvalues below threshold      ... 0
Time for construction of square roots      ...    0.003 sec
Total time needed                          ...    0.007 sec

-------------------
DFT GRID GENERATION
-------------------

General Integration Accuracy     IntAcc      ... 4.388
Radial Grid Type                 RadialGrid  ... OptM3 with GC (2021)
Angular Grid (max. ang.)         AngularGrid ... 4 (Lebedev-302)
Angular grid pruning method      GridPruning ... 4 (adaptive)
Weight generation scheme         WeightScheme... mBecke (2022)
Basis function cutoff            BFCut       ... 1.0000e-11
Integration weight cutoff        WCut        ... 1.0000e-14
Partially contracted basis set               ... off
Rotationally invariant grid construction     ... off
Angular grids for H and He will be reduced by one unit

Total number of grid points                  ...    72612
Total number of batches                      ...     1144
Average number of points per batch           ...       63
Average number of grid points per atom       ...     4538
Initializing property integral containers    ... done (  0.0 sec)

SHARK setup successfully completed in   0.4 seconds

Maximum memory used throughout the entire STARTUP-calculation: 19.1 MB


           ************************************************************
           *        Program running with 6 parallel MPI-processes     *
           *              working on a common directory               *
           ************************************************************
-------------------------------------------------------------------------------
                                 ORCA GUESS
                   Start orbitals & Density for SCF / CASSCF
-------------------------------------------------------------------------------

------------
SCF SETTINGS
------------
Hamiltonian:
 Density Functional     Method          .... DFT(GTOs)
 Exchange Functional    Exchange        .... B88
   X-Alpha parameter    XAlpha          ....  0.666667
   Becke's b parameter  XBeta           ....  0.004200
 Correlation Functional Correlation     .... P86
 LDA part of GGA corr.  LDAOpt          .... PW91-LDA
 Gradients option       PostSCFGGA      .... off
   NL short-range parameter             ....  4.400000
 RI-approximation to the Coulomb term is turned on
   Number of AuxJ basis functions       .... 444


General Settings:
 Integral files         IntName         .... data/geom_opt_P_BP86/76001/76001
 Hartree-Fock type      HFTyp           .... RHF
 Total Charge           Charge          ....    0
 Multiplicity           Mult            ....    1
 Number of Electrons    NEL             ....   66
 Basis Dimension        Dim             ....  147
 Nuclear Repulsion      ENuc            ....    402.5799327319 Eh

Convergence Acceleration:
 AO-DIIS                CNVDIIS         .... on
   Start iteration      DIISMaxIt       ....    12
   Startup error        DIISStart       ....  0.200000
   # of expansion vecs  DIISMaxEq       ....     5
   Bias factor          DIISBfac        ....   1.050
   Max. coefficient     DIISMaxC        ....  10.000
 MO-DIIS                CNVKDIIS        .... off
 Trust-Rad. Augm. Hess. CNVTRAH         .... auto
   Auto Start mean grad. ratio tolernc. ....  1.125000
   Auto Start start iteration           ....    50
   Auto Start num. interpolation iter.  ....    10
   Max. Number of Micro iterations      ....    24
   Max. Number of Macro iterations      .... Maxiter - #DIIS iter
   Number of Davidson start vectors     ....     2
   Converg. threshold    (grad. norm)   ....   1.000e-05
   Grad. Scal. Fac. for Micro threshold ....   0.100
   Minimum threshold for Micro iter.    ....   1.000e-02
   NR start threshold (gradient norm)   ....   1.000e-04
   Initial trust radius                 ....   0.400
   Minimum AH scaling param. (alpha)    ....   1.000
   Maximum AH scaling param. (alpha)    .... 1000.000
   Quad. conv. algorithm                .... NR
   White noise on init. David. guess    .... on
   Maximum white noise                  ....   0.010
   Pseudo random numbers                .... off
   Inactive MOs                         .... canonical
   Orbital update algorithm             .... Taylor
   Preconditioner                       .... Diag
   Full preconditioner red. dimension   ....   250
 SOSCF                  CNVSOSCF        .... on
   Start iteration      SOSCFMaxIt      ....   150
   Startup grad/error   SOSCFStart      ....  0.003300
   Hessian update       SOSCFHessUp     .... L-BFGS
 Level Shifting         CNVShift        .... on
   Level shift para.    LevelShift      ....    0.2500
   Turn off err/grad.   ShiftErr        ....    0.0010
 Zerner damping         CNVZerner       .... off
 Static damping         CNVDamp         .... on
   Fraction old density DampFac         ....    0.7000
   Max. Damping (<1)    DampMax         ....    0.9800
   Min. Damping (>=0)   DampMin         ....    0.0000
   Turn off err/grad.   DampErr         ....    0.1000

SCF Procedure:
 Maximum # iterations   MaxIter         ....   125
 SCF integral mode      SCFMode         .... Direct
   Integral package                     .... SHARK and LIBINT hybrid scheme
 Reset frequency        DirectResetFreq ....    20
 Integral Threshold     Thresh          ....  2.500e-11 Eh
 Primitive CutOff       TCut            ....  2.500e-12 Eh

Convergence Tolerance:
 Convergence Check Mode ConvCheckMode   .... Total+1el-Energy
 Convergence forced     ConvForced      .... 0
 Energy Change          TolE            ....  1.000e-08 Eh
 1-El. energy change                    ....  1.000e-05 Eh
 Orbital Gradient       TolG            ....  1.000e-05
 Orbital Rotation angle TolX            ....  1.000e-05
 DIIS Error             TolErr          ....  5.000e-07

------------------------------
INITIAL GUESS: MODEL POTENTIAL
------------------------------
Loading Hartree-Fock densities                     ... done
Calculating cut-offs                               ... done
Initializing the effective Hamiltonian             ... done
Setting up the integral package (SHARK)            ... done
Starting the Coulomb interaction                   ... done (   0.0 sec)
Making the grid                                    ... done (   0.1 sec)
Mapping shells                                     ... done
Starting the XC term evaluation                    ... done (   0.0 sec)
  promolecular density results
     # of electrons  =     65.996330161
     EX              =    -65.340711980
     EC              =     -2.522041575
     EX+EC           =    -67.862753554
Transforming the Hamiltonian                       ... done (   0.0 sec)
Diagonalizing the Hamiltonian                      ... done (   0.0 sec)
Back transforming the eigenvectors                 ... done (   0.0 sec)
Now organizing SCF variables                       ... done
                      ------------------
                      INITIAL GUESS DONE (   0.1 sec)
                      ------------------
             **** ENERGY FILE WAS UPDATED (data/geom_opt_P_BP86/76001/76001.en.tmp) ****
Finished Guess after   0.2 sec
Maximum memory used throughout the entire GUESS-calculation: 10.5 MB


           ************************************************************
           *        Program running with 6 parallel MPI-processes     *
           *              working on a common directory               *
           ************************************************************

-------------------------------------------------------------------------------------------
                                      ORCA LEAN-SCF
                              memory conserving SCF solver
-------------------------------------------------------------------------------------------

----------------------------------------D-I-I-S--------------------------------------------
Iteration    Energy (Eh)           Delta-E    RMSDP     MaxDP     DIISErr   Damp  Time(sec)
-------------------------------------------------------------------------------------------
               ***  Starting incremental Fock matrix formation  ***
    1    -686.1721075368652691     0.00e+00  3.98e-03  7.53e-02  2.38e-01  0.700   0.2
    2    -686.2780690690365191    -1.06e-01  2.57e-03  6.23e-02  9.00e-02  0.700   0.2
                               ***Turning on AO-DIIS***
    3    -686.3102697404935952    -3.22e-02  1.20e-03  5.36e-02  1.92e-02  0.700   0.2
    4    -686.3318448726804490    -2.16e-02  2.25e-03  1.14e-01  1.04e-02  0.000   0.2
    5    -686.3822940938077863    -5.04e-02  4.50e-04  1.95e-02  6.06e-03  0.000   0.2
                              *** Initializing SOSCF ***
---------------------------------------S-O-S-C-F--------------------------------------
Iteration    Energy (Eh)           Delta-E    RMSDP     MaxDP     MaxGrad    Time(sec)
--------------------------------------------------------------------------------------
    6    -686.3825883715110194    -2.94e-04  1.37e-04  3.38e-03  1.15e-03     0.2
               *** Restarting incremental Fock matrix formation ***
    7    -686.3826145084390191    -2.61e-05  1.07e-04  2.95e-03  2.26e-04     0.2
    8    -686.3826167147840351    -2.21e-06  3.07e-05  7.88e-04  2.22e-04     0.2
    9    -686.3826176869024493    -9.72e-07  3.15e-05  1.08e-03  1.18e-04     0.2
   10    -686.3826182251686987    -5.38e-07  1.61e-05  8.23e-04  5.33e-05     0.2
   11    -686.3826182942045762    -6.90e-08  7.05e-06  1.91e-04  2.96e-05     0.1
   12    -686.3826183359731203    -4.18e-08  2.00e-06  5.62e-05  5.84e-06     0.2
   13    -686.3826183318385574     4.13e-09  8.57e-07  2.07e-05  5.13e-06     0.2
                 **** Energy Check signals convergence ****

               *****************************************************
               *                     SUCCESS                       *
               *           SCF CONVERGED AFTER  13 CYCLES          *
               *****************************************************

             **** ENERGY FILE WAS UPDATED (data/geom_opt_P_BP86/76001/76001.en.tmp) ****

----------------
TOTAL SCF ENERGY
----------------

Total Energy       :       -686.38261833183856 Eh          -18677.42059 eV

Components:
Nuclear Repulsion  :        402.57993273192460 Eh           10954.75690 eV
Electronic Energy  :      -1088.96255106376339 Eh          -29632.17749 eV
One Electron Energy:      -1743.22333389563119 Eh          -47435.51849 eV
Two Electron Energy:        654.26078283186791 Eh           17803.34101 eV

Virial components:
Potential Energy   :      -1368.88738330186743 Eh          -37249.31942 eV
Kinetic Energy     :        682.50476497002887 Eh           18571.89883 eV
Virial Ratio       :          2.00568179675929

DFT components:
N(Alpha)           :       33.000021323816 electrons
N(Beta)            :       33.000021323816 electrons
N(Total)           :       66.000042647631 electrons
E(X)               :      -66.214263898901 Eh       
E(C)               :       -2.529571540646 Eh       
E(XC)              :      -68.743835439547 Eh       

---------------
SCF CONVERGENCE
---------------

  Last Energy change         ...   -4.1346e-09  Tolerance :   1.0000e-08
  Last MAX-Density change    ...    2.0731e-05  Tolerance :   1.0000e-07
  Last RMS-Density change    ...    8.5714e-07  Tolerance :   5.0000e-09
  Last DIIS Error            ...    1.1517e-03  Tolerance :   5.0000e-07
  Last Orbital Gradient      ...    5.1279e-06  Tolerance :   1.0000e-05
  Last Orbital Rotation      ...    4.0429e-06  Tolerance :   1.0000e-05


----------------
ORBITAL ENERGIES
----------------

  NO   OCC          E(Eh)            E(eV) 
   0   2.0000     -76.334799     -2077.1755 
   1   2.0000     -18.783496      -511.1249 
   2   2.0000     -18.783471      -511.1242 
   3   2.0000     -18.783466      -511.1241 
   4   2.0000      -9.962500      -271.0934 
   5   2.0000      -9.962485      -271.0930 
   6   2.0000      -9.962402      -271.0907 
   7   2.0000      -6.310277      -171.7114 
   8   2.0000      -4.531335      -123.3039 
   9   2.0000      -4.531334      -123.3039 
  10   2.0000      -4.527704      -123.2051 
  11   2.0000      -0.932065       -25.3628 
  12   2.0000      -0.929314       -25.2879 
  13   2.0000      -0.929311       -25.2878 
  14   2.0000      -0.684619       -18.6294 
  15   2.0000      -0.609296       -16.5798 
  16   2.0000      -0.609289       -16.5796 
  17   2.0000      -0.526292       -14.3211 
  18   2.0000      -0.464931       -12.6514 
  19   2.0000      -0.464928       -12.6513 
  20   2.0000      -0.424965       -11.5639 
  21   2.0000      -0.419603       -11.4180 
  22   2.0000      -0.391726       -10.6594 
  23   2.0000      -0.391721       -10.6593 
  24   2.0000      -0.379344       -10.3225 
  25   2.0000      -0.379337       -10.3223 
  26   2.0000      -0.317935        -8.6515 
  27   2.0000      -0.288646        -7.8545 
  28   2.0000      -0.288643        -7.8544 
  29   2.0000      -0.248680        -6.7669 
  30   2.0000      -0.218727        -5.9519 
  31   2.0000      -0.216378        -5.8879 
  32   2.0000      -0.216374        -5.8878 
  33   0.0000      -0.012369        -0.3366 
  34   0.0000      -0.012366        -0.3365 
  35   0.0000       0.041279         1.1233 
  36   0.0000       0.046438         1.2636 
  37   0.0000       0.062286         1.6949 
  38   0.0000       0.062298         1.6952 
  39   0.0000       0.095967         2.6114 
  40   0.0000       0.095973         2.6116 
  41   0.0000       0.096149         2.6163 
  42   0.0000       0.120870         3.2890 
  43   0.0000       0.120878         3.2892 
*Only the first 10 virtual orbitals were printed.

                    ********************************
                    * MULLIKEN POPULATION ANALYSIS *
                    ********************************

-----------------------
MULLIKEN ATOMIC CHARGES
-----------------------
   0 C :    0.062949
   1 O :   -0.296541
   2 P :   -0.052295
   3 C :    0.062720
   4 O :   -0.296510
   5 C :    0.062919
   6 O :   -0.296545
   7 H :    0.042384
   8 H :    0.039418
   9 H :    0.169255
  10 H :    0.042421
  11 H :    0.039476
  12 H :    0.169257
  13 H :    0.039424
  14 H :    0.042413
  15 H :    0.169255
Sum of atomic charges:   -0.0000000

--------------------------------
MULLIKEN REDUCED ORBITAL CHARGES
--------------------------------
  0 C s       :     3.038919  s :     3.038919
      pz      :     1.065607  p :     2.842636
      px      :     0.814004
      py      :     0.963025
      dz2     :     0.009768  d :     0.055496
      dxz     :     0.009917
      dyz     :     0.005835
      dx2y2   :     0.013686
      dxy     :     0.016290

  1 O s       :     3.744702  s :     3.744702
      pz      :     1.360853  p :     4.538748
      px      :     1.398601
      py      :     1.779293
      dz2     :     0.005166  d :     0.013092
      dxz     :     0.002040
      dyz     :     0.001030
      dx2y2   :     0.002154
      dxy     :     0.002701

  2 P s       :     5.837463  s :     5.837463
      pz      :     3.332981  p :     9.048159
      px      :     2.875090
      py      :     2.840089
      dz2     :     0.022347  d :     0.166673
      dxz     :     0.028870
      dyz     :     0.041900
      dx2y2   :     0.043158
      dxy     :     0.030398

  3 C s       :     3.038943  s :     3.038943
      pz      :     1.014633  p :     2.842839
      px      :     0.862487
      py      :     0.965719
      dz2     :     0.012915  d :     0.055498
      dxz     :     0.010135
      dyz     :     0.005704
      dx2y2   :     0.016600
      dxy     :     0.010143

  4 O s       :     3.744700  s :     3.744700
      pz      :     1.214944  p :     4.538718
      px      :     1.569487
      py      :     1.754287
      dz2     :     0.004059  d :     0.013092
      dxz     :     0.002760
      dyz     :     0.000963
      dx2y2   :     0.002290
      dxy     :     0.003019

  5 C s       :     3.038912  s :     3.038912
      pz      :     1.040941  p :     2.842673
      px      :     1.042352
      py      :     0.759379
      dz2     :     0.010914  d :     0.055497
      dxz     :     0.003769
      dyz     :     0.011599
      dx2y2   :     0.014433
      dxy     :     0.014782

  6 O s       :     3.744708  s :     3.744708
      pz      :     1.324811  p :     4.538745
      px      :     1.854370
      py      :     1.359565
      dz2     :     0.004612  d :     0.013092
      dxz     :     0.001312
      dyz     :     0.001777
      dx2y2   :     0.003376
      dxy     :     0.002013

  7 H s       :     0.936418  s :     0.936418
      pz      :     0.006432  p :     0.021197
      px      :     0.006913
      py      :     0.007852

  8 H s       :     0.939303  s :     0.939303
      pz      :     0.012902  p :     0.021279
      px      :     0.003450
      py      :     0.004926

  9 H s       :     0.763209  s :     0.763209
      pz      :     0.031410  p :     0.067535
      px      :     0.017535
      py      :     0.018591

 10 H s       :     0.936385  s :     0.936385
      pz      :     0.004829  p :     0.021194
      px      :     0.004122
      py      :     0.012243

 11 H s       :     0.939248  s :     0.939248
      pz      :     0.012796  p :     0.021276
      px      :     0.003916
      py      :     0.004564

 12 H s       :     0.763208  s :     0.763208
      pz      :     0.032092  p :     0.067534
      px      :     0.016921
      py      :     0.018521

 13 H s       :     0.939298  s :     0.939298
      pz      :     0.012229  p :     0.021278
      px      :     0.006508
      py      :     0.002541

 14 H s       :     0.936392  s :     0.936392
      pz      :     0.004758  p :     0.021195
      px      :     0.012461
      py      :     0.003975

 15 H s       :     0.763211  s :     0.763211
      pz      :     0.032158  p :     0.067534
      px      :     0.020574
      py      :     0.014803



                     *******************************
                     * LOEWDIN POPULATION ANALYSIS *
                     *******************************

----------------------
LOEWDIN ATOMIC CHARGES
----------------------
   0 C :   -0.075080
   1 O :   -0.139351
   2 P :    0.344147
   3 C :   -0.075127
   4 O :   -0.139342
   5 C :   -0.075090
   6 O :   -0.139347
   7 H :    0.010242
   8 H :    0.016990
   9 H :    0.072490
  10 H :    0.010257
  11 H :    0.016991
  12 H :    0.072493
  13 H :    0.016988
  14 H :    0.010247
  15 H :    0.072492

-------------------------------
LOEWDIN REDUCED ORBITAL CHARGES
-------------------------------
  0 C s       :     2.900597  s :     2.900597
      pz      :     1.108841  p :     3.049705
      px      :     0.888246
      py      :     1.052618
      dz2     :     0.024054  d :     0.124778
      dxz     :     0.019534
      dyz     :     0.014483
      dx2y2   :     0.030314
      dxy     :     0.036393

  1 O s       :     3.465489  s :     3.465489
      pz      :     1.446033  p :     4.649359
      px      :     1.441926
      py      :     1.761400
      dz2     :     0.010992  d :     0.024503
      dxz     :     0.003756
      dyz     :     0.000806
      dx2y2   :     0.003827
      dxy     :     0.005122

  2 P s       :     5.325567  s :     5.325567
      pz      :     3.380996  p :     9.107862
      px      :     2.882525
      py      :     2.844341
      dz2     :     0.027684  d :     0.222424
      dxz     :     0.036585
      dyz     :     0.056080
      dx2y2   :     0.060794
      dxy     :     0.041281

  3 C s       :     2.900592  s :     2.900592
      pz      :     1.049705  p :     3.049759
      px      :     0.975467
      py      :     1.024587
      dz2     :     0.031178  d :     0.124776
      dxz     :     0.020182
      dyz     :     0.010968
      dx2y2   :     0.040159
      dxy     :     0.022289

  4 O s       :     3.465490  s :     3.465490
      pz      :     1.302600  p :     4.649348
      px      :     1.598083
      py      :     1.748666
      dz2     :     0.009628  d :     0.024503
      dxz     :     0.005294
      dyz     :     0.001672
      dx2y2   :     0.003144
      dxy     :     0.004765

  5 C s       :     2.900595  s :     2.900595
      pz      :     1.089967  p :     3.049718
      px      :     1.097624
      py      :     0.862127
      dz2     :     0.026537  d :     0.124777
      dxz     :     0.010083
      dyz     :     0.022672
      dx2y2   :     0.032628
      dxy     :     0.032857

  6 O s       :     3.465490  s :     3.465490
      pz      :     1.405246  p :     4.649354
      px      :     1.829642
      py      :     1.414466
      dz2     :     0.010354  d :     0.024503
      dxz     :     0.002162
      dyz     :     0.002852
      dx2y2   :     0.006234
      dxy     :     0.002901

  7 H s       :     0.919536  s :     0.919536
      pz      :     0.018088  p :     0.070222
      px      :     0.025667
      py      :     0.026467

  8 H s       :     0.914628  s :     0.914628
      pz      :     0.042773  p :     0.068382
      px      :     0.011541
      py      :     0.014069

  9 H s       :     0.750218  s :     0.750218
      pz      :     0.090121  p :     0.177292
      px      :     0.039705
      py      :     0.047466

 10 H s       :     0.919519  s :     0.919519
      pz      :     0.013940  p :     0.070223
      px      :     0.013570
      py      :     0.042713

 11 H s       :     0.914626  s :     0.914626
      pz      :     0.042763  p :     0.068383
      px      :     0.013342
      py      :     0.012278

 12 H s       :     0.750216  s :     0.750216
      pz      :     0.086457  p :     0.177292
      px      :     0.043732
      py      :     0.047103

 13 H s       :     0.914630  s :     0.914630
      pz      :     0.041694  p :     0.068382
      px      :     0.017335
      py      :     0.009353

 14 H s       :     0.919531  s :     0.919531
      pz      :     0.013999  p :     0.070222
      px      :     0.041743
      py      :     0.014480

 15 H s       :     0.750217  s :     0.750217
      pz      :     0.088785  p :     0.177291
      px      :     0.054696
      py      :     0.033810



                      *****************************
                      * MAYER POPULATION ANALYSIS *
                      *****************************

  NA   - Mulliken gross atomic population
  ZA   - Total nuclear charge
  QA   - Mulliken gross atomic charge
  VA   - Mayer's total valence
  BVA  - Mayer's bonded valence
  FA   - Mayer's free valence

  ATOM       NA         ZA         QA         VA         BVA        FA
  0 C      5.9371     6.0000     0.0629     3.8866     3.8866    -0.0000
  1 O      8.2965     8.0000    -0.2965     2.1047     2.1047    -0.0000
  2 P     15.0523    15.0000    -0.0523     3.1306     3.1306    -0.0000
  3 C      5.9373     6.0000     0.0627     3.8867     3.8867    -0.0000
  4 O      8.2965     8.0000    -0.2965     2.1048     2.1048    -0.0000
  5 C      5.9371     6.0000     0.0629     3.8866     3.8866    -0.0000
  6 O      8.2965     8.0000    -0.2965     2.1048     2.1048    -0.0000
  7 H      0.9576     1.0000     0.0424     0.9897     0.9897    -0.0000
  8 H      0.9606     1.0000     0.0394     0.9887     0.9887    -0.0000
  9 H      0.8307     1.0000     0.1693     1.0156     1.0156    -0.0000
 10 H      0.9576     1.0000     0.0424     0.9897     0.9897    -0.0000
 11 H      0.9605     1.0000     0.0395     0.9886     0.9886    -0.0000
 12 H      0.8307     1.0000     0.1693     1.0156     1.0156    -0.0000
 13 H      0.9606     1.0000     0.0394     0.9887     0.9887    -0.0000
 14 H      0.9576     1.0000     0.0424     0.9897     0.9897    -0.0000
 15 H      0.8307     1.0000     0.1693     1.0156     1.0156    -0.0000

  Mayer bond orders larger than 0.100000
B(  0-C ,  1-O ) :   1.0325 B(  0-C ,  2-P ) :   0.9486 B(  0-C ,  7-H ) :   0.9415 
B(  0-C ,  8-H ) :   0.9257 B(  1-O ,  9-H ) :   0.9748 B(  2-P ,  3-C ) :   0.9488 
B(  2-P ,  5-C ) :   0.9487 B(  3-C ,  4-O ) :   1.0325 B(  3-C , 10-H ) :   0.9415 
B(  3-C , 11-H ) :   0.9257 B(  4-O , 12-H ) :   0.9747 B(  5-C ,  6-O ) :   1.0325 
B(  5-C , 13-H ) :   0.9257 B(  5-C , 14-H ) :   0.9415 B(  6-O , 15-H ) :   0.9747 


-------
TIMINGS
-------

Total SCF time: 0 days 0 hours 0 min 2 sec 

Total time                  ....       2.404 sec
Sum of individual times     ....       2.368 sec  ( 98.5%)

SCF preparation             ....       0.080 sec  (  3.3%)
Fock matrix formation       ....       2.023 sec  ( 84.2%)
  Startup                   ....       0.025 sec  (  1.2% of F)
  Split-RI-J                ....       0.522 sec  ( 25.8% of F)
  XC integration            ....       1.374 sec  ( 67.9% of F)
    Basis function eval.    ....       0.391 sec  ( 28.5% of XC)
    Density eval.           ....       0.249 sec  ( 18.1% of XC)
    XC-Functional eval.     ....       0.059 sec  (  4.3% of XC)
    XC-Potential eval.      ....       0.273 sec  ( 19.9% of XC)
Diagonalization             ....       0.000 sec  (  0.0%)
Density matrix formation    ....       0.054 sec  (  2.2%)
Total Energy calculation    ....       0.024 sec  (  1.0%)
Population analysis         ....       0.025 sec  (  1.0%)
Orbital Transformation      ....       0.017 sec  (  0.7%)
Orbital Orthonormalization  ....       0.000 sec  (  0.0%)
DIIS solution               ....       0.088 sec  (  3.7%)
SOSCF solution              ....       0.057 sec  (  2.4%)
Finished LeanSCF after   2.4 sec

Maximum memory used throughout the entire LEANSCF-calculation: 13.8 MB


-------------------------------------------------------------------------------
                          DFT DISPERSION CORRECTION                            
                                                                               
                              DFTD3 V3.1  Rev 1                                
                          USING Becke-Johnson damping                          
-------------------------------------------------------------------------------
The BP86 functional is recognized
Active option DFTDOPT                   ...         4   

molecular C6(AA) [au] = 2513.217289 


            DFT-D V3
 parameters
 s6 scaling factor         :     1.0000 
 a1 scaling factor         :     0.3946 
 s8 scaling factor         :     3.2822 
 a2 scaling factor         :     4.8516 
 ad hoc parameters k1-k3   :    16.0000     1.3333    -4.0000 

 Edisp/kcal,au: -14.099671890841  -0.022469254999 
 E6   /kcal   :  -5.210320943 
 E8   /kcal   :  -8.889350948 
 % E8         :  63.046509288 

-------------------------   ----------------
Dispersion correction           -0.022469255
-------------------------   ----------------


-------------------------   --------------------
FINAL SINGLE POINT ENERGY      -686.405087586837
-------------------------   --------------------



           ************************************************************
           *        Program running with 6 parallel MPI-processes     *
           *              working on a common directory               *
           ************************************************************
------------------------------------------------------------------------------
                         ORCA SCF GRADIENT CALCULATION
------------------------------------------------------------------------------

Nuc. rep. gradient        (SHARK) ... done (  0.0 sec)
HCore & Overlap gradient  (SHARK) ... done (  0.0 sec)
Split-RIJ-J gradient      (SHARK) ... done (  0.2 sec)
XC gradient                       ... done (  0.9 sec)
Dispersion correction             ... done (  0.1 sec)

-------------------
DISPERSION GRADIENT
-------------------

   1   C   :   -0.000131788    0.000443984   -0.000057116
   2   O   :   -0.000171542    0.000375356   -0.000001496
   3   P   :   -0.000039496   -0.000003248    0.000147541
   4   C   :    0.000448021   -0.000098006    0.000086164
   5   O   :    0.000386140   -0.000044982    0.000138538
   6   C   :   -0.000292555   -0.000344031   -0.000117501
   7   O   :   -0.000241685   -0.000332601   -0.000035859
   8   H   :   -0.000022925    0.000252879   -0.000003271
   9   H   :   -0.000009168    0.000204769   -0.000141624
  10   H   :   -0.000126311    0.000213427    0.000059987
  11   H   :    0.000223917   -0.000106450    0.000054897
  12   H   :    0.000227052   -0.000058582   -0.000084187
  13   H   :    0.000209396   -0.000017245    0.000144776
  14   H   :   -0.000110263   -0.000137337   -0.000176218
  15   H   :   -0.000198969   -0.000146263   -0.000059184
  16   H   :   -0.000149826   -0.000201671    0.000044554

Difference to translation invariance:
           :   -0.0000000000    0.0000000000    0.0000000000

Difference to rotation invariance:
           :   -0.0000000000   -0.0000000000   -0.0000000000

Norm of the Dispersion gradient    ...    0.0013276066
RMS gradient                       ...    0.0001916235
MAX gradient                       ...    0.0004480211

------------------
CARTESIAN GRADIENT
------------------

   1   C   :    0.010282705   -0.019303076   -0.000763115
   2   O   :    0.006799814    0.007258150    0.004308525
   3   P   :    0.004687667    0.000290995   -0.017264918
   4   C   :   -0.020275849    0.001366325   -0.008413757
   5   O   :    0.001867194   -0.010367543    0.002570932
   6   C   :    0.012196395    0.018202378    0.000624995
   7   O   :   -0.010424387    0.002983037   -0.000412916
   8   H   :   -0.017349545   -0.001010433   -0.004913745
   9   H   :   -0.002114233    0.001727309    0.011071766
  10   H   :    0.003122994   -0.002335621   -0.003654290
  11   H   :    0.007855840    0.016121877    0.002205509
  12   H   :   -0.001626032   -0.001920295    0.011122914
  13   H   :   -0.001910738   -0.000486187   -0.004952728
  14   H   :   -0.004942615   -0.000507743    0.010255976
  15   H   :    0.009709865   -0.015105666    0.002013277
  16   H   :    0.002120926    0.003086493   -0.003798424

Difference to translation invariance:
           :   -0.0000000000    0.0000000000   -0.0000000000

Difference to rotation invariance:
           :    0.0000610347    0.0000732605    0.0001844506

Norm of the Cartesian gradient     ...    0.0597551131
RMS gradient                       ...    0.0086249077
MAX gradient                       ...    0.0202758486

-------
TIMINGS
-------

Total SCF gradient time     ....        1.169 sec

One electron gradient       ....       0.045 sec  (  3.8%)
RI-J Coulomb gradient       ....       0.169 sec  ( 14.5%)
XC gradient                 ....       0.890 sec  ( 76.1%)

Maximum memory used throughout the entire SCFGRAD-calculation: 28.3 MB
------------------------------------------------------------------------------
                         ORCA GEOMETRY RELAXATION STEP
------------------------------------------------------------------------------

Reading the OPT-File                    .... done
Getting information on internals        .... done
Copying old internal coords+grads       .... done
Making the new internal coordinates     .... (2022 redundants) done
Validating the new internal coordinates .... (2022 redundants) done
Calculating the B-matrix                .... done
Calculating the G,G- and P matrices     .... done
Transforming gradient to internals      .... done
Projecting the internal gradient        .... done
Number of atoms                         ....  16
Number of internal coordinates          ....  63
Current Energy                          ....  -686.405087587 Eh
Current gradient norm                   ....     0.059755113 Eh/bohr
Maximum allowed component of the step   ....  0.300
Current trust radius                    ....  0.300
Evaluating the initial hessian          ....  (Almloef) done
Projecting the Hessian                  .... done
Forming the augmented Hessian           .... done
Diagonalizing the augmented Hessian     .... done
Last element of RFO vector              ....  0.961484270
Lowest eigenvalues of augmented Hessian:
 -0.009657399  0.003711646  0.003711649  0.004278020  0.019740715
Length of the computed step             ....  0.285870472
The final length of the internal step   ....  0.285870472
Converting the step to Cartesian space:
 Initial RMS(Int)=    0.0360162940
Transforming coordinates:
 Iter   0:  RMS(Cart)=    0.0638696035 RMS(Int)=    0.0360335311
 Iter   5:  RMS(Cart)=    0.0000000421 RMS(Int)=    0.0000000324
done
Storing new coordinates                 .... done

                                .--------------------.
          ----------------------|Geometry convergence|-------------------------
          Item                value                   Tolerance       Converged
          ---------------------------------------------------------------------
          RMS gradient        0.0067895573            0.0001000000      NO
          MAX gradient        0.0150080910            0.0003000000      NO
          RMS step            0.0360162940            0.0020000000      NO
          MAX step            0.0887701229            0.0040000000      NO
          ........................................................
          Max(Bonds)      0.0204      Max(Angles)    3.16
          Max(Dihed)        5.09      Max(Improp)    0.00
          ---------------------------------------------------------------------

The optimization has not yet converged - more geometry cycles are needed


    ---------------------------------------------------------------------------
                         Redundant Internal Coordinates
                            (Angstroem and degrees)

        Definition                    Value    dE/dq     Step     New-Value
    ----------------------------------------------------------------------------
     1. B(O   1,C   0)                1.4208 -0.006709  0.0070    1.4278   
     2. B(P   2,C   0)                1.8386 -0.014886  0.0190    1.8577   
     3. B(C   3,P   2)                1.8386 -0.015008  0.0192    1.8578   
     4. B(O   4,C   3)                1.4208 -0.006725  0.0070    1.4278   
     5. B(C   5,P   2)                1.8386 -0.014945  0.0191    1.8577   
     6. B(O   6,C   5)                1.4208 -0.006732  0.0070    1.4278   
     7. B(H   7,C   0)                1.0948 -0.013996  0.0204    1.1152   
     8. B(H   8,C   0)                1.0944 -0.011357  0.0165    1.1109   
     9. B(H   9,O   1)                0.9726 -0.004402  0.0046    0.9772   
    10. B(H  10,C   3)                1.0948 -0.013989  0.0204    1.1152   
    11. B(H  11,C   3)                1.0944 -0.011362  0.0165    1.1109   
    12. B(H  12,O   4)                0.9726 -0.004388  0.0046    0.9772   
    13. B(H  13,C   5)                1.0944 -0.011351  0.0165    1.1109   
    14. B(H  14,C   5)                1.0948 -0.014004  0.0204    1.1152   
    15. B(H  15,O   6)                0.9726 -0.004392  0.0046    0.9772   
    16. A(P   2,C   0,H   7)          109.39  0.005267   -0.69    108.70   
    17. A(P   2,C   0,H   8)          111.08 -0.001044   -0.52    110.56   
    18. A(H   7,C   0,H   8)          107.17  0.000813   -0.28    106.89   
    19. A(O   1,C   0,P   2)          114.10  0.007015   -0.95    113.15   
    20. A(O   1,C   0,H   7)          107.37 -0.012587    3.09    110.46   
    21. A(O   1,C   0,H   8)          107.44 -0.000242   -0.51    106.93   
    22. A(C   0,O   1,H   9)          105.42 -0.005169    0.81    106.23   
    23. A(C   3,P   2,C   5)           98.74 -0.001205    0.51     99.26   
    24. A(C   0,P   2,C   3)           98.74  0.000045    0.51     99.25   
    25. A(C   0,P   2,C   5)           98.74 -0.001772    0.61     99.35   
    26. A(O   4,C   3,H  10)          107.37 -0.012571    3.09    110.47   
    27. A(P   2,C   3,H  10)          109.39  0.005053   -0.68    108.71   
    28. A(P   2,C   3,O   4)          114.10  0.007242   -0.95    113.14   
    29. A(P   2,C   3,H  11)          111.08 -0.001143   -0.52    110.56   
    30. A(H  10,C   3,H  11)          107.17  0.000379   -0.26    106.91   
    31. A(O   4,C   3,H  11)          107.44  0.000229   -0.52    106.92   
    32. A(C   3,O   4,H  12)          105.42 -0.005152    0.81    106.23   
    33. A(P   2,C   5,O   6)          114.10  0.006526   -0.90    113.20   
    34. A(O   6,C   5,H  14)          107.37 -0.013747    3.16    110.53   
    35. A(P   2,C   5,H  14)          109.39  0.005514   -0.71    108.68   
    36. A(O   6,C   5,H  13)          107.44 -0.000307   -0.46    106.98   
    37. A(H  13,C   5,H  14)          107.17  0.001790   -0.40    106.77   
    38. A(P   2,C   5,H  13)          111.08 -0.000518   -0.55    110.53   
    39. A(C   5,O   6,H  15)          105.42 -0.005154    0.81    106.23   
    40. D(H   9,O   1,C   0,P   2)     50.34 -0.001019    2.12     52.46   
    41. D(H   9,O   1,C   0,H   8)    173.95  0.002189    0.43    174.38   
    42. D(H   9,O   1,C   0,H   7)    -71.06 -0.003187    1.38    -69.68   
    43. D(C   5,P   2,C   0,O   1)     72.46  0.004070    1.18     73.64   
    44. D(C   3,P   2,C   0,H   7)    -66.94 -0.005142    4.75    -62.18   
    45. D(C   3,P   2,C   0,O   1)    172.79  0.002512    1.92    174.70   
    46. D(C   5,P   2,C   0,H   7)   -167.26 -0.003584    4.02   -163.24   
    47. D(C   3,P   2,C   0,H   8)     51.17 -0.001481    3.67     54.84   
    48. D(H  11,C   3,P   2,C   0)    -49.16 -0.000620    3.07    -46.09   
    49. D(H  10,C   3,P   2,C   5)    -66.94 -0.005590    4.95    -61.98   
    50. D(H  10,C   3,P   2,C   0)   -167.26 -0.003554    4.14   -163.12   
    51. D(O   4,C   3,P   2,C   5)    172.79  0.002046    2.12    174.90   
    52. D(O   4,C   3,P   2,C   0)     72.46  0.004083    1.30     73.76   
    53. D(H  12,O   4,C   3,H  10)    -71.06 -0.003235    1.39    -69.67   
    54. D(H  12,O   4,C   3,P   2)     50.34 -0.001183    2.12     52.46   
    55. D(H  12,O   4,C   3,H  11)    173.95  0.002402    0.42    174.37   
    56. D(H  14,C   5,P   2,C   0)    -66.94 -0.006777    5.09    -61.85   
    57. D(H  13,C   5,P   2,C   3)    -49.16 -0.000938    3.09    -46.07   
    58. D(H  13,C   5,P   2,C   0)     51.17 -0.001440    3.82     54.99   
    59. D(O   6,C   5,P   2,C   3)     72.46  0.003015    1.41     73.87   
    60. D(O   6,C   5,P   2,C   0)    172.79  0.002513    2.14    174.93   
    61. D(H  15,O   6,C   5,H  14)    -71.06 -0.002734    1.34    -69.73   
    62. D(H  15,O   6,C   5,H  13)    173.95  0.002112    0.47    174.42   
    63. D(H  15,O   6,C   5,P   2)     50.34 -0.001394    2.13     52.46   
    ----------------------------------------------------------------------------

Geometry step timings:
Preparation and reading OPT file:      0.001 s (20.000 %)
Internal coordinates            :      0.000 s ( 0.000 %)
B/P matrices and projection     :      0.001 s (20.000 %)
Hessian update/contruction      :      0.001 s (20.000 %)
Making the step                 :      0.000 s ( 0.000 %)
Converting the step to Cartesian:      0.000 s ( 0.000 %)
Storing new data                :      0.001 s (20.000 %)
Checking convergence            :      0.000 s ( 0.000 %)
Final printing                  :      0.001 s (20.000 %)
Total time                      :      0.005 s

Time for energy+gradient        :      4.657 s
Time for complete geometry iter :      4.776 s

         *************************************************************
         *                GEOMETRY OPTIMIZATION CYCLE   2            *
         *************************************************************
---------------------------------
CARTESIAN COORDINATES (ANGSTROEM)
---------------------------------
  C     -0.251370    1.609741   -0.250092
  O     -1.537616    2.226070   -0.184771
  P     -0.173427   -0.014256    0.648485
  C      1.549439   -0.530607    0.183104
  O      2.560942    0.208334    0.868254
  C     -1.133102   -1.065874   -0.544951
  O     -1.158695   -2.446755   -0.182821
  H      0.527899    2.288277    0.169344
  H     -0.013451    1.471594   -1.326388
  H     -1.776482    2.259902    0.762159
  H      1.661675   -1.622139    0.381947
  H      1.720863   -0.381169   -0.904280
  H      2.347851    0.145350    1.819818
  H     -0.688875   -1.005582   -1.561372
  H     -2.169899   -0.662591   -0.622676
  H     -1.465752   -2.480294    0.744243

----------------------------
CARTESIAN COORDINATES (A.U.)
----------------------------
  NO LB      ZA    FRAG     MASS         X           Y           Z
   0 C     6.0000    0    12.011   -0.475020    3.041970   -0.472606
   1 O     8.0000    0    15.999   -2.905674    4.206662   -0.349166
   2 P    15.0000    0    30.974   -0.327730   -0.026940    1.225458
   3 C     6.0000    0    12.011    2.928015   -1.002703    0.346016
   4 O     8.0000    0    15.999    4.839480    0.393695    1.640762
   5 C     6.0000    0    12.011   -2.141252   -2.014210   -1.029808
   6 O     8.0000    0    15.999   -2.189617   -4.623697   -0.345482
   7 H     1.0000    0     1.008    0.997585    4.324216    0.320013
   8 H     1.0000    0     1.008   -0.025419    2.780910   -2.506510
   9 H     1.0000    0     1.008   -3.357065    4.270595    1.440272
  10 H     1.0000    0     1.008    3.140110   -3.065399    0.721775
  11 H     1.0000    0     1.008    3.251959   -0.720305   -1.708841
  12 H     1.0000    0     1.008    4.436796    0.274672    3.438957
  13 H     1.0000    0     1.008   -1.301786   -1.900274   -2.950565
  14 H     1.0000    0     1.008   -4.100516   -1.252115   -1.176688
  15 H     1.0000    0     1.008   -2.769870   -4.687076    1.406415

--------------------------------
INTERNAL COORDINATES (ANGSTROEM)
--------------------------------
 C      0   0   0     0.000000000000     0.00000000     0.00000000
 O      1   0   0     1.427780873801     0.00000000     0.00000000
 P      1   2   0     1.857655300010   113.14385695     0.00000000
 C      3   1   2     1.857811653600    99.24843116   174.71059234
 O      4   3   1     1.427797610477   113.13688592    73.76490446
 C      3   1   2     1.857730723045    99.34934700    73.64552050
 O      6   3   1     1.427804412161   113.19107650   174.93587168
 H      1   2   3     1.115166604198   110.46651954   237.87515674
 H      1   2   3     1.110901617951   106.91441037   121.93143915
 H      2   1   3     0.977178303015   106.22991956    52.45010483
 H      4   3   1     1.115158186395   108.70621122   196.87092140
 H      4   3   1     1.110909550867   110.54286991   313.91072148
 H      5   4   3     0.977163433944   106.22711036    52.45425855
 H      6   3   1     1.110893156632   110.51716786    54.99018956
 H      6   3   1     1.115180802611   108.68346021   298.14466957
 H      7   6   3     0.977167220665   106.22735626    52.46001594

---------------------------
INTERNAL COORDINATES (A.U.)
---------------------------
 C      0   0   0     0.000000000000     0.00000000     0.00000000
 O      1   0   0     2.698114830735     0.00000000     0.00000000
 P      1   2   0     3.510459768246   113.14385695     0.00000000
 C      3   1   2     3.510755233710    99.24843116   174.71059234
 O      4   3   1     2.698146458468   113.13688592    73.76490446
 C      3   1   2     3.510602297126    99.34934700    73.64552050
 O      6   3   1     2.698159311789   113.19107650   174.93587168
 H      1   2   3     2.107359475630   110.46651954   237.87515674
 H      1   2   3     2.099299819657   106.91441037   121.93143915
 H      2   1   3     1.846599376708   106.22991956    52.45010483
 H      4   3   1     2.107343568287   108.70621122   196.87092140
 H      4   3   1     2.099314810696   110.54286991   313.91072148
 H      5   4   3     1.846571278237   106.22711036    52.45425855
 H      6   3   1     2.099283830081   110.51716786    54.99018956
 H      6   3   1     2.107386306741   108.68346021   298.14466957
 H      7   6   3     1.846578434102   106.22735626    52.46001594



           ************************************************************
           *        Program running with 6 parallel MPI-processes     *
           *              working on a common directory               *
           ************************************************************
------------------------------------------------------------------------------
                   ___                                                        
                  /   \      - P O W E R E D   B Y -                         
                 /     \                                                     
                 |  |  |   _    _      __       _____    __    __             
                 |  |  |  | |  | |    /  \     |  _  \  |  |  /  |          
                  \  \/   | |  | |   /    \    | | | |  |  | /  /          
                 / \  \   | |__| |  /  /\  \   | |_| |  |  |/  /          
                |  |  |   |  __  | /  /__\  \  |    /   |      \           
                |  |  |   | |  | | |   __   |  |    \   |  |\   \          
                \     /   | |  | | |  |  |  |  | |\  \  |  | \   \       
                 \___/    |_|  |_| |__|  |__|  |_| \__\ |__|  \__/        
                                                                              
                      - O R C A' S   B I G   F R I E N D -                    
                                      &                                       
                       - I N T E G R A L  F E E D E R -                       
                                                                              
 v1 FN, 2020, v2 2021, v3 2022-2024                                           
------------------------------------------------------------------------------


----------------------
SHARK INTEGRAL PACKAGE
----------------------

Number of atoms                             ...     16
Number of basis functions                   ...    147
Number of shells                            ...     71
Maximum angular momentum                    ...      2
Integral batch strategy                     ... SHARK/LIBINT Hybrid
RI-J (if used) integral strategy            ... SPLIT-RIJ (Revised 2003 algorithm where possible)
Printlevel                                  ...      1
Contraction scheme used                     ... SEGMENTED contraction
Prescreening option                         ... SCHWARTZ
   Thresh                                   ... 2.500e-11
   Tcut                                     ... 2.500e-12
   Tpresel                                  ... 2.500e-12 
Coulomb Range Separation                    ... NOT USED
Exchange Range Separation                   ... NOT USED
Multipole approximations                    ... NOT USED
Finite Nucleus Model                        ... NOT USED
CABS basis                                  ... NOT available
Auxiliary Coulomb fitting basis             ... AVAILABLE
   # of basis functions in Aux-J            ...    444
   # of shells in Aux-J                     ...    152
   Maximum angular momentum in Aux-J        ...      4
Auxiliary J/K fitting basis                 ... NOT available
Auxiliary Correlation fitting basis         ... NOT available
Auxiliary 'external' fitting basis          ... NOT available

Checking pre-screening integrals            ... done (  0.0 sec) Dimension = 71
Check shell pair data                       ... done (  0.0 sec)
Shell pair information
Shell pair cut-off parameter TPreSel        ...   2.5e-12
Total number of shell pairs                 ...      2556
Shell pairs after pre-screening             ...      2379
Total number of primitive shell pairs       ...      9308
Primitive shell pairs kept                  ...      6335
          la=0 lb=0:    769 shell pairs
          la=1 lb=0:    900 shell pairs
          la=1 lb=1:    279 shell pairs
          la=2 lb=0:    253 shell pairs
          la=2 lb=1:    153 shell pairs
          la=2 lb=2:     25 shell pairs

Calculating one electron integrals          ... done (  0.0 sec)
Calculating RI/J V-Matrix + Cholesky decomp.... done (  0.0 sec)
Calculating Nuclear repulsion               ... done (  0.0 sec) ENN=    399.103683711923 Eh

Diagonalization of the overlap matrix:
Smallest eigenvalue                        ... 2.532e-03
Time for diagonalization                   ...    0.003 sec
Threshold for overlap eigenvalues          ... 1.000e-07
Number of eigenvalues below threshold      ... 0
Time for construction of square roots      ...    0.002 sec
Total time needed                          ...    0.007 sec

-------------------
DFT GRID GENERATION
-------------------

General Integration Accuracy     IntAcc      ... 4.388
Radial Grid Type                 RadialGrid  ... OptM3 with GC (2021)
Angular Grid (max. ang.)         AngularGrid ... 4 (Lebedev-302)
Angular grid pruning method      GridPruning ... 4 (adaptive)
Weight generation scheme         WeightScheme... mBecke (2022)
Basis function cutoff            BFCut       ... 1.0000e-11
Integration weight cutoff        WCut        ... 1.0000e-14
Partially contracted basis set               ... off
[...]
      px      :     0.887325
      py      :     0.986511
      dz2     :     0.012566  d :     0.055001
      dxz     :     0.011207
      dyz     :     0.006910
      dx2y2   :     0.016013
      dxy     :     0.008305

  4 O s       :     3.742492  s :     3.742492
      pz      :     1.183597  p :     4.533049
      px      :     1.622226
      py      :     1.727226
      dz2     :     0.003195  d :     0.012866
      dxz     :     0.002553
      dyz     :     0.002148
      dx2y2   :     0.002104
      dxy     :     0.002866

  5 C s       :     3.073644  s :     3.073644
      pz      :     1.021874  p :     2.848814
      px      :     1.047583
      py      :     0.779358
      dz2     :     0.009487  d :     0.054996
      dxz     :     0.005397
      dyz     :     0.012859
      dx2y2   :     0.012550
      dxy     :     0.014702

  6 O s       :     3.742525  s :     3.742525
      pz      :     1.372822  p :     4.533108
      px      :     1.756744
      py      :     1.403542
      dz2     :     0.002999  d :     0.012864
      dxz     :     0.002242
      dyz     :     0.002088
      dx2y2   :     0.003495
      dxy     :     0.002039

  7 H s       :     0.928555  s :     0.928555
      pz      :     0.005385  p :     0.020610
      px      :     0.008654
      py      :     0.006570

  8 H s       :     0.932655  s :     0.932655
      pz      :     0.012648  p :     0.020267
      px      :     0.002872
      py      :     0.004746

  9 H s       :     0.759690  s :     0.759690
      pz      :     0.032408  p :     0.066380
      px      :     0.015510
      py      :     0.018462

 10 H s       :     0.928560  s :     0.928560
      pz      :     0.003839  p :     0.020607
      px      :     0.003952
      py      :     0.012816

 11 H s       :     0.932669  s :     0.932669
      pz      :     0.011292  p :     0.020267
      px      :     0.004030
      py      :     0.004944

 12 H s       :     0.759662  s :     0.759662
      pz      :     0.031433  p :     0.066383
      px      :     0.016713
      py      :     0.018236

 13 H s       :     0.932635  s :     0.932635
      pz      :     0.010835  p :     0.020266
      px      :     0.006916
      py      :     0.002515

 14 H s       :     0.928479  s :     0.928479
      pz      :     0.004757  p :     0.020604
      px      :     0.010970
      py      :     0.004876

 15 H s       :     0.759640  s :     0.759640
      pz      :     0.030324  p :     0.066382
      px      :     0.021802
      py      :     0.014257



                     *******************************
                     * LOEWDIN POPULATION ANALYSIS *
                     *******************************

----------------------
LOEWDIN ATOMIC CHARGES
----------------------
   0 C :   -0.082478
   1 O :   -0.137705
   2 P :    0.333419
   3 C :   -0.082444
   4 O :   -0.137583
   5 C :   -0.082450
   6 O :   -0.137634
   7 H :    0.011163
   8 H :    0.019580
   9 H :    0.078211
  10 H :    0.011135
  11 H :    0.019554
  12 H :    0.078241
  13 H :    0.019564
  14 H :    0.011181
  15 H :    0.078247

-------------------------------
LOEWDIN REDUCED ORBITAL CHARGES
-------------------------------
  0 C s       :     2.916358  s :     2.916358
      pz      :     1.096184  p :     3.042958
      px      :     0.902837
      py      :     1.043937
      dz2     :     0.028038  d :     0.123162
      dxz     :     0.014018
      dyz     :     0.012490
      dx2y2   :     0.032611
      dxy     :     0.036004

  1 O s       :     3.465478  s :     3.465478
      pz      :     1.406794  p :     4.647891
      px      :     1.491512
      py      :     1.749584
      dz2     :     0.011834  d :     0.024337
      dxz     :     0.002309
      dyz     :     0.001007
      dx2y2   :     0.004128
      dxy     :     0.005059

  2 P s       :     5.376024  s :     5.376024
      pz      :     3.369598  p :     9.093458
      px      :     2.880728
      py      :     2.843133
      dz2     :     0.023245  d :     0.197098
      dxz     :     0.030414
      dyz     :     0.051155
      dx2y2   :     0.056357
      dxy     :     0.035927

  3 C s       :     2.916333  s :     2.916333
      pz      :     1.013612  p :     3.042941
      px      :     0.987100
      py      :     1.042229
      dz2     :     0.028823  d :     0.123170
      dxz     :     0.023036
      dyz     :     0.014466
      dx2y2   :     0.039389
      dxy     :     0.017455

  4 O s       :     3.465416  s :     3.465416
      pz      :     1.271066  p :     4.647823
      px      :     1.641920
      py      :     1.734837
      dz2     :     0.007865  d :     0.024344
      dxz     :     0.005269
      dyz     :     0.004289
      dx2y2   :     0.002743
      dxy     :     0.004177

  5 C s       :     2.916351  s :     2.916351
      pz      :     1.069478  p :     3.042936
      px      :     1.092838
      py      :     0.880620
      dz2     :     0.021707  d :     0.123163
      dxz     :     0.014096
      dyz     :     0.026679
      dx2y2   :     0.027606
      dxy     :     0.033076

  6 O s       :     3.465450  s :     3.465450
      pz      :     1.436258  p :     4.647846
      px      :     1.752906
      py      :     1.458682
      dz2     :     0.006559  d :     0.024339
      dxz     :     0.004879
      dyz     :     0.003714
      dx2y2   :     0.006352
      dxy     :     0.002834

  7 H s       :     0.921190  s :     0.921190
      pz      :     0.014486  p :     0.067647
      px      :     0.030754
      py      :     0.022407

  8 H s       :     0.914855  s :     0.914855
      pz      :     0.042957  p :     0.065565
      px      :     0.008828
      py      :     0.013781

  9 H s       :     0.747852  s :     0.747852
      pz      :     0.091008  p :     0.173937
      px      :     0.036014
      py      :     0.046914

 10 H s       :     0.921213  s :     0.921213
      pz      :     0.011160  p :     0.067653
      px      :     0.012328
      py      :     0.044165

 11 H s       :     0.914867  s :     0.914867
      pz      :     0.038773  p :     0.065578
      px      :     0.013650
      py      :     0.013156

 12 H s       :     0.747820  s :     0.747820
      pz      :     0.082362  p :     0.173939
      px      :     0.043008
      py      :     0.048570

 13 H s       :     0.914862  s :     0.914862
      pz      :     0.037363  p :     0.065574
      px      :     0.019303
      py      :     0.008908

 14 H s       :     0.921179  s :     0.921179
      pz      :     0.014204  p :     0.067640
      px      :     0.037006
      py      :     0.016430

 15 H s       :     0.747817  s :     0.747817
      pz      :     0.081040  p :     0.173937
      px      :     0.059149
      py      :     0.033748



                      *****************************
                      * MAYER POPULATION ANALYSIS *
                      *****************************

  NA   - Mulliken gross atomic population
  ZA   - Total nuclear charge
  QA   - Mulliken gross atomic charge
  VA   - Mayer's total valence
  BVA  - Mayer's bonded valence
  FA   - Mayer's free valence

  ATOM       NA         ZA         QA         VA         BVA        FA
  0 C      5.9774     6.0000     0.0226     3.8933     3.8933    -0.0000
  1 O      8.2885     8.0000    -0.2885     2.1181     2.1181    -0.0000
  2 P     15.0179    15.0000    -0.0179     3.1045     3.1045    -0.0000
  3 C      5.9775     6.0000     0.0225     3.8933     3.8933    -0.0000
  4 O      8.2884     8.0000    -0.2884     2.1183     2.1183    -0.0000
  5 C      5.9775     6.0000     0.0225     3.8935     3.8935    -0.0000
  6 O      8.2885     8.0000    -0.2885     2.1183     2.1183    -0.0000
  7 H      0.9492     1.0000     0.0508     0.9810     0.9810    -0.0000
  8 H      0.9529     1.0000     0.0471     0.9839     0.9839    -0.0000
  9 H      0.8261     1.0000     0.1739     1.0115     1.0115    -0.0000
 10 H      0.9492     1.0000     0.0508     0.9810     0.9810    -0.0000
 11 H      0.9529     1.0000     0.0471     0.9839     0.9839    -0.0000
 12 H      0.8260     1.0000     0.1740     1.0115     1.0115    -0.0000
 13 H      0.9529     1.0000     0.0471     0.9839     0.9839    -0.0000
 14 H      0.9491     1.0000     0.0509     0.9808     0.9808    -0.0000
 15 H      0.8260     1.0000     0.1740     1.0115     1.0115    -0.0000

  Mayer bond orders larger than 0.100000
B(  0-C ,  1-O ) :   1.0391 B(  0-C ,  2-P ) :   0.9426 B(  0-C ,  7-H ) :   0.9289 
B(  0-C ,  8-H ) :   0.9307 B(  1-O ,  9-H ) :   0.9713 B(  2-P ,  3-C ) :   0.9426 
B(  2-P ,  5-C ) :   0.9427 B(  3-C ,  4-O ) :   1.0391 B(  3-C , 10-H ) :   0.9289 
B(  3-C , 11-H ) :   0.9307 B(  4-O , 12-H ) :   0.9713 B(  5-C ,  6-O ) :   1.0390 
B(  5-C , 13-H ) :   0.9307 B(  5-C , 14-H ) :   0.9290 B(  6-O , 15-H ) :   0.9713 


-------
TIMINGS
-------

Total SCF time: 0 days 0 hours 0 min 1 sec 

Total time                  ....       1.220 sec
Sum of individual times     ....       1.183 sec  ( 97.0%)

SCF preparation             ....       0.063 sec  (  5.2%)
Fock matrix formation       ....       0.983 sec  ( 80.6%)
  Startup                   ....       0.014 sec  (  1.4% of F)
  Split-RI-J                ....       0.233 sec  ( 23.7% of F)
  XC integration            ....       0.686 sec  ( 69.8% of F)
    Basis function eval.    ....       0.224 sec  ( 32.7% of XC)
    Density eval.           ....       0.132 sec  ( 19.2% of XC)
    XC-Functional eval.     ....       0.029 sec  (  4.2% of XC)
    XC-Potential eval.      ....       0.144 sec  ( 21.0% of XC)
Diagonalization             ....       0.000 sec  (  0.0%)
Density matrix formation    ....       0.020 sec  (  1.6%)
Total Energy calculation    ....       0.010 sec  (  0.8%)
Population analysis         ....       0.039 sec  (  3.2%)
Orbital Transformation      ....       0.008 sec  (  0.7%)
Orbital Orthonormalization  ....       0.000 sec  (  0.0%)
DIIS solution               ....       0.013 sec  (  1.1%)
SOSCF solution              ....       0.047 sec  (  3.9%)
Finished LeanSCF after   1.2 sec

Maximum memory used throughout the entire LEANSCF-calculation: 14.6 MB


-------------------------------------------------------------------------------
                          DFT DISPERSION CORRECTION                            
                                                                               
                              DFTD3 V3.1  Rev 1                                
                          USING Becke-Johnson damping                          
-------------------------------------------------------------------------------
The BP86 functional is recognized
Active option DFTDOPT                   ...         4   

molecular C6(AA) [au] = 2514.555559 


            DFT-D V3
 parameters
 s6 scaling factor         :     1.0000 
 a1 scaling factor         :     0.3946 
 s8 scaling factor         :     3.2822 
 a2 scaling factor         :     4.8516 
 ad hoc parameters k1-k3   :    16.0000     1.3333    -4.0000 

 Edisp/kcal,au: -13.790410433402  -0.021976415548 
 E6   /kcal   :  -5.091978247 
 E8   /kcal   :  -8.698432186 
 % E8         :  63.075948522 

-------------------------   ----------------
Dispersion correction           -0.021976416
-------------------------   ----------------


-------------------------   --------------------
FINAL SINGLE POINT ENERGY      -686.414499253977
-------------------------   --------------------

                                *** OPTIMIZATION RUN DONE ***



           ************************************************************
           *        Program running with 6 parallel MPI-processes     *
           *              working on a common directory               *
           ************************************************************

------------------------------------------------------------------------------
                              ORCA PROPERTY CALCULATIONS
------------------------------------------------------------------------------

GBWName                                 ... data/geom_opt_P_BP86/76001/76001.gbw
Number of atoms                         ...     16
Number of basis functions               ...    147
Max core memory                         ...   1024 MB

Electric properties:
Dipole moment                           ... YES
Quadrupole moment                       ...  NO
Static polarizability (Dipole/Dipole)   ...  NO
Static polarizability (Dipole/Quad.)    ...  NO
Static polarizability (Quad./Quad.)     ...  NO
Static polarizability (Velocity)        ...  NO

Atomic electric properties:
Dipole moment                           ...  NO
Quadrupole moment                       ...  NO
Static polarizability                   ...  NO

Choice of electric origin               ... Center of mass
Position of electric origin             ...    -0.095876    -0.007524     0.357219

General magnetic properties:
Magnetizability                         ...  NO

EPR properties:
g-Tensor (aka g-matrix)                 ...  NO
Zero-Field splitting spin-orbit         ...  NO
Zero-field splitting spin-spin          ...  NO
Hyperfine couplings                     ...  NO (   0 nuclei)
Quadrupole couplings                    ...  NO (   0 nuclei)
Contact density                         ...  NO (   0 nuclei)

NMR properties:
Chemical shifts                         ...  NO (   0 nuclei)
Spin-rotation constants                 ...  NO (   0 nuclei)
Spin-spin couplings                     ...  NO (   0 nuclei,    0 pairs)

Choice of magnetic origin               ... GIAO
Position of magnetic origin             ...     0.000000     0.000000     0.000000

Properties with geometric perturbations:
SCF Hessian                             ...  NO
IR spectrum                             ...  NO
VCD spectrum                            ...  NO
X-ray spectroscopy properties:
SCF XES/XAS/RIXS spectra                ...  NO


-------------
DIPOLE MOMENT
-------------

Method             : SCF
Type of density    : Electron Density
Multiplicity       :   1
Irrep              :   0
Energy             :  -686.3925228384287038 Eh
Relativity type    : 
Basis              : AO
                                X                 Y                 Z
Electronic contribution:     -0.880061142      -0.071061340       3.281627777
Nuclear contribution   :      0.723602612       0.056648255      -2.694595681
                        -----------------------------------------
Total Dipole Moment    :     -0.156458531      -0.014413085       0.587032096
                        -----------------------------------------
Magnitude (a.u.)       :      0.607695393
Magnitude (Debye)      :      1.544638934



--------------------
Rotational spectrum 
--------------------
 
Rotational constants in cm-1:             0.061145             0.061064             0.033479 
Rotational constants in MHz :          1833.084764          1830.637804          1003.670329 

Dipole components along the rotational axes: 
x,y,z [a.u.] :     0.001362     0.000820     0.607693 
x,y,z [Debye]:     0.003462     0.002084     1.544634 

 

Dipole moment calculation done in   0.0 sec 

Maximum memory used throughout the entire PROP-calculation: 7.3 MB

--------------------------------
SUGGESTED CITATIONS FOR THIS RUN
--------------------------------

Below you find a list of papers that are relevant to this ORCA run
We neither can nor want to force you to cite these papers, but we appreciate if you do
You receive ORCA, which is the product of decades of hard work by many enthusiastic individuals, for free
The only thing we kindly ask in return is that you cite our papers,
We deeply appreciate it, if you show your appreciation for ORCA by not just citing the generic ORCA reference.

Please note that relegating all ORCA citations to the supporting information does *not* help us.
SI sections are not indexed - citations you put there will not count into any citation statistics
But we need these citations in order to attract the funding resources that allow us to do what we are doing

Therefore, if you are a happy ORCA user, please consider citing a few of the papers listed below in the main body of your paper

In addition to the list printed below, the program has created the file data/geom_opt_P_BP86/76001/76001.bibtex that contains the list in bibtex format
You can import this file easily into all common literature databanks and citation aid programs


List of essential papers. We consider these as the minimum necessary citations

  1. Neese,F.
     Software update: the ORCA program system, version 5.0
     WIRES Comput. Molec. Sci., 2022 12(1)e1606
     doi.org/10.1002/wcms.1606

List of papers to cite with high priority. The work reported in these papers was absolutely
necessary for this run to complete.
Our perspective: the developers of density functionals and basis sets usually get cited in chemistry papers
Good! But without the algorithms to do something with them, the functionals or basis sets would not do anything.
Hence, in our opinion, the algorithm design and method developments papers are equally worthy of getting cited

  1. Neese,F.
     An improvement of the resolution of the identity approximation for the formation of the Coulomb matrix
     J. Comp. Chem., 2003 24(14)1740-1747
     doi.org/10.1002/jcc.10318
  2. Neese,F.
     The SHARK Integral Generation and Digestion System
     J. Comp. Chem., 2022  1-16
     doi.org/10.1002/jcc.26942
  3. Grimme,S.; Antony,J.; Ehrlich,S.; Krieg,H.
     A consistent and accurate ab initio parametrization of density functional dispersion correction (DFT-D) for the 94 elements H-Pu
     J. Chem. Phys., 2010 132 154104-XXXX
     doi.org/10.1063/1.3382344
  4. Grimme,S.; Ehrlich,S.; Goerigk,L.
     Effect of the damping function in dispersion corrected density functional theory
     J. Comput. Chem., 2011 32(7)1456-1465
     doi.org/10.1002/jcc.21759

List of suggested additional citations. These are papers that are important in the 'surrounding' of 
of this run, or papers that preceded the highly important papers. If you like your results we are grateful for a citation.

  1. Neese,F.
     The ORCA program system
     WIRES Comput. Molec. Sci., 2012 2(1)73-78
     doi.org/10.1002/wcms.81
  2. Neese,F.
     Software update: the ORCA program system, version 4.0
     WIRES Comput. Molec. Sci., 2018 8(1)1-6
     doi.org/10.1002/wcms.1327
  3. Neese,F.; Wennmohs,F.; Becker,U.; Riplinger,C.
     The ORCA quantum chemistry program package
     J. Chem. Phys., 2020 152 Art. No. L224108
     doi.org/10.1063/5.0004608

List of optional additional citations

  1. Neese,F.
     Approximate second-order SCF convergence for spin unrestricted wavefunctions
     Chem. Phys. Lett., 2000 325(1-3)93-98
     doi.org/10.1016/s0009-2614(00)00662-x

Timings for individual modules:

Sum of individual times          ...       31.352 sec (=   0.523 min)
Startup calculation              ...        4.543 sec (=   0.076 min)  14.5 %
SCF iterations                   ...       16.632 sec (=   0.277 min)  53.0 %
Property calculations            ...        0.127 sec (=   0.002 min)   0.4 %
SCF Gradient evaluation          ...       10.002 sec (=   0.167 min)  31.9 %
Geometry relaxation              ...        0.048 sec (=   0.001 min)   0.2 %
                             ****ORCA TERMINATED NORMALLY****
TOTAL RUN TIME: 0 days 0 hours 0 minutes 32 seconds 914 msec
