
                                 *****************
                                 * O   R   C   A *
                                 *****************

                                            #,                                       
                                            ###                                      
                                            ####                                     
                                            #####                                    
                                            ######                                   
                                           ########,                                 
                                     ,,################,,,,,                         
                               ,,#################################,,                 
                          ,,##########################################,,             
                       ,#########################################, ''#####,          
                    ,#############################################,,   '####,        
                  ,##################################################,,,,####,       
                ,###########''''           ''''###############################       
              ,#####''   ,,,,##########,,,,          '''####'''          '####       
            ,##' ,,,,###########################,,,                        '##       
           ' ,,###''''                  '''############,,,                           
         ,,##''                                '''############,,,,        ,,,,,,###''
      ,#''                                            '''#######################'''  
     '                                                          ''''####''''         
             ,#######,   #######,   ,#######,      ##                                
            ,#'     '#,  ##    ##  ,#'     '#,    #''#        ,####,   ,####,        
            ##       ##  ##   ,#'  ##            #'  '#       #'       #'  '#        
            ##       ##  #######   ##           ,######,      #####,   #    #        
            '#,     ,#'  ##    ##  '#,     ,#' ,#      #,     #,   #   #,  ,#        
             '#######'   ##     ##  '#######'  #'      '#     '####' # '####'        



                #########################################################
                #                        -***-                          #
                #          Department of theory and spectroscopy        #
                #                                                       #
                #                      Frank Neese                      #
                #                                                       #
                #     Directorship, Architecture, Infrastructure        #
                #                    SHARK, DRIVERS                     #
                #        Core code/Algorithms in most modules           #
                #                                                       #
                #        Max Planck Institute fuer Kohlenforschung      #
                #                Kaiser Wilhelm Platz 1                 #
                #                 D-45470 Muelheim/Ruhr                 #
                #                      Germany                          #
                #                                                       #
                #                  All rights reserved                  #
                #                        -***-                          #
                #########################################################


                         Program Version 6.0.0  -   RELEASE   -


 With contributions from (in alphabetic order):
   Daniel Aravena         : Magnetic Suceptibility
   Michael Atanasov       : Ab Initio Ligand Field Theory (pilot matlab implementation)
   Alexander A. Auer      : GIAO ZORA, VPT2 properties, NMR spectrum
   Ute Becker             : All parallelization in ORCA, NUMFREQ, NUMCALC
   Giovanni Bistoni       : ED, misc. LED, open-shell LED, HFLD
   Martin Brehm           : Molecular dynamics
   Dmytro Bykov           : pre 5.0 version of the SCF Hessian
   Marcos Casanova-Páez   : Triplet and SCS-CIS(D). UHF-(DLPNO)-IP/EA/STEOM-CCSD. UHF-CVS-IP/STEOM-CCSD
   Vijay G. Chilkuri      : MRCI spin determinant printing, contributions to CSF-ICE
   Pauline Colinet        : FMM embedding
   Dipayan Datta          : RHF DLPNO-CCSD density
   Achintya Kumar Dutta   : EOM-CC, STEOM-CC
   Nicolas Foglia         : Exact transition moments, OPA infrastructure, MCD improvements
   Dmitry Ganyushin       : Spin-Orbit,Spin-Spin,Magnetic field MRCI
   Miquel Garcia          : C-PCM and meta-GGA Hessian, CCSD/C-PCM, Gaussian charge scheme
   Tiago L. C. Gouveia    : GS-ROHF, GS-ROCIS
   Yang Guo               : DLPNO-NEVPT2, F12-NEVPT2, CIM, IAO-localization
   Andreas Hansen         : Spin unrestricted coupled pair/coupled cluster methods
   Ingolf Harden          : AUTO-CI MPn and infrastructure 
   Benjamin Helmich-Paris : MC-RPA, TRAH-(SCF,CASSCF), AVAS, COSX integrals, SCF dyn. polar.
   Lee Huntington         : MR-EOM, pCC
   Robert Izsak           : Overlap fitted RIJCOSX, COSX-SCS-MP3, EOM
   Riya Kayal             : Wick's Theorem for AUTO-CI, AUTO-CI UHF-CCSDT
   Emily Kempfer          : AUTO-CI, RHF CISDT and CCSDT
   Christian Kollmar      : KDIIS, OOCD, Brueckner-CCSD(T), CCSD density, CASPT2, CASPT2-K, improved NEVPT2
   Axel Koslowski         : Symmetry handling
   Simone Kossmann        : Meta GGA functionals, TD-DFT gradient, OOMP2, (MP2 Hessian; deprecated post 5.0)
   Lucas Lang             : DCDCAS
   Marvin Lechner         : AUTO-CI (C++ implementation), FIC-MRCC
   Spencer Leger          : CASSCF response
   Dagmar Lenk            : GEPOL surface, SMD, ORCA-2-JSON
   Dimitrios Liakos       : Extrapolation schemes; Compound Job, initial MDCI parallelization
   Dimitrios Manganas     : Further ROCIS development; embedding schemes. LFT, Crystal Embedding
   Dimitrios Pantazis     : SARC Basis sets
   Anastasios Papadopoulos: AUTO-CI, single reference methods and gradients
   Taras Petrenko         : pre 6.0 DFT Hessian and TD-DFT gradient, (ASA, deprecated), ECA, 1-Electron XAS/XES, NRVS
   Peter Pinski           : DLPNO-MP2, DLPNO-MP2 Gradient
   Christoph Reimann      : Effective Core Potentials
   Marius Retegan         : Local ZFS, SOC
   Christoph Riplinger    : Optimizer, TS searches, QM/MM, DLPNO-CCSD(T), (RO)-DLPNO pert. Triples
   Michael Roemelt        : Original ROCIS implementation
   Masaaki Saitow         : Open-shell DLPNO-CCSD energy and density
   Barbara Sandhoefer     : DKH picture change effects
   Kantharuban Sivalingam : CASSCF convergence/infrastructure, NEVPT2 and variants, FIC-MRCI
   Bernardo de Souza      : ESD, SOC TD-DFT
   Georgi Stoychev        : AutoAux, RI-MP2 NMR, DLPNO-MP2 response, X2C
   Van Anh Tran           : RI-MP2 g-tensors
   Willem Van den Heuvel  : Paramagnetic NMR
   Zikuan Wang            : NOTCH, Electric field optimization 
   Frank Wennmohs         : Technical directorship and infrastructure
   Hang Xu                : AUTO-CI-Response properties 


 We gratefully acknowledge several colleagues who have allowed us to
 interface, adapt or use parts of their codes:
   Stefan Grimme, W. Hujo, H. Kruse, P. Pracht,  : VdW corrections, initial TS optimization,
                  C. Bannwarth, S. Ehlert,         DFT functionals, gCP, sTDA/sTD-DF
                  L. Wittmann, M. Mueller
   Ed Valeev, F. Pavosevic, A. Kumar             : LibInt (2-el integral package), F12 methods
   Garnet Chan, S. Sharma, J. Yang, R. Olivares  : DMRG
   Ulf Ekstrom                                   : XCFun DFT Library
   Mihaly Kallay                                 : mrcc  (arbitrary order and MRCC methods)
   Frank Weinhold                                : gennbo (NPA and NBO analysis)
   Simon Mueller                                 : openCOSMO-RS
   Christopher J. Cramer and Donald G. Truhlar   : smd solvation model
   Lars Goerigk                                  : TD-DFT with DH, B97 family of functionals
   V. Asgeirsson, H. Jonsson                     : NEB implementation
   FAccTs GmbH                                   : IRC, NEB, NEB-TS, DLPNO-Multilevel, CI-OPT
                                                   MM, QMMM, 2- and 3-layer-ONIOM, Crystal-QMMM,
                                                   LR-CPCM, SF, NACMEs, symmetry and pop. for TD-DFT,
                                                   nearIR, NL-DFT gradient (VV10), updates on ESD,
                                                   ML-optimized integration grids, MBIS, APM,
                                                   GOAT, DOCKER, SOLVATOR, interface openCOSMO-RS
   S Lehtola, MJT Oliveira, MAL Marques          : LibXC Library
   Liviu Ungur et al                             : ANISO software


 Your calculation uses the libint2 library for the computation of 2-el integrals
 For citations please refer to: http://libint.valeyev.net

 Your ORCA version has been built with support for libXC version: 6.2.2
 For citations please refer to: https://libxc.gitlab.io

 This ORCA versions uses:
   CBLAS   interface :  Fast vector & matrix operations
   LAPACKE interface :  Fast linear algebra routines
   Shared memory     :  Shared parallel matrices


Your calculation utilizes the atom-pairwise dispersion correction
with the Becke-Johnson damping scheme (D3BJ)


Warning: RI is on but no J-basis has been assigned. Assigning Def2/J (nothing to worry about!)
================================================================================

----- Orbital basis set information -----
Your calculation utilizes the basis: def2-SVP
   F. Weigend and R. Ahlrichs, Phys. Chem. Chem. Phys. 7, 3297 (2005).

----- AuxJ basis set information -----
Your calculation utilizes the auxiliary basis: def2/J
   F. Weigend, Phys. Chem. Chem. Phys. 8, 1057 (2006).

================================================================================
                                        WARNINGS
                       Please study these warnings very carefully!
================================================================================


WARNING: Geometry Optimization
  ===> : Switching off AutoStart
         For restart on a previous wavefunction, please use MOREAD

================================================================================
                                       INPUT FILE
================================================================================
NAME = data/geom_opt_PO_BP86/73879/73879.inp
|  1> ! RI BP86 def2-SVP D3BJ TIGHTSCF Opt
|  2> %pal
|  3> nprocs 6
|  4> end
|  5> 
|  6> * xyz 0 1
|  7> C     -0.154667   -2.021439    1.706859
|  8> P      0.050867   -1.385534    0.023688
|  9> O      0.192355   -2.583607   -0.893339
| 10> C      1.481983   -0.313934   -0.015506
| 11> C      1.945502    0.375402    1.113307
| 12> C      3.063394    1.208481    1.027348
| 13> C      3.730652    1.361074   -0.186260
| 14> C      3.282922    0.680472   -1.315574
| 15> C      2.166239   -0.151288   -1.229768
| 16> C     -1.404697   -0.403520   -0.318604
| 17> C     -1.673681    0.782093    0.379299
| 18> C     -2.820522    1.526809    0.097257
| 19> C     -3.710636    1.094261   -0.883719
| 20> C     -3.455235   -0.082015   -1.584746
| 21> C     -2.308933   -0.825981   -1.303535
| 22> H     -0.341906   -1.214018    2.419323
| 23> H      0.743218   -2.564343    2.014819
| 24> H     -1.004458   -2.709480    1.738842
| 25> H      1.444620    0.275207    2.071706
| 26> H      3.416313    1.738722    1.908485
| 27> H      4.601515    2.008174   -0.251884
| 28> H      3.803312    0.793596   -2.263205
| 29> H      1.824718   -0.686346   -2.115112
| 30> H     -0.990188    1.139315    1.144788
| 31> H     -3.019008    2.447242    0.640688
| 32> H     -4.602459    1.675187   -1.104257
| 33> H     -4.146619   -0.420717   -2.352179
| 34> H     -2.114601   -1.743813   -1.857120
| 35> **                         ****END OF INPUT****
================================================================================

                       *****************************
                       * Geometry Optimization Run *
                       *****************************

Geometry optimization settings:
Update method            Update   .... BFGS
Choice of coordinates    CoordSys .... (2022) Redundant Internals
Initial Hessian          InHess   .... Almloef's Model
Max. no of cycles        MaxIter  .... 84

Convergence Tolerances:
Energy Change            TolE     ....  5.0000e-06 Eh
Max. Gradient            TolMAXG  ....  3.0000e-04 Eh/bohr
RMS Gradient             TolRMSG  ....  1.0000e-04 Eh/bohr
Max. Displacement        TolMAXD  ....  4.0000e-03 bohr
RMS Displacement         TolRMSD  ....  2.0000e-03 bohr
Strict Convergence                .... False

------------------------------------------------------------------------------
                        ORCA OPTIMIZATION COORDINATE SETUP
------------------------------------------------------------------------------

The optimization will be done in redundant internal coordinates (2022)
Making redundant internal coordinates   ...  (2022 redundants) done
Evaluating the initial hessian          ...  (Almloef) done
Evaluating the coordinates              ...  done
Calculating the B-matrix                .... done
Calculating the G-matrix                .... done
Diagonalizing the G-matrix              .... done
Small eigenvalue found = 7.453e-03
Small eigenvalue found = 1.257e-02
Small eigenvalue found = 1.978e-02
The first mode is                       ....   63
The number of degrees of freedom        ....   78

    -----------------------------------------------------------------
                    Redundant Internal Coordinates


    -----------------------------------------------------------------
         Definition                    Initial Value    Approx d2E/dq
    -----------------------------------------------------------------
      1. B(P   1,C   0)                  1.8110         0.447270   
      2. B(O   2,P   1)                  1.5154         1.186738   
      3. B(C   3,P   1)                  1.7883         0.486181   
      4. B(C   4,C   3)                  1.4015         0.598911   
      5. B(C   5,C   4)                  1.3968         0.609348   
      6. B(C   6,C   5)                  1.3933         0.617205   
      7. B(C   7,C   6)                  1.3925         0.619105   
      8. B(C   8,C   7)                  1.3951         0.613309   
      9. B(C   8,C   3)                  1.4032         0.595127   
     10. B(C   9,P   1)                  1.7889         0.485070   
     11. B(C  10,C   9)                  1.4018         0.598247   
     12. B(C  11,C  10)                  1.3962         0.610711   
     13. B(C  12,C  11)                  1.3935         0.616918   
     14. B(C  13,C  12)                  1.3929         0.618075   
     15. B(C  14,C   9)                  1.4022         0.597381   
     16. B(C  14,C  13)                  1.3952         0.612982   
     17. B(H  15,C   0)                  1.0930         0.356187   
     18. B(H  16,C   0)                  1.0935         0.355476   
     19. B(H  17,C   0)                  1.0939         0.355007   
     20. B(H  18,C   4)                  1.0860         0.365397   
     21. B(H  19,C   5)                  1.0872         0.363758   
     22. B(H  20,C   6)                  1.0869         0.364165   
     23. B(H  21,C   7)                  1.0870         0.364067   
     24. B(H  22,C   8)                  1.0894         0.360916   
     25. B(H  23,C  10)                  1.0866         0.364599   
     26. B(H  24,C  11)                  1.0872         0.363880   
     27. B(H  25,C  12)                  1.0869         0.364157   
     28. B(H  26,C  13)                  1.0871         0.364020   
     29. B(H  27,C  14)                  1.0893         0.360989   
     30. A(H  16,C   0,H  17)          108.5037         0.289602   
     31. A(P   1,C   0,H  15)          111.4627         0.354274   
     32. A(P   1,C   0,H  17)          109.6458         0.354075   
     33. A(H  15,C   0,H  17)          108.2109         0.289693   
     34. A(H  15,C   0,H  16)          108.8959         0.289753   
     35. A(P   1,C   0,H  16)          110.0529         0.354154   
     36. A(C   0,P   1,O   2)          107.1829         0.523011   
     37. A(O   2,P   1,C   9)          113.2152         0.531055   
     38. A(O   2,P   1,C   3)          112.6922         0.531283   
     39. A(C   0,P   1,C   9)          106.1556         0.445868   
     40. A(C   0,P   1,C   3)          108.7602         0.446053   
     41. A(C   3,P   1,C   9)          108.5427         0.452670   
     42. A(P   1,C   3,C   4)          122.8030         0.440573   
     43. A(C   4,C   3,C   8)          118.5987         0.428215   
     44. A(P   1,C   3,C   8)          118.5975         0.440069   
     45. A(C   3,C   4,H  18)          120.8546         0.351717   
     46. A(C   3,C   4,C   5)          120.5617         0.430034   
     47. A(C   5,C   4,H  18)          118.5837         0.352746   
     48. A(C   4,C   5,H  19)          120.0511         0.352478   
     49. A(C   6,C   5,H  19)          119.8041         0.353243   
     50. A(C   4,C   5,C   6)          120.1447         0.432364   
     51. A(C   5,C   6,C   7)          119.9264         0.433601   
     52. A(C   7,C   6,H  20)          119.9755         0.353494   
     53. A(C   5,C   6,H  20)          120.0979         0.353310   
     54. A(C   6,C   7,C   8)          119.9275         0.433107   
     55. A(C   8,C   7,H  21)          119.9255         0.352915   
     56. A(C   6,C   7,H  21)          120.1468         0.353478   
     57. A(C   3,C   8,C   7)          120.8408         0.430044   
     58. A(C   7,C   8,H  22)          119.5903         0.352396   
     59. A(C   3,C   8,H  22)          119.5678         0.350608   
     60. A(P   1,C   9,C  10)          121.6782         0.440303   
     61. A(P   1,C   9,C  14)          119.5849         0.440188   
     62. A(C  10,C   9,C  14)          118.7360         0.428421   
     63. A(C  11,C  10,H  23)          118.9224         0.352749   
     64. A(C   9,C  10,H  23)          120.5354         0.351521   
     65. A(C   9,C  10,C  11)          120.5414         0.430120   
     66. A(C  12,C  11,H  24)          119.8733         0.353235   
     67. A(C  10,C  11,H  24)          120.0381         0.352631   
     68. A(C  10,C  11,C  12)          120.0883         0.432501   
     69. A(C  13,C  12,H  25)          119.9768         0.353393   
     70. A(C  11,C  12,H  25)          120.0691         0.353281   
     71. A(C  11,C  12,C  13)          119.9539         0.433435   
     72. A(C  14,C  13,H  26)          119.9144         0.352876   
     73. A(C  12,C  13,H  26)          120.1187         0.353370   
     74. A(C  12,C  13,C  14)          119.9668         0.432936   
     75. A(C  13,C  14,H  27)          119.5661         0.352377   
     76. A(C   9,C  14,H  27)          119.7203         0.350844   
     77. A(C   9,C  14,C  13)          120.7135         0.430295   
     78. D(C   3,P   1,C   0,H  15)     62.3482         0.004442   
     79. D(O   2,P   1,C   0,H  17)    -55.7500         0.004442   
     80. D(O   2,P   1,C   0,H  15)   -175.5457         0.004442   
     81. D(O   2,P   1,C   0,H  16)     63.5272         0.004442   
     82. D(C   3,P   1,C   0,H  17)   -177.8561         0.004442   
     83. D(C   3,P   1,C   0,H  16)    -58.5789         0.004442   
     84. D(C   4,C   3,P   1,C   0)    -26.4510         0.004741   
     85. D(C   8,C   3,P   1,C   0)    153.8641         0.004741   
     86. D(C   4,C   3,P   1,O   2)   -145.1496         0.004741   
     87. D(C   8,C   3,P   1,O   2)     35.1655         0.004741   
     88. D(C   4,C   3,P   1,C   9)     88.6286         0.004741   
     89. D(H  18,C   4,C   3,P   1)      0.3997         0.024723   
     90. D(C   5,C   4,C   3,C   8)      0.1507         0.024723   
     91. D(H  18,C   4,C   3,C   8)   -179.9155         0.024723   
     92. D(C   5,C   4,C   3,P   1)   -179.5342         0.024723   
     93. D(H  19,C   5,C   4,H  18)      0.1123         0.025641   
     94. D(H  19,C   5,C   4,C   3)   -179.9524         0.025641   
     95. D(C   6,C   5,C   4,H  18)   -179.9863         0.025641   
     96. D(C   6,C   5,C   4,C   3)     -0.0510         0.025641   
     97. D(H  20,C   6,C   5,H  19)      0.0091         0.026346   
     98. D(H  20,C   6,C   5,C   4)   -179.8925         0.026346   
     99. D(C   7,C   6,C   5,H  19)    179.8337         0.026346   
    100. D(C   7,C   6,C   5,C   4)     -0.0679         0.026346   
    101. D(H  21,C   7,C   6,H  20)      0.0854         0.026518   
    102. D(H  21,C   7,C   6,C   5)   -179.7395         0.026518   
    103. D(C   8,C   7,C   6,H  20)    179.9085         0.026518   
    104. D(C   8,C   7,C   6,C   5)      0.0837         0.026518   
    105. D(H  22,C   8,C   3,C   4)    179.4746         0.024395   
    106. D(H  22,C   8,C   3,P   1)     -0.8271         0.024395   
    107. D(C   7,C   8,C   3,C   4)     -0.1350         0.024395   
    108. D(C   7,C   8,C   3,P   1)    179.5633         0.024395   
    109. D(H  22,C   8,C   7,H  21)      0.2331         0.025995   
    110. D(H  22,C   8,C   7,C   6)   -179.5905         0.025995   
    111. D(C   3,C   8,C   7,H  21)    179.8426         0.025995   
    112. D(C   3,C   8,C   7,C   6)      0.0190         0.025995   
    113. D(C  14,C   9,P   1,O   2)      3.5617         0.004726   
    114. D(C  14,C   9,P   1,C   0)   -113.7556         0.004726   
    115. D(C  10,C   9,P   1,C   3)    -50.8546         0.004726   
    116. D(C  10,C   9,P   1,O   2)   -176.7722         0.004726   
    117. D(C  10,C   9,P   1,C   0)     65.9104         0.004726   
    118. D(H  23,C  10,C   9,C  14)   -179.6785         0.024665   
    119. D(H  23,C  10,C   9,P   1)      0.6527         0.024665   
    120. D(C  11,C  10,C   9,C  14)     -0.0165         0.024665   
    121. D(C  11,C  10,C   9,P   1)   -179.6853         0.024665   
    122. D(H  24,C  11,C  10,H  23)     -0.0818         0.025762   
    123. D(H  24,C  11,C  10,C   9)   -179.7492         0.025762   
    124. D(C  12,C  11,C  10,H  23)    179.7226         0.025762   
    125. D(C  12,C  11,C  10,C   9)      0.0552         0.025762   
    126. D(H  25,C  12,C  11,H  24)     -0.0872         0.026320   
    127. D(H  25,C  12,C  11,C  10)   -179.8919         0.026320   
    128. D(C  13,C  12,C  11,H  24)    179.7438         0.026320   
    129. D(C  13,C  12,C  11,C  10)     -0.0609         0.026320   
    130. D(H  26,C  13,C  12,H  25)     -0.0256         0.026425   
    131. D(H  26,C  13,C  12,C  11)   -179.8568         0.026425   
    132. D(C  14,C  13,C  12,H  25)    179.8594         0.026425   
    133. D(C  14,C  13,C  12,C  11)      0.0282         0.026425   
    134. D(C   9,C  14,C  13,H  26)    179.8959         0.025965   
    135. D(C   9,C  14,C  13,C  12)      0.0106         0.025965   
    136. D(H  27,C  14,C   9,C  10)    179.8718         0.024590   
    137. D(H  27,C  14,C   9,P   1)     -0.4523         0.024590   
    138. D(C  13,C  14,C   9,C  10)     -0.0164         0.024590   
    139. D(H  27,C  14,C  13,C  12)   -179.8778         0.025965   
    140. D(C  13,C  14,C   9,P   1)    179.6595         0.024590   
    141. D(H  27,C  14,C  13,H  26)      0.0075         0.025965   
    -----------------------------------------------------------------

Number of atoms                         .... 28
Number of degrees of freedom            .... 141


         *************************************************************
         *                GEOMETRY OPTIMIZATION CYCLE   1            *
         *************************************************************
---------------------------------
CARTESIAN COORDINATES (ANGSTROEM)
---------------------------------
  C     -0.154667   -2.021439    1.706859
  P      0.050867   -1.385534    0.023688
  O      0.192355   -2.583607   -0.893339
  C      1.481983   -0.313934   -0.015506
  C      1.945502    0.375402    1.113307
  C      3.063394    1.208481    1.027348
  C      3.730652    1.361074   -0.186260
  C      3.282922    0.680472   -1.315574
  C      2.166239   -0.151288   -1.229768
  C     -1.404697   -0.403520   -0.318604
  C     -1.673681    0.782093    0.379299
  C     -2.820522    1.526809    0.097257
  C     -3.710636    1.094261   -0.883719
  C     -3.455235   -0.082015   -1.584746
  C     -2.308933   -0.825981   -1.303535
  H     -0.341906   -1.214018    2.419323
  H      0.743218   -2.564343    2.014819
  H     -1.004458   -2.709480    1.738842
  H      1.444620    0.275207    2.071706
  H      3.416313    1.738722    1.908485
  H      4.601515    2.008174   -0.251884
  H      3.803312    0.793596   -2.263205
  H      1.824718   -0.686346   -2.115112
  H     -0.990188    1.139315    1.144788
  H     -3.019008    2.447242    0.640688
  H     -4.602459    1.675187   -1.104257
  H     -4.146619   -0.420717   -2.352179
  H     -2.114601   -1.743813   -1.857120

----------------------------
CARTESIAN COORDINATES (A.U.)
----------------------------
  NO LB      ZA    FRAG     MASS         X           Y           Z
   0 C     6.0000    0    12.011   -0.292278   -3.819966    3.225496
   1 P    15.0000    0    30.974    0.096125   -2.618280    0.044764
   2 O     8.0000    0    15.999    0.363498   -4.882310   -1.688166
   3 C     6.0000    0    12.011    2.800542   -0.593249   -0.029302
   4 C     6.0000    0    12.011    3.676466    0.709407    2.103845
   5 C     6.0000    0    12.011    5.788976    2.283698    1.941406
   6 C     6.0000    0    12.011    7.049911    2.572057   -0.351980
   7 C     6.0000    0    12.011    6.203823    1.285906   -2.486075
   8 C     6.0000    0    12.011    4.093598   -0.285893   -2.323925
   9 C     6.0000    0    12.011   -2.654493   -0.762542   -0.602074
  10 C     6.0000    0    12.011   -3.162799    1.477942    0.716771
  11 C     6.0000    0    12.011   -5.330014    2.885251    0.183789
  12 C     6.0000    0    12.011   -7.012086    2.067854   -1.669987
  13 C     6.0000    0    12.011   -6.529448   -0.154986   -2.994736
  14 C     6.0000    0    12.011   -4.363251   -1.560878   -2.463324
  15 H     1.0000    0     1.008   -0.646109   -2.294162    4.571858
  16 H     1.0000    0     1.008    1.404478   -4.845906    3.807456
  17 H     1.0000    0     1.008   -1.898151   -5.120175    3.285935
  18 H     1.0000    0     1.008    2.729936    0.520066    3.914957
  19 H     1.0000    0     1.008    6.455896    3.285708    3.606514
  20 H     1.0000    0     1.008    8.695603    3.794899   -0.475992
  21 H     1.0000    0     1.008    7.187218    1.499679   -4.276838
  22 H     1.0000    0     1.008    3.448217   -1.297006   -3.996982
  23 H     1.0000    0     1.008   -1.871184    2.152993    2.163336
  24 H     1.0000    0     1.008   -5.705098    4.624617    1.210725
  25 H     1.0000    0     1.008   -8.697387    3.165645   -2.086743
  26 H     1.0000    0     1.008   -7.835974   -0.795040   -4.444974
  27 H     1.0000    0     1.008   -3.996017   -3.295329   -3.509448

--------------------------------
INTERNAL COORDINATES (ANGSTROEM)
--------------------------------
 C      0   0   0     0.000000000000     0.00000000     0.00000000
 P      1   0   0     1.810989787222     0.00000000     0.00000000
 O      2   1   0     1.515366716740   107.18290109     0.00000000
 C      2   1   3     1.788282901303   108.76022636   237.89387566
 C      4   2   1     1.401518024581   122.80299505   333.54895849
 C      5   4   2     1.396814981873   120.56169254   180.46583912
 C      6   5   4     1.393327757520   120.14472864   359.94900948
 C      7   6   5     1.392491057745   119.92636442   359.93209636
 C      8   7   6     1.395051357379   119.92747816     0.08369921
 C      2   1   3     1.788905214805   106.15564343   121.27486818
 C     10   2   1     1.401819951147   121.67819765    65.91043482
 C     11  10   2     1.396206965210   120.54143076   180.31469967
 C     12  11  10     1.393454203724   120.08828412     0.05519682
 C     13  12  11     1.392944275162   119.95394320   359.93912203
 C     14  13  12     1.395196513356   119.96678085     0.02817085
 H      1   2   3     1.092973954702   111.46267407   184.45429383
 H      1   2   3     1.093517987068   110.05294296    63.52722142
 H      1   2   3     1.093877540519   109.64583170   304.25003250
 H      5   4   2     1.086025072984   120.85456752     0.39965710
 H      6   5   4     1.087248707247   120.05114261   180.04761569
 H      7   6   5     1.086944011504   120.09792068   180.10746325
 H      8   7   6     1.087017618825   120.14675683   180.26050715
 H      9   8   7     1.089384071456   119.59029549   180.40946611
 H     11  10   2     1.086620286694   120.53535180     0.65266814
 H     12  11  10     1.087157234003   120.03812124   180.25081178
 H     13  12  11     1.086949994365   120.06907121   180.10805462
 H     14  13  12     1.087053029870   120.11873903   180.14315653
 H     15  14  13     1.089328627492   119.56611496   180.12224400

---------------------------
INTERNAL COORDINATES (A.U.)
---------------------------
 C      0   0   0     0.000000000000     0.00000000     0.00000000
 P      1   0   0     3.422274729178     0.00000000     0.00000000
 O      2   1   0     2.863628087097   107.18290109     0.00000000
 C      2   1   3     3.379364933436   108.76022636   237.89387566
 C      4   2   1     2.648485238213   122.80299505   333.54895849
 C      5   4   2     2.639597775499   120.56169254   180.46583912
 C      6   5   4     2.633007876504   120.14472864   359.94900948
 C      7   6   5     2.631426743073   119.92636442   359.93209636
 C      8   7   6     2.636265008201   119.92747816     0.08369921
 C      2   1   3     3.380540935525   106.15564343   121.27486818
 C     10   2   1     2.649055796735   121.67819765    65.91043482
 C     11  10   2     2.638448790520   120.54143076   180.31469967
 C     12  11  10     2.633246825200   120.08828412     0.05519682
 C     13  12  11     2.632283199869   119.95394320   359.93912203
 C     14  13  12     2.636539313245   119.96678085     0.02817085
 H      1   2   3     2.065421445897   111.46267407   184.45429383
 H      1   2   3     2.066449518075   110.05294296    63.52722142
 H      1   2   3     2.067128975627   109.64583170   304.25003250
 H      5   4   2     2.052289962512   120.85456752     0.39965710
 H      6   5   4     2.054602296157   120.05114261   180.04761569
 H      7   6   5     2.054026504649   120.09792068   180.10746325
 H      8   7   6     2.054165602327   120.14675683   180.26050715
 H      9   8   7     2.058637549707   119.59029549   180.40946611
 H     11  10   2     2.053414753414   120.53535180     0.65266814
 H     12  11  10     2.054429436778   120.03812124   180.25081178
 H     13  12  11     2.054037810616   120.06907121   180.10805462
 H     14  13  12     2.054232519503   120.11873903   180.14315653
 H     15  14  13     2.058532775800   119.56611496   180.12224400

---------------------
BASIS SET INFORMATION
---------------------
There are 4 groups of distinct atoms

 Group   1 Type C   : 7s4p1d contracted to 3s2p1d pattern {511/31/1}
 Group   2 Type P   : 10s7p1d contracted to 4s3p1d pattern {5311/511/1}
 Group   3 Type O   : 7s4p1d contracted to 3s2p1d pattern {511/31/1}
 Group   4 Type H   : 4s1p contracted to 2s1p pattern {31/1}

Atom   0C    basis set group =>   1
Atom   1P    basis set group =>   2
Atom   2O    basis set group =>   3
Atom   3C    basis set group =>   1
Atom   4C    basis set group =>   1
Atom   5C    basis set group =>   1
Atom   6C    basis set group =>   1
Atom   7C    basis set group =>   1
Atom   8C    basis set group =>   1
Atom   9C    basis set group =>   1
Atom  10C    basis set group =>   1
Atom  11C    basis set group =>   1
Atom  12C    basis set group =>   1
Atom  13C    basis set group =>   1
Atom  14C    basis set group =>   1
Atom  15H    basis set group =>   4
Atom  16H    basis set group =>   4
Atom  17H    basis set group =>   4
Atom  18H    basis set group =>   4
Atom  19H    basis set group =>   4
Atom  20H    basis set group =>   4
Atom  21H    basis set group =>   4
Atom  22H    basis set group =>   4
Atom  23H    basis set group =>   4
Atom  24H    basis set group =>   4
Atom  25H    basis set group =>   4
Atom  26H    basis set group =>   4
Atom  27H    basis set group =>   4
---------------------------------
AUXILIARY/J BASIS SET INFORMATION
---------------------------------
There are 4 groups of distinct atoms

 Group   1 Type C   : 12s5p4d2f1g contracted to 6s4p3d1f1g pattern {711111/2111/211/2/1}
 Group   2 Type P   : 14s5p5d2f1g contracted to 8s4p3d1f1g pattern {71111111/2111/311/2/1}
 Group   3 Type O   : 12s5p4d2f1g contracted to 6s4p3d1f1g pattern {711111/2111/211/2/1}
 Group   4 Type H   : 5s2p1d contracted to 3s1p1d pattern {311/2/1}

Atom   0C    basis set group =>   1
Atom   1P    basis set group =>   2
Atom   2O    basis set group =>   3
Atom   3C    basis set group =>   1
Atom   4C    basis set group =>   1
Atom   5C    basis set group =>   1
Atom   6C    basis set group =>   1
Atom   7C    basis set group =>   1
Atom   8C    basis set group =>   1
Atom   9C    basis set group =>   1
Atom  10C    basis set group =>   1
Atom  11C    basis set group =>   1
Atom  12C    basis set group =>   1
Atom  13C    basis set group =>   1
Atom  14C    basis set group =>   1
Atom  15H    basis set group =>   4
Atom  16H    basis set group =>   4
Atom  17H    basis set group =>   4
Atom  18H    basis set group =>   4
Atom  19H    basis set group =>   4
Atom  20H    basis set group =>   4
Atom  21H    basis set group =>   4
Atom  22H    basis set group =>   4
Atom  23H    basis set group =>   4
Atom  24H    basis set group =>   4
Atom  25H    basis set group =>   4
Atom  26H    basis set group =>   4
Atom  27H    basis set group =>   4


           ************************************************************
           *        Program running with 6 parallel MPI-processes     *
           *              working on a common directory               *
           ************************************************************
------------------------------------------------------------------------------
                             ORCA STARTUP CALCULATIONS
                           -- RI-GTO INTEGRALS CHOSEN --
------------------------------------------------------------------------------
------------------------------------------------------------------------------
                   ___                                                        
                  /   \      - P O W E R E D   B Y -                         
                 /     \                                                     
                 |  |  |   _    _      __       _____    __    __             
                 |  |  |  | |  | |    /  \     |  _  \  |  |  /  |          
                  \  \/   | |  | |   /    \    | | | |  |  | /  /          
                 / \  \   | |__| |  /  /\  \   | |_| |  |  |/  /          
                |  |  |   |  __  | /  /__\  \  |    /   |      \           
                |  |  |   | |  | | |   __   |  |    \   |  |\   \          
                \     /   | |  | | |  |  |  |  | |\  \  |  | \   \       
                 \___/    |_|  |_| |__|  |__|  |_| \__\ |__|  \__/        
                                                                              
                      - O R C A' S   B I G   F R I E N D -                    
                                      &                                       
                       - I N T E G R A L  F E E D E R -                       
                                                                              
 v1 FN, 2020, v2 2021, v3 2022-2024                                           
------------------------------------------------------------------------------


----------------------
SHARK INTEGRAL PACKAGE
----------------------

Number of atoms                             ...     28
Number of basis functions                   ...    279
Number of shells                            ...    131
Maximum angular momentum                    ...      2
Integral batch strategy                     ... SHARK/LIBINT Hybrid
RI-J (if used) integral strategy            ... SPLIT-RIJ (Revised 2003 algorithm where possible)
Printlevel                                  ...      1
Contraction scheme used                     ... SEGMENTED contraction
Prescreening option                         ... SCHWARTZ
   Thresh                                   ... 2.500e-11
   Tcut                                     ... 2.500e-12
   Tpresel                                  ... 2.500e-12 
Coulomb Range Separation                    ... NOT USED
Exchange Range Separation                   ... NOT USED
Multipole approximations                    ... NOT USED
Finite Nucleus Model                        ... NOT USED
CABS basis                                  ... NOT available
Auxiliary Coulomb fitting basis             ... AVAILABLE
   # of basis functions in Aux-J            ...    880
   # of shells in Aux-J                     ...    292
   Maximum angular momentum in Aux-J        ...      4
Auxiliary J/K fitting basis                 ... NOT available
Auxiliary Correlation fitting basis         ... NOT available
Auxiliary 'external' fitting basis          ... NOT available

Checking pre-screening integrals            ... done (  0.0 sec) Dimension = 131
Check shell pair data                       ... done (  0.0 sec)
Shell pair information
Shell pair cut-off parameter TPreSel        ...   2.5e-12
Total number of shell pairs                 ...      8646
Shell pairs after pre-screening             ...      7193
Total number of primitive shell pairs       ...     31870
Primitive shell pairs kept                  ...     17700
          la=0 lb=0:   2224 shell pairs
          la=1 lb=0:   2680 shell pairs
          la=1 lb=1:    829 shell pairs
          la=2 lb=0:    862 shell pairs
          la=2 lb=1:    514 shell pairs
          la=2 lb=2:     84 shell pairs

Calculating one electron integrals          ... done (  0.0 sec)
Calculating RI/J V-Matrix + Cholesky decomp.... done (  0.0 sec)
Calculating Nuclear repulsion               ... done (  0.0 sec) ENN=   1046.356816524941 Eh

Diagonalization of the overlap matrix:
Smallest eigenvalue                        ... 2.899e-04
Time for diagonalization                   ...    0.009 sec
Threshold for overlap eigenvalues          ... 1.000e-07
Number of eigenvalues below threshold      ... 0
Time for construction of square roots      ...    0.008 sec
Total time needed                          ...    0.019 sec

-------------------
DFT GRID GENERATION
-------------------

General Integration Accuracy     IntAcc      ... 4.388
Radial Grid Type                 RadialGrid  ... OptM3 with GC (2021)
Angular Grid (max. ang.)         AngularGrid ... 4 (Lebedev-302)
Angular grid pruning method      GridPruning ... 4 (adaptive)
Weight generation scheme         WeightScheme... mBecke (2022)
Basis function cutoff            BFCut       ... 1.0000e-11
Integration weight cutoff        WCut        ... 1.0000e-14
Partially contracted basis set               ... off
Rotationally invariant grid construction     ... off
Angular grids for H and He will be reduced by one unit

Total number of grid points                  ...   132785
Total number of batches                      ...     2088
Average number of points per batch           ...       63
Average number of grid points per atom       ...     4742
Initializing property integral containers    ... done (  0.0 sec)

SHARK setup successfully completed in   0.9 seconds

Maximum memory used throughout the entire STARTUP-calculation: 36.1 MB


           ************************************************************
           *        Program running with 6 parallel MPI-processes     *
           *              working on a common directory               *
           ************************************************************
-------------------------------------------------------------------------------
                                 ORCA GUESS
                   Start orbitals & Density for SCF / CASSCF
-------------------------------------------------------------------------------

------------
SCF SETTINGS
------------
Hamiltonian:
 Density Functional     Method          .... DFT(GTOs)
 Exchange Functional    Exchange        .... B88
   X-Alpha parameter    XAlpha          ....  0.666667
   Becke's b parameter  XBeta           ....  0.004200
 Correlation Functional Correlation     .... P86
 LDA part of GGA corr.  LDAOpt          .... PW91-LDA
 Gradients option       PostSCFGGA      .... off
   NL short-range parameter             ....  4.400000
 RI-approximation to the Coulomb term is turned on
   Number of AuxJ basis functions       .... 880


General Settings:
 Integral files         IntName         .... data/geom_opt_PO_BP86/73879/73879
 Hartree-Fock type      HFTyp           .... RHF
 Total Charge           Charge          ....    0
 Multiplicity           Mult            ....    1
 Number of Electrons    NEL             ....  114
 Basis Dimension        Dim             ....  279
 Nuclear Repulsion      ENuc            ....   1046.3568165249 Eh

Convergence Acceleration:
 AO-DIIS                CNVDIIS         .... on
   Start iteration      DIISMaxIt       ....    12
   Startup error        DIISStart       ....  0.200000
   # of expansion vecs  DIISMaxEq       ....     5
   Bias factor          DIISBfac        ....   1.050
   Max. coefficient     DIISMaxC        ....  10.000
 MO-DIIS                CNVKDIIS        .... off
 Trust-Rad. Augm. Hess. CNVTRAH         .... auto
   Auto Start mean grad. ratio tolernc. ....  1.125000
   Auto Start start iteration           ....    50
   Auto Start num. interpolation iter.  ....    10
   Max. Number of Micro iterations      ....    24
   Max. Number of Macro iterations      .... Maxiter - #DIIS iter
   Number of Davidson start vectors     ....     2
   Converg. threshold    (grad. norm)   ....   1.000e-05
   Grad. Scal. Fac. for Micro threshold ....   0.100
   Minimum threshold for Micro iter.    ....   1.000e-02
   NR start threshold (gradient norm)   ....   1.000e-04
   Initial trust radius                 ....   0.400
   Minimum AH scaling param. (alpha)    ....   1.000
   Maximum AH scaling param. (alpha)    .... 1000.000
   Quad. conv. algorithm                .... NR
   White noise on init. David. guess    .... on
   Maximum white noise                  ....   0.010
   Pseudo random numbers                .... off
   Inactive MOs                         .... canonical
   Orbital update algorithm             .... Taylor
   Preconditioner                       .... Diag
   Full preconditioner red. dimension   ....   250
 SOSCF                  CNVSOSCF        .... on
   Start iteration      SOSCFMaxIt      ....   150
   Startup grad/error   SOSCFStart      ....  0.003300
   Hessian update       SOSCFHessUp     .... L-BFGS
 Level Shifting         CNVShift        .... on
   Level shift para.    LevelShift      ....    0.2500
   Turn off err/grad.   ShiftErr        ....    0.0010
 Zerner damping         CNVZerner       .... off
 Static damping         CNVDamp         .... on
   Fraction old density DampFac         ....    0.7000
   Max. Damping (<1)    DampMax         ....    0.9800
   Min. Damping (>=0)   DampMin         ....    0.0000
   Turn off err/grad.   DampErr         ....    0.1000

SCF Procedure:
 Maximum # iterations   MaxIter         ....   125
 SCF integral mode      SCFMode         .... Direct
   Integral package                     .... SHARK and LIBINT hybrid scheme
 Reset frequency        DirectResetFreq ....    20
 Integral Threshold     Thresh          ....  2.500e-11 Eh
 Primitive CutOff       TCut            ....  2.500e-12 Eh

Convergence Tolerance:
 Convergence Check Mode ConvCheckMode   .... Total+1el-Energy
 Convergence forced     ConvForced      .... 0
 Energy Change          TolE            ....  1.000e-08 Eh
 1-El. energy change                    ....  1.000e-05 Eh
 Orbital Gradient       TolG            ....  1.000e-05
 Orbital Rotation angle TolX            ....  1.000e-05
 DIIS Error             TolErr          ....  5.000e-07

------------------------------
INITIAL GUESS: MODEL POTENTIAL
------------------------------
Loading Hartree-Fock densities                     ... done
Calculating cut-offs                               ... done
Initializing the effective Hamiltonian             ... done
Setting up the integral package (SHARK)            ... done
Starting the Coulomb interaction                   ... done (   0.1 sec)
Making the grid                                    ... done (   0.2 sec)
Mapping shells                                     ... done
Starting the XC term evaluation                    ... done (   0.1 sec)
  promolecular density results
     # of electrons  =    113.993376823
     EX              =   -101.564654908
     EC              =     -4.242221561
     EX+EC           =   -105.806876469
Transforming the Hamiltonian                       ... done (   0.0 sec)
Diagonalizing the Hamiltonian                      ... done (   0.0 sec)
Back transforming the eigenvectors                 ... done (   0.0 sec)
Now organizing SCF variables                       ... done
                      ------------------
                      INITIAL GUESS DONE (   0.4 sec)
                      ------------------
             **** ENERGY FILE WAS UPDATED (data/geom_opt_PO_BP86/73879/73879.en.tmp) ****
Finished Guess after   0.5 sec
Maximum memory used throughout the entire GUESS-calculation: 20.0 MB


           ************************************************************
           *        Program running with 6 parallel MPI-processes     *
           *              working on a common directory               *
           ************************************************************

-------------------------------------------------------------------------------------------
                                      ORCA LEAN-SCF
                              memory conserving SCF solver
-------------------------------------------------------------------------------------------

----------------------------------------D-I-I-S--------------------------------------------
Iteration    Energy (Eh)           Delta-E    RMSDP     MaxDP     DIISErr   Damp  Time(sec)
-------------------------------------------------------------------------------------------
               ***  Starting incremental Fock matrix formation  ***
    1    -918.9329487147438158     0.00e+00  4.26e-03  1.54e-01  3.38e-01  0.700   0.6
    2    -919.1248826878068030    -1.92e-01  2.43e-03  7.20e-02  8.09e-02  0.700   0.5
                               ***Turning on AO-DIIS***
    3    -919.1830554007667615    -5.82e-02  7.90e-04  1.92e-02  2.86e-02  0.700   0.5
    4    -919.2241081026052143    -4.11e-02  1.43e-03  4.58e-02  1.73e-02  0.000   0.6
    5    -919.3158742285615972    -9.18e-02  3.45e-04  9.88e-03  8.49e-03  0.000   0.6
                              *** Initializing SOSCF ***
---------------------------------------S-O-S-C-F--------------------------------------
Iteration    Energy (Eh)           Delta-E    RMSDP     MaxDP     MaxGrad    Time(sec)
--------------------------------------------------------------------------------------
    6    -919.3168743497803916    -1.00e-03  1.17e-04  2.32e-03  2.51e-03     1.0
               *** Restarting incremental Fock matrix formation ***
    7    -919.3169312542959233    -5.69e-05  1.11e-04  3.71e-03  3.72e-04     0.7
    8    -919.3169050665110262     2.62e-05  5.81e-05  1.40e-03  1.14e-03     0.5
    9    -919.3169404637387743    -3.54e-05  3.75e-05  1.42e-03  1.70e-04     0.6
   10    -919.3169379943740296     2.47e-06  2.58e-05  8.89e-04  4.32e-04     0.5
   11    -919.3169413277917101    -3.33e-06  1.49e-05  7.69e-04  9.20e-05     0.6
   12    -919.3169409120362161     4.16e-07  8.85e-06  4.16e-04  1.07e-04     0.5
   13    -919.3169415509180453    -6.39e-07  3.62e-06  1.18e-04  1.75e-05     0.5
   14    -919.3169415102224775     4.07e-08  2.25e-06  6.94e-05  2.87e-05     0.5
   15    -919.3169415694233066    -5.92e-08  1.09e-06  3.07e-05  6.46e-06     0.5
   16    -919.3169415527222554     1.67e-08  7.01e-07  1.78e-05  1.42e-05     0.5
   17    -919.3169415632955861    -1.06e-08  2.82e-07  1.17e-05  8.49e-07     0.5
                  *** Gradient check signals convergence ***

               *****************************************************
               *                     SUCCESS                       *
               *           SCF CONVERGED AFTER  17 CYCLES          *
               *****************************************************

             **** ENERGY FILE WAS UPDATED (data/geom_opt_PO_BP86/73879/73879.en.tmp) ****

----------------
TOTAL SCF ENERGY
----------------

Total Energy       :       -919.31694156329559 Eh          -25015.88576 eV

Components:
Nuclear Repulsion  :       1046.35681652494077 Eh           28472.81651 eV
Electronic Energy  :      -1965.67375808823635 Eh          -53488.70227 eV
One Electron Energy:      -3331.91661836011781 Eh          -90666.06056 eV
Two Electron Energy:       1366.24286027188145 Eh           37177.35829 eV

Virial components:
Potential Energy   :      -1831.18715138591051 Eh          -49829.13565 eV
Kinetic Energy     :        911.87020982261481 Eh           24813.24989 eV
Virial Ratio       :          2.00816643822823

DFT components:
N(Alpha)           :       56.999990412678 electrons
N(Beta)            :       56.999990412678 electrons
N(Total)           :      113.999980825356 electrons
E(X)               :     -103.013883144163 Eh       
E(C)               :       -4.249864921420 Eh       
E(XC)              :     -107.263748065583 Eh       

---------------
SCF CONVERGENCE
---------------

  Last Energy change         ...    1.0573e-08  Tolerance :   1.0000e-08
  Last MAX-Density change    ...    1.1718e-05  Tolerance :   1.0000e-07
  Last RMS-Density change    ...    2.8164e-07  Tolerance :   5.0000e-09
  Last DIIS Error            ...    2.5142e-03  Tolerance :   5.0000e-07
  Last Orbital Gradient      ...    8.4910e-07  Tolerance :   1.0000e-05
  Last Orbital Rotation      ...    4.1431e-06  Tolerance :   1.0000e-05


----------------
ORBITAL ENERGIES
----------------

  NO   OCC          E(Eh)            E(eV) 
   0   2.0000     -76.406601     -2079.1293 
   1   2.0000     -18.699688      -508.8444 
   2   2.0000      -9.934190      -270.3231 
   3   2.0000      -9.931592      -270.2524 
   4   2.0000      -9.929062      -270.1835 
   5   2.0000      -9.928854      -270.1779 
   6   2.0000      -9.928691      -270.1734 
   7   2.0000      -9.927460      -270.1399 
   8   2.0000      -9.927192      -270.1326 
   9   2.0000      -9.926854      -270.1234 
  10   2.0000      -9.926834      -270.1229 
  11   2.0000      -9.925736      -270.0930 
  12   2.0000      -9.924551      -270.0607 
  13   2.0000      -9.923923      -270.0437 
  14   2.0000      -9.914466      -269.7863 
  15   2.0000      -6.366851      -173.2508 
  16   2.0000      -4.587968      -124.8450 
  17   2.0000      -4.587806      -124.8406 
  18   2.0000      -4.587737      -124.8387 
  19   2.0000      -0.841969       -22.9111 
  20   2.0000      -0.786726       -21.4079 
  21   2.0000      -0.784076       -21.3358 
  22   2.0000      -0.701671       -19.0934 
  23   2.0000      -0.683169       -18.5900 
  24   2.0000      -0.681996       -18.5580 
  25   2.0000      -0.680222       -18.5098 
  26   2.0000      -0.651639       -17.7320 
  27   2.0000      -0.575323       -15.6553 
  28   2.0000      -0.555508       -15.1162 
  29   2.0000      -0.552505       -15.0344 
  30   2.0000      -0.548141       -14.9157 
  31   2.0000      -0.506708       -13.7882 
  32   2.0000      -0.481288       -13.0965 
  33   2.0000      -0.455487       -12.3944 
  34   2.0000      -0.422320       -11.4919 
  35   2.0000      -0.417139       -11.3509 
  36   2.0000      -0.414241       -11.2721 
  37   2.0000      -0.405877       -11.0445 
  38   2.0000      -0.395747       -10.7688 
  39   2.0000      -0.388505       -10.5718 
  40   2.0000      -0.384638       -10.4665 
  41   2.0000      -0.382655       -10.4126 
  42   2.0000      -0.367292        -9.9945 
  43   2.0000      -0.360284        -9.8038 
  44   2.0000      -0.344598        -9.3770 
  45   2.0000      -0.341365        -9.2890 
  46   2.0000      -0.322876        -8.7859 
  47   2.0000      -0.316723        -8.6185 
  48   2.0000      -0.313131        -8.5207 
  49   2.0000      -0.306391        -8.3373 
  50   2.0000      -0.289142        -7.8680 
  51   2.0000      -0.252272        -6.8647 
  52   2.0000      -0.244578        -6.6553 
  53   2.0000      -0.241824        -6.5804 
  54   2.0000      -0.239308        -6.5119 
  55   2.0000      -0.207765        -5.6536 
  56   2.0000      -0.203302        -5.5321 
  57   0.0000      -0.071938        -1.9575 
  58   0.0000      -0.059317        -1.6141 
  59   0.0000      -0.051891        -1.4120 
  60   0.0000      -0.049564        -1.3487 
  61   0.0000       0.023787         0.6473 
  62   0.0000       0.037583         1.0227 
  63   0.0000       0.044668         1.2155 
  64   0.0000       0.055116         1.4998 
  65   0.0000       0.069389         1.8882 
  66   0.0000       0.075158         2.0452 
  67   0.0000       0.079786         2.1711 
*Only the first 10 virtual orbitals were printed.

                    ********************************
                    * MULLIKEN POPULATION ANALYSIS *
                    ********************************

-----------------------
MULLIKEN ATOMIC CHARGES
-----------------------
   0 C :   -0.128768
   1 P :    0.501088
   2 O :   -0.468844
   3 C :   -0.076499
   4 C :   -0.022777
   5 C :    0.015147
   6 C :    0.014632
   7 C :    0.013287
   8 C :    0.008942
   9 C :   -0.084432
  10 C :   -0.001114
  11 C :    0.010395
  12 C :    0.015273
  13 C :    0.011647
  14 C :   -0.006679
  15 H :    0.037496
  16 H :    0.075298
  17 H :    0.075534
  18 H :   -0.011252
  19 H :   -0.002153
  20 H :    0.002198
  21 H :    0.004203
  22 H :    0.013668
  23 H :   -0.012322
  24 H :   -0.002213
  25 H :    0.001335
  26 H :    0.002846
  27 H :    0.014063
Sum of atomic charges:   -0.0000000

--------------------------------
MULLIKEN REDUCED ORBITAL CHARGES
--------------------------------
  0 C s       :     3.033638  s :     3.033638
      pz      :     1.024137  p :     3.076426
      px      :     1.046410
      py      :     1.005879
      dz2     :     0.004206  d :     0.018704
      dxz     :     0.001614
      dyz     :     0.005123
      dx2y2   :     0.002304
      dxy     :     0.005457

  1 P s       :     5.270679  s :     5.270679
      pz      :     2.931729  p :     8.735330
      px      :     2.936662
      py      :     2.866938
      dz2     :     0.145360  d :     0.492903
      dxz     :     0.054444
      dyz     :     0.078086
      dx2y2   :     0.068584
      dxy     :     0.146428

  2 O s       :     3.820217  s :     3.820217
      pz      :     1.554301  p :     4.636834
      px      :     1.641217
      py      :     1.441316
      dz2     :     0.002259  d :     0.011793
      dxz     :     0.001269
      dyz     :     0.003717
      dx2y2   :     0.002398
      dxy     :     0.002150

  3 C s       :     3.048965  s :     3.048965
      pz      :     0.987040  p :     2.994193
      px      :     0.991635
      py      :     1.015517
      dz2     :     0.009821  d :     0.033341
      dxz     :     0.007768
      dyz     :     0.007390
      dx2y2   :     0.003261
      dxy     :     0.005101

  4 C s       :     3.218346  s :     3.218346
      pz      :     0.881867  p :     2.771356
      px      :     0.932248
      py      :     0.957242
      dz2     :     0.007948  d :     0.033074
      dxz     :     0.008709
      dyz     :     0.005574
      dx2y2   :     0.005878
      dxy     :     0.004965

  5 C s       :     3.168090  s :     3.168090
      pz      :     0.879215  p :     2.784073
      px      :     0.960848
      py      :     0.944010
      dz2     :     0.007561  d :     0.032690
      dxz     :     0.008324
      dyz     :     0.006992
      dx2y2   :     0.005058
      dxy     :     0.004755

  6 C s       :     3.169996  s :     3.169996
      pz      :     0.966331  p :     2.782299
      px      :     0.891995
      py      :     0.923973
      dz2     :     0.010254  d :     0.033073
      dxz     :     0.008071
      dyz     :     0.007287
      dx2y2   :     0.002803
      dxy     :     0.004658

  7 C s       :     3.171438  s :     3.171438
      pz      :     0.872028  p :     2.782477
      px      :     0.940919
      py      :     0.969530
      dz2     :     0.007860  d :     0.032798
      dxz     :     0.008726
      dyz     :     0.005811
      dx2y2   :     0.005480
      dxy     :     0.004922

  8 C s       :     3.238993  s :     3.238993
      pz      :     0.907299  p :     2.719406
      px      :     0.909972
      py      :     0.902136
      dz2     :     0.007434  d :     0.032658
      dxz     :     0.008275
      dyz     :     0.006827
      dx2y2   :     0.005288
      dxy     :     0.004833

  9 C s       :     3.052017  s :     3.052017
      pz      :     0.998705  p :     2.999147
      px      :     1.004679
      py      :     0.995763
      dz2     :     0.007066  d :     0.033267
      dxz     :     0.005129
      dyz     :     0.006495
      dx2y2   :     0.006376
      dxy     :     0.008201

 10 C s       :     3.220628  s :     3.220628
      pz      :     0.905848  p :     2.747430
      px      :     0.892365
      py      :     0.949216
      dz2     :     0.004426  d :     0.033056
      dxz     :     0.006663
      dyz     :     0.005891
      dx2y2   :     0.008038
      dxy     :     0.008037

 11 C s       :     3.169436  s :     3.169436
      pz      :     0.942766  p :     2.787439
      px      :     0.966622
      py      :     0.878051
      dz2     :     0.005221  d :     0.032730
      dxz     :     0.006709
      dyz     :     0.005944
      dx2y2   :     0.008086
      dxy     :     0.006769

 12 C s       :     3.169126  s :     3.169126
      pz      :     0.962337  p :     2.782529
      px      :     0.886077
      py      :     0.934114
      dz2     :     0.006908  d :     0.033073
      dxz     :     0.005272
      dyz     :     0.006501
      dx2y2   :     0.006339
      dxy     :     0.008053

 13 C s       :     3.172544  s :     3.172544
      pz      :     0.911112  p :     2.783035
      px      :     0.920163
      py      :     0.951760
      dz2     :     0.004515  d :     0.032774
      dxz     :     0.006608
      dyz     :     0.005835
      dx2y2   :     0.007903
      dxy     :     0.007913

 14 C s       :     3.252637  s :     3.252637
      pz      :     0.936025  p :     2.721319
      px      :     0.921135
      py      :     0.864159
      dz2     :     0.005290  d :     0.032724
      dxz     :     0.006812
      dyz     :     0.005822
      dx2y2   :     0.007964
      dxy     :     0.006836

 15 H s       :     0.938288  s :     0.938288
      pz      :     0.008918  p :     0.024217
      px      :     0.005781
      py      :     0.009519

 16 H s       :     0.900859  s :     0.900859
      pz      :     0.005809  p :     0.023843
      px      :     0.010678
      py      :     0.007356

 17 H s       :     0.900747  s :     0.900747
      pz      :     0.005052  p :     0.023719
      px      :     0.010120
      py      :     0.008547

 18 H s       :     0.988492  s :     0.988492
      pz      :     0.011576  p :     0.022759
      px      :     0.006391
      py      :     0.004792

 19 H s       :     0.979748  s :     0.979748
      pz      :     0.010296  p :     0.022405
      px      :     0.005238
      py      :     0.006872

 20 H s       :     0.975491  s :     0.975491
      pz      :     0.003799  p :     0.022311
      px      :     0.010553
      py      :     0.007960

 21 H s       :     0.973457  s :     0.973457
      pz      :     0.011408  p :     0.022340
      px      :     0.006404
      py      :     0.004528

 22 H s       :     0.963704  s :     0.963704
      pz      :     0.010296  p :     0.022628
      px      :     0.005134
      py      :     0.007199

 23 H s       :     0.989600  s :     0.989600
      pz      :     0.009200  p :     0.022722
      px      :     0.008248
      py      :     0.005274

 24 H s       :     0.979808  s :     0.979808
      pz      :     0.006810  p :     0.022405
      px      :     0.004380
      py      :     0.011215

 25 H s       :     0.976359  s :     0.976359
      pz      :     0.004690  p :     0.022306
      px      :     0.010734
      py      :     0.006881

 26 H s       :     0.974820  s :     0.974820
      pz      :     0.009288  p :     0.022334
      px      :     0.008031
      py      :     0.005014

 27 H s       :     0.963071  s :     0.963071
      pz      :     0.006571  p :     0.022866
      px      :     0.004489
      py      :     0.011807



                     *******************************
                     * LOEWDIN POPULATION ANALYSIS *
                     *******************************

----------------------
LOEWDIN ATOMIC CHARGES
----------------------
   0 C :   -0.215749
   1 P :    0.871572
   2 O :   -0.507711
   3 C :   -0.185912
   4 C :   -0.033917
   5 C :   -0.026271
   6 C :   -0.016551
   7 C :   -0.022440
   8 C :   -0.004710
   9 C :   -0.189711
  10 C :   -0.027358
  11 C :   -0.026966
  12 C :   -0.017199
  13 C :   -0.024924
  14 C :   -0.010079
  15 H :    0.025666
  16 H :    0.044433
  17 H :    0.049088
  18 H :    0.025002
  19 H :    0.031973
  20 H :    0.032609
  21 H :    0.034272
  22 H :    0.036123
  23 H :    0.025167
  24 H :    0.031577
  25 H :    0.032084
  26 H :    0.033459
  27 H :    0.036474

-------------------------------
LOEWDIN REDUCED ORBITAL CHARGES
-------------------------------
  0 C s       :     2.895220  s :     2.895220
      pz      :     1.093322  p :     3.268669
      px      :     1.093782
      py      :     1.081565
      dz2     :     0.012282  d :     0.051861
      dxz     :     0.004026
      dyz     :     0.014297
      dx2y2   :     0.006004
      dxy     :     0.015251

  1 P s       :     4.927272  s :     4.927272
      pz      :     2.832016  p :     8.515551
      px      :     2.866195
      py      :     2.817340
      dz2     :     0.207952  d :     0.685605
      dxz     :     0.063368
      dyz     :     0.111681
      dx2y2   :     0.089119
      dxy     :     0.213484

  2 O s       :     3.662605  s :     3.662605
      pz      :     1.619960  p :     4.826763
      px      :     1.672785
      py      :     1.534019
      dz2     :     0.002583  d :     0.018343
      dxz     :     0.001546
      dyz     :     0.007553
      dx2y2   :     0.004144
      dxy     :     0.002516

  3 C s       :     2.910373  s :     2.910373
      pz      :     1.085434  p :     3.186351
      px      :     1.060697
      py      :     1.040219
      dz2     :     0.027938  d :     0.089189
      dxz     :     0.022557
      dyz     :     0.019503
      dx2y2   :     0.006793
      dxy     :     0.012398

  4 C s       :     2.865127  s :     2.865127
      pz      :     1.041058  p :     3.077988
      px      :     1.030409
      py      :     1.006521
      dz2     :     0.022879  d :     0.090802
      dxz     :     0.024109
      dyz     :     0.015629
      dx2y2   :     0.013209
      dxy     :     0.014975

  5 C s       :     2.863744  s :     2.863744
      pz      :     1.045774  p :     3.073801
      px      :     1.028631
      py      :     0.999396
      dz2     :     0.022049  d :     0.088726
      dxz     :     0.023616
      dyz     :     0.017705
      dx2y2   :     0.011558
      dxy     :     0.013798

  6 C s       :     2.864461  s :     2.864461
      pz      :     1.064329  p :     3.062694
      px      :     1.009831
      py      :     0.988533
      dz2     :     0.029369  d :     0.089396
      dxz     :     0.023055
      dyz     :     0.019526
      dx2y2   :     0.005757
      dxy     :     0.011689

  7 C s       :     2.863486  s :     2.863486
      pz      :     1.042154  p :     3.069966
      px      :     1.024456
      py      :     1.003357
      dz2     :     0.022370  d :     0.088987
      dxz     :     0.023676
      dyz     :     0.016074
      dx2y2   :     0.012305
      dxy     :     0.014562

  8 C s       :     2.867052  s :     2.867052
      pz      :     1.046632  p :     3.048470
      px      :     1.018065
      py      :     0.983773
      dz2     :     0.021561  d :     0.089188
      dxz     :     0.024095
      dyz     :     0.017689
      dx2y2   :     0.012067
      dxy     :     0.013776

  9 C s       :     2.911489  s :     2.911489
      pz      :     1.051333  p :     3.188661
      px      :     1.069180
      py      :     1.068148
      dz2     :     0.016440  d :     0.089561
      dxz     :     0.015171
      dyz     :     0.018873
      dx2y2   :     0.017735
      dxy     :     0.021343

 10 C s       :     2.864894  s :     2.864894
      pz      :     1.004335  p :     3.071703
      px      :     1.031880
      py      :     1.035487
      dz2     :     0.011527  d :     0.090761
      dxz     :     0.017340
      dyz     :     0.016251
      dx2y2   :     0.021516
      dxy     :     0.024128

 11 C s       :     2.863608  s :     2.863608
      pz      :     1.014038  p :     3.074502
      px      :     1.040030
      py      :     1.020434
      dz2     :     0.012920  d :     0.088856
      dxz     :     0.019233
      dyz     :     0.015564
      dx2y2   :     0.021446
      dxy     :     0.019693

 12 C s       :     2.864755  s :     2.864755
      pz      :     1.012586  p :     3.063047
      px      :     1.019657
      py      :     1.030804
      dz2     :     0.016595  d :     0.089397
      dxz     :     0.015120
      dyz     :     0.018773
      dx2y2   :     0.017390
      dxy     :     0.021520

 13 C s       :     2.863782  s :     2.863782
      pz      :     1.004841  p :     3.072132
      px      :     1.030263
      py      :     1.037028
      dz2     :     0.011293  d :     0.089010
      dxz     :     0.016984
      dyz     :     0.016374
      dx2y2   :     0.021372
      dxy     :     0.022987

 14 C s       :     2.868329  s :     2.868329
      pz      :     0.999789  p :     3.052572
      px      :     1.028362
      py      :     1.024422
      dz2     :     0.013036  d :     0.089178
      dxz     :     0.019857
      dyz     :     0.015255
      dx2y2   :     0.021489
      dxy     :     0.019541

 15 H s       :     0.902003  s :     0.902003
      pz      :     0.029854  p :     0.072331
      px      :     0.014628
      py      :     0.027849

 16 H s       :     0.885152  s :     0.885152
      pz      :     0.017646  p :     0.070414
      px      :     0.032060
      py      :     0.020708

 17 H s       :     0.880756  s :     0.880756
      pz      :     0.014827  p :     0.070156
      px      :     0.030173
      py      :     0.025156

 18 H s       :     0.905203  s :     0.905203
      pz      :     0.036014  p :     0.069796
      px      :     0.019750
      py      :     0.014032

 19 H s       :     0.899805  s :     0.899805
      pz      :     0.031666  p :     0.068222
      px      :     0.015973
      py      :     0.020583

 20 H s       :     0.899334  s :     0.899334
      pz      :     0.012008  p :     0.068057
      px      :     0.032119
      py      :     0.023930

 21 H s       :     0.897614  s :     0.897614
      pz      :     0.035075  p :     0.068114
      px      :     0.019530
      py      :     0.013509

 22 H s       :     0.893536  s :     0.893536
      pz      :     0.032674  p :     0.070341
      px      :     0.016171
      py      :     0.021497

 23 H s       :     0.905437  s :     0.905437
      pz      :     0.028243  p :     0.069396
      px      :     0.024889
      py      :     0.016263

 24 H s       :     0.900214  s :     0.900214
      pz      :     0.020582  p :     0.068208
      px      :     0.013442
      py      :     0.034184

 25 H s       :     0.899873  s :     0.899873
      pz      :     0.014179  p :     0.068043
      px      :     0.032759
      py      :     0.021105

 26 H s       :     0.898404  s :     0.898404
      pz      :     0.028174  p :     0.068138
      px      :     0.024605
      py      :     0.015359

 27 H s       :     0.892132  s :     0.892132
      pz      :     0.020537  p :     0.071394
      px      :     0.013941
      py      :     0.036916



                      *****************************
                      * MAYER POPULATION ANALYSIS *
                      *****************************

  NA   - Mulliken gross atomic population
  ZA   - Total nuclear charge
  QA   - Mulliken gross atomic charge
  VA   - Mayer's total valence
  BVA  - Mayer's bonded valence
  FA   - Mayer's free valence

  ATOM       NA         ZA         QA         VA         BVA        FA
  0 C      6.1288     6.0000    -0.1288     3.8690     3.8690    -0.0000
  1 P     14.4989    15.0000     0.5011     4.8860     4.8860    -0.0000
  2 O      8.4688     8.0000    -0.4688     2.1243     2.1243    -0.0000
  3 C      6.0765     6.0000    -0.0765     3.6937     3.6937    -0.0000
  4 C      6.0228     6.0000    -0.0228     3.8952     3.8952    -0.0000
  5 C      5.9849     6.0000     0.0151     3.8598     3.8598    -0.0000
  6 C      5.9854     6.0000     0.0146     3.8313     3.8313    -0.0000
  7 C      5.9867     6.0000     0.0133     3.8340     3.8340    -0.0000
  8 C      5.9911     6.0000     0.0089     3.9074     3.9074    -0.0000
  9 C      6.0844     6.0000    -0.0844     3.7042     3.7042    -0.0000
 10 C      6.0011     6.0000    -0.0011     3.8580     3.8580    -0.0000
 11 C      5.9896     6.0000     0.0104     3.8641     3.8641     0.0000
 12 C      5.9847     6.0000     0.0153     3.8283     3.8283    -0.0000
 13 C      5.9884     6.0000     0.0116     3.8251     3.8251    -0.0000
 14 C      6.0067     6.0000    -0.0067     3.9047     3.9047    -0.0000
 15 H      0.9625     1.0000     0.0375     0.9965     0.9965    -0.0000
 16 H      0.9247     1.0000     0.0753     0.9985     0.9985    -0.0000
 17 H      0.9245     1.0000     0.0755     1.0021     1.0021    -0.0000
 18 H      1.0113     1.0000    -0.0113     0.9913     0.9913    -0.0000
 19 H      1.0022     1.0000    -0.0022     0.9788     0.9788    -0.0000
 20 H      0.9978     1.0000     0.0022     0.9786     0.9786     0.0000
 21 H      0.9958     1.0000     0.0042     0.9795     0.9795     0.0000
 22 H      0.9863     1.0000     0.0137     1.0098     1.0098    -0.0000
 23 H      1.0123     1.0000    -0.0123     0.9936     0.9936    -0.0000
 24 H      1.0022     1.0000    -0.0022     0.9786     0.9786    -0.0000
 25 H      0.9987     1.0000     0.0013     0.9785     0.9785    -0.0000
 26 H      0.9972     1.0000     0.0028     0.9794     0.9794    -0.0000
 27 H      0.9859     1.0000     0.0141     1.0164     1.0164    -0.0000

  Mayer bond orders larger than 0.100000
B(  0-C ,  1-P ) :   0.9914 B(  0-C , 15-H ) :   0.9253 B(  0-C , 16-H ) :   0.9522 
B(  0-C , 17-H ) :   0.9479 B(  1-P ,  2-O ) :   1.9122 B(  1-P ,  3-C ) :   0.8758 
B(  1-P ,  9-C ) :   0.8873 B(  3-C ,  4-C ) :   1.3561 B(  3-C ,  8-C ) :   1.3733 
B(  4-C ,  5-C ) :   1.3939 B(  4-C , 18-H ) :   0.9753 B(  5-C ,  6-C ) :   1.3847 
B(  5-C , 19-H ) :   0.9788 B(  6-C ,  7-C ) :   1.3729 B(  6-C , 20-H ) :   0.9807 
B(  7-C ,  8-C ) :   1.3873 B(  7-C , 21-H ) :   0.9831 B(  8-C , 22-H ) :   0.9779 
B(  9-C , 10-C ) :   1.3372 B(  9-C , 14-C ) :   1.3845 B( 10-C , 11-C ) :   1.4035 
B( 10-C , 23-H ) :   0.9769 B( 11-C , 12-C ) :   1.3776 B( 11-C , 24-H ) :   0.9800 
B( 12-C , 13-C ) :   1.3789 B( 12-C , 25-H ) :   0.9806 B( 13-C , 14-C ) :   1.3703 
B( 13-C , 26-H ) :   0.9836 B( 14-C , 27-H ) :   0.9803 

-------
TIMINGS
-------

Total SCF time: 0 days 0 hours 0 min 9 sec 

Total time                  ....       9.686 sec
Sum of individual times     ....       9.618 sec  ( 99.3%)

SCF preparation             ....       0.097 sec  (  1.0%)
Fock matrix formation       ....       8.717 sec  ( 90.0%)
  Startup                   ....       0.046 sec  (  0.5% of F)
  Split-RI-J                ....       2.632 sec  ( 30.2% of F)
  XC integration            ....       5.753 sec  ( 66.0% of F)
    Basis function eval.    ....       1.779 sec  ( 30.9% of XC)
    Density eval.           ....       1.506 sec  ( 26.2% of XC)
    XC-Functional eval.     ....       0.187 sec  (  3.3% of XC)
    XC-Potential eval.      ....       1.229 sec  ( 21.4% of XC)
Diagonalization             ....       0.000 sec  (  0.0%)
Density matrix formation    ....       0.111 sec  (  1.1%)
Total Energy calculation    ....       0.069 sec  (  0.7%)
Population analysis         ....       0.045 sec  (  0.5%)
Orbital Transformation      ....       0.043 sec  (  0.4%)
Orbital Orthonormalization  ....       0.000 sec  (  0.0%)
DIIS solution               ....       0.293 sec  (  3.0%)
SOSCF solution              ....       0.243 sec  (  2.5%)
Finished LeanSCF after   9.7 sec

Maximum memory used throughout the entire LEANSCF-calculation: 27.3 MB


-------------------------------------------------------------------------------
                          DFT DISPERSION CORRECTION                            
                                                                               
                              DFTD3 V3.1  Rev 1                                
                          USING Becke-Johnson damping                          
-------------------------------------------------------------------------------
The BP86 functional is recognized
Active option DFTDOPT                   ...         4   

molecular C6(AA) [au] = 10575.140801 


            DFT-D V3
 parameters
 s6 scaling factor         :     1.0000 
 a1 scaling factor         :     0.3946 
 s8 scaling factor         :     3.2822 
 a2 scaling factor         :     4.8516 
 ad hoc parameters k1-k3   :    16.0000     1.3333    -4.0000 

 Edisp/kcal,au: -38.638884824604  -0.061574975837 
 E6   /kcal   : -13.927256574 
 E8   /kcal   : -24.711628251 
 % E8         :  63.955335055 

-------------------------   ----------------
Dispersion correction           -0.061574976
-------------------------   ----------------


-------------------------   --------------------
FINAL SINGLE POINT ENERGY      -919.378516539133
-------------------------   --------------------



           ************************************************************
           *        Program running with 6 parallel MPI-processes     *
           *              working on a common directory               *
           ************************************************************
------------------------------------------------------------------------------
                         ORCA SCF GRADIENT CALCULATION
------------------------------------------------------------------------------

Nuc. rep. gradient        (SHARK) ... done (  0.0 sec)
HCore & Overlap gradient  (SHARK) ... done (  0.2 sec)
Split-RIJ-J gradient      (SHARK) ... done (  0.6 sec)
XC gradient                       ... done (  2.6 sec)
Dispersion correction             ... done (  0.1 sec)

-------------------
DISPERSION GRADIENT
-------------------

   1   C   :   -0.000035648   -0.000635665    0.000570686
   2   P   :    0.000032163   -0.000612358   -0.000041791
   3   O   :    0.000062293   -0.000654659   -0.000270363
   4   C   :    0.000716509    0.000091645   -0.000115780
   5   C   :    0.000605285    0.000138982   -0.000151420
   6   C   :    0.000453664    0.000305400    0.000148262
   7   C   :    0.000158535    0.000077585   -0.000029275
   8   C   :    0.000409866    0.000194893   -0.000223372
   9   C   :    0.000349373    0.000059151    0.000110291
  10   C   :   -0.000726270    0.000084658   -0.000214290
  11   C   :   -0.000688778    0.000118663   -0.000257213
  12   C   :   -0.000402835    0.000382370    0.000016162
  13   C   :   -0.000144718    0.000077825   -0.000040355
  14   C   :   -0.000417311    0.000091154   -0.000229667
  15   C   :   -0.000248897    0.000170155   -0.000007863
  16   H   :   -0.000051343   -0.000200262    0.000380330
  17   H   :   -0.000005559   -0.000286957    0.000249397
  18   H   :   -0.000046685   -0.000284537    0.000259255
  19   H   :    0.000190204    0.000129760    0.000321951
  20   H   :    0.000118436    0.000136261    0.000190391
  21   H   :    0.000192678    0.000140544   -0.000015028
  22   H   :    0.000140416    0.000040422   -0.000207823
  23   H   :    0.000188867   -0.000026932   -0.000285001
  24   H   :   -0.000225901    0.000322542    0.000179267
  25   H   :   -0.000084044    0.000220798    0.000109402
  26   H   :   -0.000196371    0.000126020   -0.000048503
  27   H   :   -0.000175149   -0.000059054   -0.000172408
  28   H   :   -0.000168782   -0.000148404   -0.000225243

Difference to translation invariance:
           :   -0.0000000000   -0.0000000000   -0.0000000000

Difference to rotation invariance:
           :    0.0000000000   -0.0000000000   -0.0000000000

Norm of the Dispersion gradient    ...    0.0025549113
RMS gradient                       ...    0.0002787637
MAX gradient                       ...    0.0007262696

------------------
CARTESIAN GRADIENT
[...]
      dyz     :     0.018619
      dx2y2   :     0.008988
      dxy     :     0.014264

  4 C s       :     2.872969  s :     2.872969
      pz      :     1.030164  p :     3.076610
      px      :     1.028488
      py      :     1.017958
      dz2     :     0.018674  d :     0.088044
      dxz     :     0.022123
      dyz     :     0.015752
      dx2y2   :     0.015121
      dxy     :     0.016374

  5 C s       :     2.872608  s :     2.872608
      pz      :     1.034473  p :     3.070973
      px      :     1.031652
      py      :     1.004847
      dz2     :     0.018165  d :     0.085795
      dxz     :     0.021349
      dyz     :     0.017254
      dx2y2   :     0.013848
      dxy     :     0.015178

  6 C s       :     2.874456  s :     2.874456
      pz      :     1.047044  p :     3.061289
      px      :     1.012940
      py      :     1.001305
      dz2     :     0.024497  d :     0.085557
      dxz     :     0.020219
      dyz     :     0.018637
      dx2y2   :     0.008443
      dxy     :     0.013761

  7 C s       :     2.872939  s :     2.872939
      pz      :     1.028999  p :     3.066527
      px      :     1.024252
      py      :     1.013276
      dz2     :     0.017817  d :     0.085971
      dxz     :     0.021457
      dyz     :     0.016036
      dx2y2   :     0.014604
      dxy     :     0.016057

  8 C s       :     2.875913  s :     2.875913
      pz      :     1.035367  p :     3.052298
      px      :     1.020572
      py      :     0.996358
      dz2     :     0.017611  d :     0.086687
      dxz     :     0.022252
      dyz     :     0.016945
      dx2y2   :     0.014530
      dxy     :     0.015349

  9 C s       :     2.922893  s :     2.922893
      pz      :     1.056929  p :     3.176319
      px      :     1.061560
      py      :     1.057829
      dz2     :     0.018418  d :     0.086252
      dxz     :     0.016265
      dyz     :     0.018649
      dx2y2   :     0.014240
      dxy     :     0.018678

 10 C s       :     2.872646  s :     2.872646
      pz      :     1.012972  p :     3.073166
      px      :     1.030212
      py      :     1.029981
      dz2     :     0.013089  d :     0.088020
      dxz     :     0.018476
      dyz     :     0.015718
      dx2y2   :     0.019340
      dxy     :     0.021396

 11 C s       :     2.872613  s :     2.872613
      pz      :     1.020510  p :     3.071107
      px      :     1.036486
      py      :     1.014112
      dz2     :     0.014077  d :     0.085851
      dxz     :     0.019793
      dyz     :     0.016024
      dx2y2   :     0.018200
      dxy     :     0.017758

 12 C s       :     2.874574  s :     2.874574
      pz      :     1.023842  p :     3.061937
      px      :     1.017224
      py      :     1.020871
      dz2     :     0.018365  d :     0.085563
      dxz     :     0.016413
      dyz     :     0.018486
      dx2y2   :     0.014127
      dxy     :     0.018172

 13 C s       :     2.873034  s :     2.873034
      pz      :     1.011765  p :     3.068060
      px      :     1.028577
      py      :     1.027718
      dz2     :     0.012927  d :     0.085979
      dxz     :     0.018209
      dyz     :     0.015775
      dx2y2   :     0.018804
      dxy     :     0.020264

 14 C s       :     2.876537  s :     2.876537
      pz      :     1.014097  p :     3.055241
      px      :     1.025871
      py      :     1.015273
      dz2     :     0.014420  d :     0.086682
      dxz     :     0.020951
      dyz     :     0.015371
      dx2y2   :     0.018025
      dxy     :     0.017915

 15 H s       :     0.895229  s :     0.895229
      pz      :     0.029035  p :     0.069382
      px      :     0.012959
      py      :     0.027387

 16 H s       :     0.884591  s :     0.884591
      pz      :     0.015810  p :     0.068269
      px      :     0.031706
      py      :     0.020753

 17 H s       :     0.882815  s :     0.882815
      pz      :     0.014234  p :     0.068353
      px      :     0.030489
      py      :     0.023630

 18 H s       :     0.907560  s :     0.907560
      pz      :     0.032652  p :     0.067080
      px      :     0.021684
      py      :     0.012745

 19 H s       :     0.899728  s :     0.899728
      pz      :     0.028536  p :     0.065989
      px      :     0.013490
      py      :     0.023964

 20 H s       :     0.899103  s :     0.899103
      pz      :     0.011493  p :     0.065846
      px      :     0.031220
      py      :     0.023133

 21 H s       :     0.897937  s :     0.897937
      pz      :     0.031926  p :     0.065896
      px      :     0.021778
      py      :     0.012192

 22 H s       :     0.890708  s :     0.890708
      pz      :     0.028245  p :     0.070385
      px      :     0.014650
      py      :     0.027490

 23 H s       :     0.906827  s :     0.906827
      pz      :     0.029278  p :     0.066896
      px      :     0.023169
      py      :     0.014449

 24 H s       :     0.900066  s :     0.900066
      pz      :     0.021805  p :     0.065953
      px      :     0.013125
      py      :     0.031023

 25 H s       :     0.899521  s :     0.899521
      pz      :     0.012952  p :     0.065827
      px      :     0.032195
      py      :     0.020679

 26 H s       :     0.898489  s :     0.898489
      pz      :     0.029586  p :     0.065906
      px      :     0.022572
      py      :     0.013748

 27 H s       :     0.890700  s :     0.890700
      pz      :     0.021477  p :     0.070832
      px      :     0.015077
      py      :     0.034277



                      *****************************
                      * MAYER POPULATION ANALYSIS *
                      *****************************

  NA   - Mulliken gross atomic population
  ZA   - Total nuclear charge
  QA   - Mulliken gross atomic charge
  VA   - Mayer's total valence
  BVA  - Mayer's bonded valence
  FA   - Mayer's free valence

  ATOM       NA         ZA         QA         VA         BVA        FA
  0 C      6.1627     6.0000    -0.1627     3.8571     3.8571    -0.0000
  1 P     14.4628    15.0000     0.5372     4.7779     4.7779    -0.0000
  2 O      8.4550     8.0000    -0.4550     2.1417     2.1417    -0.0000
  3 C      6.1062     6.0000    -0.1062     3.7285     3.7285    -0.0000
  4 C      6.0230     6.0000    -0.0230     3.8890     3.8890    -0.0000
  5 C      5.9984     6.0000     0.0016     3.8722     3.8722    -0.0000
  6 C      5.9924     6.0000     0.0076     3.8326     3.8326    -0.0000
  7 C      5.9959     6.0000     0.0041     3.8293     3.8293    -0.0000
  8 C      5.9985     6.0000     0.0015     3.8984     3.8984    -0.0000
  9 C      6.1088     6.0000    -0.1088     3.7368     3.7368    -0.0000
 10 C      6.0061     6.0000    -0.0061     3.8712     3.8712    -0.0000
 11 C      6.0007     6.0000    -0.0007     3.8716     3.8716    -0.0000
 12 C      5.9921     6.0000     0.0079     3.8311     3.8311    -0.0000
 13 C      5.9975     6.0000     0.0025     3.8261     3.8261    -0.0000
 14 C      6.0054     6.0000    -0.0054     3.8962     3.8962    -0.0000
 15 H      0.9455     1.0000     0.0545     0.9989     0.9989    -0.0000
 16 H      0.9164     1.0000     0.0836     0.9930     0.9930    -0.0000
 17 H      0.9179     1.0000     0.0821     0.9954     0.9954    -0.0000
 18 H      1.0029     1.0000    -0.0029     0.9877     0.9877    -0.0000
 19 H      0.9946     1.0000     0.0054     0.9791     0.9791    -0.0000
 20 H      0.9901     1.0000     0.0099     0.9789     0.9789    -0.0000
 21 H      0.9885     1.0000     0.0115     0.9800     0.9800    -0.0000
 22 H      0.9751     1.0000     0.0249     1.0186     1.0186    -0.0000
 23 H      1.0119     1.0000    -0.0119     0.9946     0.9946    -0.0000
 24 H      0.9951     1.0000     0.0049     0.9788     0.9788    -0.0000
 25 H      0.9910     1.0000     0.0090     0.9789     0.9789    -0.0000
 26 H      0.9895     1.0000     0.0105     0.9799     0.9799    -0.0000
 27 H      0.9758     1.0000     0.0242     1.0202     1.0202    -0.0000

  Mayer bond orders larger than 0.100000
B(  0-C ,  1-P ) :   0.9625 B(  0-C , 15-H ) :   0.9312 B(  0-C , 16-H ) :   0.9524 
B(  0-C , 17-H ) :   0.9493 B(  1-P ,  2-O ) :   1.8898 B(  1-P ,  3-C ) :   0.8580 
B(  1-P ,  9-C ) :   0.8610 B(  3-C ,  4-C ) :   1.3567 B(  3-C ,  8-C ) :   1.3929 
B(  4-C ,  5-C ) :   1.4041 B(  4-C , 18-H ) :   0.9679 B(  5-C ,  6-C ) :   1.3813 
B(  5-C , 19-H ) :   0.9740 B(  6-C ,  7-C ) :   1.3817 B(  6-C , 20-H ) :   0.9758 
B(  7-C ,  8-C ) :   1.3710 B(  7-C , 21-H ) :   0.9787 B(  8-C , 22-H ) :   0.9689 
B(  9-C , 10-C ) :   1.3503 B(  9-C , 14-C ) :   1.3996 B( 10-C , 11-C ) :   1.4084 
B( 10-C , 23-H ) :   0.9697 B( 11-C , 12-C ) :   1.3769 B( 11-C , 24-H ) :   0.9743 
B( 12-C , 13-C ) :   1.3857 B( 12-C , 25-H ) :   0.9757 B( 13-C , 14-C ) :   1.3625 
B( 13-C , 26-H ) :   0.9788 B( 14-C , 27-H ) :   0.9695 

-------
TIMINGS
-------

Total SCF time: 0 days 0 hours 0 min 4 sec 

Total time                  ....       4.894 sec
Sum of individual times     ....       4.812 sec  ( 98.3%)

SCF preparation             ....       0.114 sec  (  2.3%)
Fock matrix formation       ....       4.316 sec  ( 88.2%)
  Startup                   ....       0.026 sec  (  0.6% of F)
  Split-RI-J                ....       1.352 sec  ( 31.3% of F)
  XC integration            ....       2.814 sec  ( 65.2% of F)
    Basis function eval.    ....       0.888 sec  ( 31.6% of XC)
    Density eval.           ....       0.812 sec  ( 28.9% of XC)
    XC-Functional eval.     ....       0.076 sec  (  2.7% of XC)
    XC-Potential eval.      ....       0.517 sec  ( 18.4% of XC)
Diagonalization             ....       0.000 sec  (  0.0%)
Density matrix formation    ....       0.056 sec  (  1.1%)
Total Energy calculation    ....       0.022 sec  (  0.4%)
Population analysis         ....       0.070 sec  (  1.4%)
Orbital Transformation      ....       0.025 sec  (  0.5%)
Orbital Orthonormalization  ....       0.000 sec  (  0.0%)
DIIS solution               ....       0.028 sec  (  0.6%)
SOSCF solution              ....       0.181 sec  (  3.7%)
Finished LeanSCF after   4.9 sec

Maximum memory used throughout the entire LEANSCF-calculation: 28.0 MB


-------------------------------------------------------------------------------
                          DFT DISPERSION CORRECTION                            
                                                                               
                              DFTD3 V3.1  Rev 1                                
                          USING Becke-Johnson damping                          
-------------------------------------------------------------------------------
The BP86 functional is recognized
Active option DFTDOPT                   ...         4   

molecular C6(AA) [au] = 10605.091589 


            DFT-D V3
 parameters
 s6 scaling factor         :     1.0000 
 a1 scaling factor         :     0.3946 
 s8 scaling factor         :     3.2822 
 a2 scaling factor         :     4.8516 
 ad hoc parameters k1-k3   :    16.0000     1.3333    -4.0000 

 Edisp/kcal,au: -38.373449293408  -0.061151977438 
 E6   /kcal   : -13.833820184 
 E8   /kcal   : -24.539629109 
 % E8         :  63.949500399 

-------------------------   ----------------
Dispersion correction           -0.061151977
-------------------------   ----------------


-------------------------   --------------------
FINAL SINGLE POINT ENERGY      -919.387187747697
-------------------------   --------------------

                                *** OPTIMIZATION RUN DONE ***



           ************************************************************
           *        Program running with 6 parallel MPI-processes     *
           *              working on a common directory               *
           ************************************************************

------------------------------------------------------------------------------
                              ORCA PROPERTY CALCULATIONS
------------------------------------------------------------------------------

GBWName                                 ... data/geom_opt_PO_BP86/73879/73879.gbw
Number of atoms                         ...     28
Number of basis functions               ...    279
Max core memory                         ...   1024 MB

Electric properties:
Dipole moment                           ... YES
Quadrupole moment                       ...  NO
Static polarizability (Dipole/Dipole)   ...  NO
Static polarizability (Dipole/Quad.)    ...  NO
Static polarizability (Quad./Quad.)     ...  NO
Static polarizability (Velocity)        ...  NO

Atomic electric properties:
Dipole moment                           ...  NO
Quadrupole moment                       ...  NO
Static polarizability                   ...  NO

Choice of electric origin               ... Center of mass
Position of electric origin             ...     0.038607    -0.390590    -0.392233

General magnetic properties:
Magnetizability                         ...  NO

EPR properties:
g-Tensor (aka g-matrix)                 ...  NO
Zero-Field splitting spin-orbit         ...  NO
Zero-field splitting spin-spin          ...  NO
Hyperfine couplings                     ...  NO (   0 nuclei)
Quadrupole couplings                    ...  NO (   0 nuclei)
Contact density                         ...  NO (   0 nuclei)

NMR properties:
Chemical shifts                         ...  NO (   0 nuclei)
Spin-rotation constants                 ...  NO (   0 nuclei)
Spin-spin couplings                     ...  NO (   0 nuclei,    0 pairs)

Choice of magnetic origin               ... GIAO
Position of magnetic origin             ...     0.000000     0.000000     0.000000

Properties with geometric perturbations:
SCF Hessian                             ...  NO
IR spectrum                             ...  NO
VCD spectrum                            ...  NO
X-ray spectroscopy properties:
SCF XES/XAS/RIXS spectra                ...  NO


-------------
DIPOLE MOMENT
-------------

Method             : SCF
Type of density    : Electron Density
Multiplicity       :   1
Irrep              :   0
Energy             :  -919.3260357702590682 Eh
Relativity type    : 
Basis              : AO
                                X                 Y                 Z
Electronic contribution:      0.444483803      -3.091192686      -3.419861034
Nuclear contribution   :     -0.521090750       4.210001448       4.337242467
                        -----------------------------------------
Total Dipole Moment    :     -0.076606947       1.118808762       0.917381432
                        -----------------------------------------
Magnitude (a.u.)       :      1.448858296
Magnitude (Debye)      :      3.682705119



--------------------
Rotational spectrum 
--------------------
 
Rotational constants in cm-1:             0.029992             0.012064             0.010846 
Rotational constants in MHz :           899.138128           361.655480           325.155791 

Dipole components along the rotational axes: 
x,y,z [a.u.] :    -0.054804    -1.210669    -0.794020 
x,y,z [Debye]:    -0.139299    -3.077276    -2.018237 

 

Dipole moment calculation done in   0.0 sec 

Maximum memory used throughout the entire PROP-calculation: 13.9 MB

--------------------------------
SUGGESTED CITATIONS FOR THIS RUN
--------------------------------

Below you find a list of papers that are relevant to this ORCA run
We neither can nor want to force you to cite these papers, but we appreciate if you do
You receive ORCA, which is the product of decades of hard work by many enthusiastic individuals, for free
The only thing we kindly ask in return is that you cite our papers,
We deeply appreciate it, if you show your appreciation for ORCA by not just citing the generic ORCA reference.

Please note that relegating all ORCA citations to the supporting information does *not* help us.
SI sections are not indexed - citations you put there will not count into any citation statistics
But we need these citations in order to attract the funding resources that allow us to do what we are doing

Therefore, if you are a happy ORCA user, please consider citing a few of the papers listed below in the main body of your paper

In addition to the list printed below, the program has created the file data/geom_opt_PO_BP86/73879/73879.bibtex that contains the list in bibtex format
You can import this file easily into all common literature databanks and citation aid programs


List of essential papers. We consider these as the minimum necessary citations

  1. Neese,F.
     Software update: the ORCA program system, version 5.0
     WIRES Comput. Molec. Sci., 2022 12(1)e1606
     doi.org/10.1002/wcms.1606

List of papers to cite with high priority. The work reported in these papers was absolutely
necessary for this run to complete.
Our perspective: the developers of density functionals and basis sets usually get cited in chemistry papers
Good! But without the algorithms to do something with them, the functionals or basis sets would not do anything.
Hence, in our opinion, the algorithm design and method developments papers are equally worthy of getting cited

  1. Neese,F.
     An improvement of the resolution of the identity approximation for the formation of the Coulomb matrix
     J. Comp. Chem., 2003 24(14)1740-1747
     doi.org/10.1002/jcc.10318
  2. Neese,F.
     The SHARK Integral Generation and Digestion System
     J. Comp. Chem., 2022  1-16
     doi.org/10.1002/jcc.26942
  3. Grimme,S.; Antony,J.; Ehrlich,S.; Krieg,H.
     A consistent and accurate ab initio parametrization of density functional dispersion correction (DFT-D) for the 94 elements H-Pu
     J. Chem. Phys., 2010 132 154104-XXXX
     doi.org/10.1063/1.3382344
  4. Grimme,S.; Ehrlich,S.; Goerigk,L.
     Effect of the damping function in dispersion corrected density functional theory
     J. Comput. Chem., 2011 32(7)1456-1465
     doi.org/10.1002/jcc.21759

List of suggested additional citations. These are papers that are important in the 'surrounding' of 
of this run, or papers that preceded the highly important papers. If you like your results we are grateful for a citation.

  1. Neese,F.
     The ORCA program system
     WIRES Comput. Molec. Sci., 2012 2(1)73-78
     doi.org/10.1002/wcms.81
  2. Neese,F.
     Software update: the ORCA program system, version 4.0
     WIRES Comput. Molec. Sci., 2018 8(1)1-6
     doi.org/10.1002/wcms.1327
  3. Neese,F.; Wennmohs,F.; Becker,U.; Riplinger,C.
     The ORCA quantum chemistry program package
     J. Chem. Phys., 2020 152 Art. No. L224108
     doi.org/10.1063/5.0004608

List of optional additional citations

  1. Neese,F.
     Approximate second-order SCF convergence for spin unrestricted wavefunctions
     Chem. Phys. Lett., 2000 325(1-3)93-98
     doi.org/10.1016/s0009-2614(00)00662-x

Timings for individual modules:

Sum of individual times          ...      109.579 sec (=   1.826 min)
Startup calculation              ...        9.805 sec (=   0.163 min)   8.9 %
SCF iterations                   ...       66.736 sec (=   1.112 min)  60.9 %
Property calculations            ...        0.359 sec (=   0.006 min)   0.3 %
SCF Gradient evaluation          ...       32.570 sec (=   0.543 min)  29.7 %
Geometry relaxation              ...        0.109 sec (=   0.002 min)   0.1 %
                             ****ORCA TERMINATED NORMALLY****
TOTAL RUN TIME: 0 days 0 hours 1 minutes 51 seconds 489 msec
