
                                 *****************
                                 * O   R   C   A *
                                 *****************

                                            #,                                       
                                            ###                                      
                                            ####                                     
                                            #####                                    
                                            ######                                   
                                           ########,                                 
                                     ,,################,,,,,                         
                               ,,#################################,,                 
                          ,,##########################################,,             
                       ,#########################################, ''#####,          
                    ,#############################################,,   '####,        
                  ,##################################################,,,,####,       
                ,###########''''           ''''###############################       
              ,#####''   ,,,,##########,,,,          '''####'''          '####       
            ,##' ,,,,###########################,,,                        '##       
           ' ,,###''''                  '''############,,,                           
         ,,##''                                '''############,,,,        ,,,,,,###''
      ,#''                                            '''#######################'''  
     '                                                          ''''####''''         
             ,#######,   #######,   ,#######,      ##                                
            ,#'     '#,  ##    ##  ,#'     '#,    #''#        ,####,   ,####,        
            ##       ##  ##   ,#'  ##            #'  '#       #'       #'  '#        
            ##       ##  #######   ##           ,######,      #####,   #    #        
            '#,     ,#'  ##    ##  '#,     ,#' ,#      #,     #,   #   #,  ,#        
             '#######'   ##     ##  '#######'  #'      '#     '####' # '####'        



                #########################################################
                #                        -***-                          #
                #          Department of theory and spectroscopy        #
                #                                                       #
                #                      Frank Neese                      #
                #                                                       #
                #     Directorship, Architecture, Infrastructure        #
                #                    SHARK, DRIVERS                     #
                #        Core code/Algorithms in most modules           #
                #                                                       #
                #        Max Planck Institute fuer Kohlenforschung      #
                #                Kaiser Wilhelm Platz 1                 #
                #                 D-45470 Muelheim/Ruhr                 #
                #                      Germany                          #
                #                                                       #
                #                  All rights reserved                  #
                #                        -***-                          #
                #########################################################


                         Program Version 6.0.0  -   RELEASE   -


 With contributions from (in alphabetic order):
   Daniel Aravena         : Magnetic Suceptibility
   Michael Atanasov       : Ab Initio Ligand Field Theory (pilot matlab implementation)
   Alexander A. Auer      : GIAO ZORA, VPT2 properties, NMR spectrum
   Ute Becker             : All parallelization in ORCA, NUMFREQ, NUMCALC
   Giovanni Bistoni       : ED, misc. LED, open-shell LED, HFLD
   Martin Brehm           : Molecular dynamics
   Dmytro Bykov           : pre 5.0 version of the SCF Hessian
   Marcos Casanova-Páez   : Triplet and SCS-CIS(D). UHF-(DLPNO)-IP/EA/STEOM-CCSD. UHF-CVS-IP/STEOM-CCSD
   Vijay G. Chilkuri      : MRCI spin determinant printing, contributions to CSF-ICE
   Pauline Colinet        : FMM embedding
   Dipayan Datta          : RHF DLPNO-CCSD density
   Achintya Kumar Dutta   : EOM-CC, STEOM-CC
   Nicolas Foglia         : Exact transition moments, OPA infrastructure, MCD improvements
   Dmitry Ganyushin       : Spin-Orbit,Spin-Spin,Magnetic field MRCI
   Miquel Garcia          : C-PCM and meta-GGA Hessian, CCSD/C-PCM, Gaussian charge scheme
   Tiago L. C. Gouveia    : GS-ROHF, GS-ROCIS
   Yang Guo               : DLPNO-NEVPT2, F12-NEVPT2, CIM, IAO-localization
   Andreas Hansen         : Spin unrestricted coupled pair/coupled cluster methods
   Ingolf Harden          : AUTO-CI MPn and infrastructure 
   Benjamin Helmich-Paris : MC-RPA, TRAH-(SCF,CASSCF), AVAS, COSX integrals, SCF dyn. polar.
   Lee Huntington         : MR-EOM, pCC
   Robert Izsak           : Overlap fitted RIJCOSX, COSX-SCS-MP3, EOM
   Riya Kayal             : Wick's Theorem for AUTO-CI, AUTO-CI UHF-CCSDT
   Emily Kempfer          : AUTO-CI, RHF CISDT and CCSDT
   Christian Kollmar      : KDIIS, OOCD, Brueckner-CCSD(T), CCSD density, CASPT2, CASPT2-K, improved NEVPT2
   Axel Koslowski         : Symmetry handling
   Simone Kossmann        : Meta GGA functionals, TD-DFT gradient, OOMP2, (MP2 Hessian; deprecated post 5.0)
   Lucas Lang             : DCDCAS
   Marvin Lechner         : AUTO-CI (C++ implementation), FIC-MRCC
   Spencer Leger          : CASSCF response
   Dagmar Lenk            : GEPOL surface, SMD, ORCA-2-JSON
   Dimitrios Liakos       : Extrapolation schemes; Compound Job, initial MDCI parallelization
   Dimitrios Manganas     : Further ROCIS development; embedding schemes. LFT, Crystal Embedding
   Dimitrios Pantazis     : SARC Basis sets
   Anastasios Papadopoulos: AUTO-CI, single reference methods and gradients
   Taras Petrenko         : pre 6.0 DFT Hessian and TD-DFT gradient, (ASA, deprecated), ECA, 1-Electron XAS/XES, NRVS
   Peter Pinski           : DLPNO-MP2, DLPNO-MP2 Gradient
   Christoph Reimann      : Effective Core Potentials
   Marius Retegan         : Local ZFS, SOC
   Christoph Riplinger    : Optimizer, TS searches, QM/MM, DLPNO-CCSD(T), (RO)-DLPNO pert. Triples
   Michael Roemelt        : Original ROCIS implementation
   Masaaki Saitow         : Open-shell DLPNO-CCSD energy and density
   Barbara Sandhoefer     : DKH picture change effects
   Kantharuban Sivalingam : CASSCF convergence/infrastructure, NEVPT2 and variants, FIC-MRCI
   Bernardo de Souza      : ESD, SOC TD-DFT
   Georgi Stoychev        : AutoAux, RI-MP2 NMR, DLPNO-MP2 response, X2C
   Van Anh Tran           : RI-MP2 g-tensors
   Willem Van den Heuvel  : Paramagnetic NMR
   Zikuan Wang            : NOTCH, Electric field optimization 
   Frank Wennmohs         : Technical directorship and infrastructure
   Hang Xu                : AUTO-CI-Response properties 


 We gratefully acknowledge several colleagues who have allowed us to
 interface, adapt or use parts of their codes:
   Stefan Grimme, W. Hujo, H. Kruse, P. Pracht,  : VdW corrections, initial TS optimization,
                  C. Bannwarth, S. Ehlert,         DFT functionals, gCP, sTDA/sTD-DF
                  L. Wittmann, M. Mueller
   Ed Valeev, F. Pavosevic, A. Kumar             : LibInt (2-el integral package), F12 methods
   Garnet Chan, S. Sharma, J. Yang, R. Olivares  : DMRG
   Ulf Ekstrom                                   : XCFun DFT Library
   Mihaly Kallay                                 : mrcc  (arbitrary order and MRCC methods)
   Frank Weinhold                                : gennbo (NPA and NBO analysis)
   Simon Mueller                                 : openCOSMO-RS
   Christopher J. Cramer and Donald G. Truhlar   : smd solvation model
   Lars Goerigk                                  : TD-DFT with DH, B97 family of functionals
   V. Asgeirsson, H. Jonsson                     : NEB implementation
   FAccTs GmbH                                   : IRC, NEB, NEB-TS, DLPNO-Multilevel, CI-OPT
                                                   MM, QMMM, 2- and 3-layer-ONIOM, Crystal-QMMM,
                                                   LR-CPCM, SF, NACMEs, symmetry and pop. for TD-DFT,
                                                   nearIR, NL-DFT gradient (VV10), updates on ESD,
                                                   ML-optimized integration grids, MBIS, APM,
                                                   GOAT, DOCKER, SOLVATOR, interface openCOSMO-RS
   S Lehtola, MJT Oliveira, MAL Marques          : LibXC Library
   Liviu Ungur et al                             : ANISO software


 Your calculation uses the libint2 library for the computation of 2-el integrals
 For citations please refer to: http://libint.valeyev.net

 Your ORCA version has been built with support for libXC version: 6.2.2
 For citations please refer to: https://libxc.gitlab.io

 This ORCA versions uses:
   CBLAS   interface :  Fast vector & matrix operations
   LAPACKE interface :  Fast linear algebra routines
   Shared memory     :  Shared parallel matrices


Your calculation utilizes the atom-pairwise dispersion correction
with the zero-damping scheme (D30)


XCFun DFT library Copyright 2009-2010 Ulf Ekstrom and contributors.
See http://admol.org/xcfun for more information.
This is free software; see the source code for copying conditions.
There is ABSOLUTELY NO WARRANTY; not even for MERCHANTABILITY or FITNESS FOR A PARTICULAR PURPOSE.
For details see the documentation.
Scientific users of this library should cite U. Ekstrom, L. Visscher, R. Bast, A. J. Thorvaldsen and K. Ruud;
J.Chem.Theor.Comp. 2010, DOI: 10.1021/ct100117s
XCFun Version 0.99 

Warning: RI is on but no J-basis has been assigned. Assigning Def2/J (nothing to worry about!)
================================================================================

----- Orbital basis set information -----
Your calculation utilizes the basis: def2-TZVP
   F. Weigend and R. Ahlrichs, Phys. Chem. Chem. Phys. 7, 3297 (2005).

----- AuxJ basis set information -----
Your calculation utilizes the auxiliary basis: def2/J
   F. Weigend, Phys. Chem. Chem. Phys. 8, 1057 (2006).

================================================================================
                                        WARNINGS
                       Please study these warnings very carefully!
================================================================================

WARNING: Functional chosen is sensitive to the integration grid.
         DEFGRID3 seems to be a minimum grid for robust results!

================================================================================
                                       INPUT FILE
================================================================================
NAME = data/single_point_P_M06-2x/78464/78464.inp
|  1> ! RIJCOSX M062X def2-TZVP D3ZERO NormalSCF
|  2> %pal
|  3> nprocs 6
|  4> end
|  5> 
|  6> * xyz 0 1
|  7>   C           2.88977153913263      2.98199158562673     -0.96522629202421
|  8>   O           1.80652530452609      2.09664840190029     -0.75185426479930
|  9>   C           0.87806916445688      2.40278788945570      0.20108239142522
| 10>   C           0.89134983800893      3.58332102433574      0.96804670494531
| 11>   C          -0.10608941672374      3.79180655383937      1.93802999926673
| 12>   C          -1.10186676331662      2.82878547204707      2.15155720654460
| 13>   C          -1.10220058670718      1.64775656286819      1.38737096118754
| 14>   C          -0.12577013580458      1.41630914959145      0.40473845460734
| 15>   P          -0.08788637462870     -0.05156166246816     -0.72274270112441
| 16>   C          -1.47445732148390     -1.06439481929458     -0.03603275610460
| 17>   C          -1.30137528195570     -2.25150676945112      0.69563267517296
| 18>   C          -2.40469523663996     -3.02272012610557      1.10321747756605
| 19>   C          -3.70194174577077     -2.60193351663713      0.78016868242636
| 20>   C          -3.90691587233076     -1.41715496472524      0.05019759333767
| 21>   C          -2.79702712621110     -0.65551382702299     -0.36287833247812
| 22>   O          -2.88515781966028      0.51084668067780     -1.06590538138203
| 23>   C          -4.16391970908725      1.02147683152395     -1.39308709212727
| 24>   C           1.36836839454859     -0.95591370893594     -0.01391719521241
| 25>   C           1.99238369847815     -0.64249528078572      1.21002113608948
| 26>   C           3.11834562188296     -1.35888340158776      1.64697609286837
| 27>   C           3.63090817891038     -2.40981886049779      0.86670490474428
| 28>   C           3.01727955876631     -2.74129068046435     -0.35177424098399
| 29>   C           1.89289286394288     -2.01774978219218     -0.78720776545577
| 30>   O           1.25605855564067     -2.37583131599813     -1.95790775436106
| 31>   C           1.77487261851229     -1.74173182968112     -3.12710322398467
| 32>   H           3.51838685442586      2.52138681573668     -1.74939446348708
| 33>   H           2.54665336713430      3.98155626465069     -1.31551971853194
| 34>   H           3.49859727055233      3.11432393467830     -0.04293979011689
| 35>   H           1.67059321733653      4.34264874145375      0.81695391574172
| 36>   H          -0.09208078625765      4.71824406640570      2.53267879514993
| 37>   H          -1.87527598541658      2.98801224290596      2.91790833301121
| 38>   H          -1.86844968350842      0.87907172450452      1.56742749928914
| 39>   H          -0.28208477744372     -2.57483533759958      0.95322174112998
| 40>   H          -2.24584172171837     -3.94870744796235      1.67575951512508
| 41>   H          -4.57357829114790     -3.19512826735546      1.09710054923942
| 42>   H          -4.92906975257635     -1.09802898330171     -0.19451750519278
| 43>   H          -3.99062551202205      1.96511669497480     -1.94216966941556
| 44>   H          -4.73549464192840      0.32133821444319     -2.04298717725372
| 45>   H          -4.76532051245940      1.23645029132755     -0.48139872899958
| 46>   H           1.58214185248500      0.17157092795591      1.82695904534887
| 47>   H           3.59220035904944     -1.10117789268539      2.60660714003385
| 48>   H           4.50758430656015     -2.97978191011473      1.21128958504322
| 49>   H           3.38728545498062     -3.56985334780724     -0.97434798504928
| 50>   H           2.84488753115845     -2.00493860435647     -3.29013421368264
| 51>   H           1.17538897520726     -2.10530991243816     -3.98301571557980
| 52>   H           1.67658252910269     -0.63518882143450     -3.05758543194722
| 53> **                         ****END OF INPUT****
================================================================================

                       ****************************
                       * Single Point Calculation *
                       ****************************

---------------------------------
CARTESIAN COORDINATES (ANGSTROEM)
---------------------------------
  C      2.889772    2.981992   -0.965226
  O      1.806525    2.096648   -0.751854
  C      0.878069    2.402788    0.201082
  C      0.891350    3.583321    0.968047
  C     -0.106089    3.791807    1.938030
  C     -1.101867    2.828785    2.151557
  C     -1.102201    1.647757    1.387371
  C     -0.125770    1.416309    0.404738
  P     -0.087886   -0.051562   -0.722743
  C     -1.474457   -1.064395   -0.036033
  C     -1.301375   -2.251507    0.695633
  C     -2.404695   -3.022720    1.103217
  C     -3.701942   -2.601934    0.780169
  C     -3.906916   -1.417155    0.050198
  C     -2.797027   -0.655514   -0.362878
  O     -2.885158    0.510847   -1.065905
  C     -4.163920    1.021477   -1.393087
  C      1.368368   -0.955914   -0.013917
  C      1.992384   -0.642495    1.210021
  C      3.118346   -1.358883    1.646976
  C      3.630908   -2.409819    0.866705
  C      3.017280   -2.741291   -0.351774
  C      1.892893   -2.017750   -0.787208
  O      1.256059   -2.375831   -1.957908
  C      1.774873   -1.741732   -3.127103
  H      3.518387    2.521387   -1.749394
  H      2.546653    3.981556   -1.315520
  H      3.498597    3.114324   -0.042940
  H      1.670593    4.342649    0.816954
  H     -0.092081    4.718244    2.532679
  H     -1.875276    2.988012    2.917908
  H     -1.868450    0.879072    1.567427
  H     -0.282085   -2.574835    0.953222
  H     -2.245842   -3.948707    1.675760
  H     -4.573578   -3.195128    1.097101
  H     -4.929070   -1.098029   -0.194518
  H     -3.990626    1.965117   -1.942170
  H     -4.735495    0.321338   -2.042987
  H     -4.765321    1.236450   -0.481399
  H      1.582142    0.171571    1.826959
  H      3.592200   -1.101178    2.606607
  H      4.507584   -2.979782    1.211290
  H      3.387285   -3.569853   -0.974348
  H      2.844888   -2.004939   -3.290134
  H      1.175389   -2.105310   -3.983016
  H      1.676583   -0.635189   -3.057585

----------------------------
CARTESIAN COORDINATES (A.U.)
----------------------------
  NO LB      ZA    FRAG     MASS         X           Y           Z
   0 C     6.0000    0    12.011    5.460877    5.635147   -1.824013
   1 O     8.0000    0    15.999    3.413838    3.962091   -1.420799
   2 C     6.0000    0    12.011    1.659310    4.540611    0.379991
   3 C     6.0000    0    12.011    1.684407    6.771495    1.829343
   4 C     6.0000    0    12.011   -0.200480    7.165476    3.662346
   5 C     6.0000    0    12.011   -2.082226    5.345630    4.065854
   6 C     6.0000    0    12.011   -2.082857    3.113809    2.621751
   7 C     6.0000    0    12.011   -0.237671    2.676436    0.764845
   8 P    15.0000    0    30.974   -0.166081   -0.097437   -1.365786
   9 C     6.0000    0    12.011   -2.786321   -2.011415   -0.068092
  10 C     6.0000    0    12.011   -2.459243   -4.254731    1.314555
  11 C     6.0000    0    12.011   -4.544215   -5.712113    2.084779
  12 C     6.0000    0    12.011   -6.995656   -4.916942    1.474305
  13 C     6.0000    0    12.011   -7.383001   -2.678035    0.094860
  14 C     6.0000    0    12.011   -5.285615   -1.238742   -0.685741
  15 O     8.0000    0    15.999   -5.452158    0.965360   -2.014269
  16 C     6.0000    0    12.011   -7.868668    1.930311   -2.632553
  17 C     6.0000    0    12.011    2.585842   -1.806415   -0.026300
  18 C     6.0000    0    12.011    3.765060   -1.214140    2.286609
  19 C     6.0000    0    12.011    5.892819   -2.567917    3.112334
  20 C     6.0000    0    12.011    6.861422   -4.553898    1.637835
  21 C     6.0000    0    12.011    5.701832   -5.180289   -0.664757
  22 C     6.0000    0    12.011    3.577049   -3.812994   -1.487607
  23 O     8.0000    0    15.999    2.373607   -4.489671   -3.699909
  24 C     6.0000    0    12.011    3.354023   -3.291396   -5.909369
  25 H     1.0000    0     1.008    6.648788    4.764731   -3.305876
  26 H     1.0000    0     1.008    4.812477    7.524051   -2.485972
  27 H     1.0000    0     1.008    6.611391    5.885219   -0.081144
  28 H     1.0000    0     1.008    3.156964    8.206417    1.543819
  29 H     1.0000    0     1.008   -0.174007    8.916189    4.786069
  30 H     1.0000    0     1.008   -3.543758    5.646525    5.514048
  31 H     1.0000    0     1.008   -3.530858    1.661205    2.962009
  32 H     1.0000    0     1.008   -0.533063   -4.865734    1.801328
  33 H     1.0000    0     1.008   -4.244026   -7.461976    3.166727
  34 H     1.0000    0     1.008   -8.642810   -6.037917    2.073220
  35 H     1.0000    0     1.008   -9.314592   -2.074974   -0.367585
  36 H     1.0000    0     1.008   -7.541189    3.713532   -3.670169
  37 H     1.0000    0     1.008   -8.948788    0.607241   -3.860686
  38 H     1.0000    0     1.008   -9.005151    2.336552   -0.909712
  39 H     1.0000    0     1.008    2.989815    0.324222    3.452452
  40 H     1.0000    0     1.008    6.788275   -2.080925    4.925774
  41 H     1.0000    0     1.008    8.518100   -5.630972    2.289006
  42 H     1.0000    0     1.008    6.401042   -6.746045   -1.841251
  43 H     1.0000    0     1.008    5.376058   -3.788785   -6.217453
  44 H     1.0000    0     1.008    2.221163   -3.978459   -7.526809
  45 H     1.0000    0     1.008    3.168282   -1.200333   -5.777999

--------------------------------
INTERNAL COORDINATES (ANGSTROEM)
--------------------------------
 C      0   0   0     0.000000000000     0.00000000     0.00000000
 O      1   0   0     1.415197010936     0.00000000     0.00000000
 C      2   1   0     1.365225424847   119.04596819     0.00000000
 C      3   2   1     1.407859764697   124.18542642     2.56078187
 C      4   3   2     1.406847139584   119.55001606   180.82804764
 C      5   4   3     1.401633331586   120.45827995     0.55328504
 C      6   5   4     1.406701821051   119.62066357   359.89487486
 C      7   6   5     1.404475337466   121.21626880   359.60084127
 P      8   7   6     1.851295129575   124.81916250   183.73441779
 C      9   8   7     1.849318940264   101.11368157   353.81352119
 C     10   9   8     1.405178450567   124.31083477   252.28690180
 C     11  10   9     1.406488654426   121.16461143   184.74143634
 C     12  11  10     1.401524313097   119.64747539   359.79260374
 C     13  12  11     1.406617361095   120.48960451     0.12593173
 C     14  13  12     1.408041892804   119.53752336     0.33943465
 O     15  14  13     1.364701756628   124.23104743   180.45315458
 C     16  15  14     1.415281948111   119.06497225     1.17011153
 C      9   8   7     1.854983604923    99.78193096   251.12133237
 C     18   9   8     1.409131381196   124.82793355    11.28142435
 C     19  18   9     1.404254900948   120.78901651   182.00194727
 C     20  19  18     1.405705815837   120.06959004   359.50227262
 C     21  20  19     1.403960497830   119.92623951     0.11521940
 C     22  21  20     1.406186056396   119.78489649     0.11204427
 O     23  22  21     1.379970574000   119.87991540   182.57686831
 C     24  23  22     1.427679318534   114.31825179   270.98642097
 H      1   2   3     1.105546783181   106.35150391   178.36931041
 H      1   2   3     1.113357585038   111.91301218   297.33920880
 H      1   2   3     1.113010787659   111.60131947    59.56152852
 H      4   3   2     1.098466138376   120.75732413     0.87354192
 H      5   4   3     1.100949543287   119.21463728   180.17326270
 H      6   5   4     1.100367683288   120.39911721   179.34452771
 H      7   6   5     1.100197444094   119.85788659   178.61424441
 H     11  10   9     1.099930280731   118.97440987     4.95170517
 H     12  11  10     1.100223315611   119.93593977   180.02511516
 H     13  12  11     1.100943271798   120.31071386   180.23957974
 H     14  13  12     1.098419512923   119.73126783   180.11708405
 H     17  16  15     1.105431475629   106.33039161   179.26541580
 H     17  16  15     1.113221499805   111.83656615   298.27321683
 H     17  16  15     1.113136193904   111.62302560    60.42957154
 H     19  18   9     1.100733640941   119.09559724     2.33472043
 H     20  19  18     1.100837039683   119.79960212   180.08419977
 H     21  20  19     1.100980250784   120.24178285   180.59939151
 H     22  21  20     1.100462867955   121.45340666   181.02827044
 H     25  24  23     1.113907008292   111.34546098    61.29083264
 H     25  24  23     1.106415769103   106.89880940   180.53781655
 H     25  24  23     1.113072816210   110.99604996   299.40783530

---------------------------
INTERNAL COORDINATES (A.U.)
---------------------------
 C      0   0   0     0.000000000000     0.00000000     0.00000000
 O      1   0   0     2.674334776213     0.00000000     0.00000000
 C      2   1   0     2.579902164028   119.04596819     0.00000000
 C      3   2   1     2.660469390244   124.18542642     2.56078187
 C      4   3   2     2.658555806105   119.55001606   180.82804764
 C      5   4   3     2.648703136872   120.45827995     0.55328504
 C      6   5   4     2.658281193874   119.62066357   359.89487486
 C      7   6   5     2.654073749658   121.21626880   359.60084127
 P      8   7   6     3.498440787959   124.81916250   183.73441779
 C      9   8   7     3.494706331372   101.11368157   353.81352119
 C     10   9   8     2.655402440860   124.31083477   252.28690180
 C     11  10   9     2.657878367332   121.16461143   184.74143634
 C     12  11  10     2.648497121785   119.64747539   359.79260374
 C     13  12  11     2.658121587689   120.48960451     0.12593173
 C     14  13  12     2.660813562488   119.53752336     0.33943465
 O     15  14  13     2.578912574507   124.23104743   180.45315458
 C     16  15  14     2.674495284213   119.06497225     1.17011153
 C      9   8   7     3.505410996219    99.78193096   251.12133237
 C     18   9   8     2.662872397175   124.82793355    11.28142435
 C     19  18   9     2.653657185009   120.78901651   182.00194727
 C     20  19  18     2.656399016792   120.06959004   359.50227262
 C     21  20  19     2.653100843742   119.92623951     0.11521940
 C     22  21  20     2.657306539927   119.78489649     0.11204427
 O     23  22  21     2.607766457730   119.87991540   182.57686831
 C     24  23  22     2.697922919092   114.31825179   270.98642097
 H      1   2   3     2.089180648450   106.35150391   178.36931041
 H      1   2   3     2.103940924846   111.91301218   297.33920880
 H      1   2   3     2.103285572775   111.60131947    59.56152852
 H      4   3   2     2.075800168917   120.75732413     0.87354192
 H      5   4   3     2.080493124077   119.21463728   180.17326270
 H      6   5   4     2.079393568031   120.39911721   179.34452771
 H      7   6   5     2.079071862579   119.85788659   178.61424441
 H     11  10   9     2.078566996989   118.97440987     4.95170517
 H     12  11  10     2.079120752660   119.93593977   180.02511516
 H     13  12  11     2.080481272682   120.31071386   180.23957974
 H     14  13  12     2.075712059579   119.73126783   180.11708405
 H     17  16  15     2.088962748755   106.33039161   179.26541580
 H     17  16  15     2.103683761024   111.83656615   298.27321683
 H     17  16  15     2.103522556234   111.62302560    60.42957154
 H     19  18   9     2.080085127773   119.09559724     2.33472043
 H     20  19  18     2.080280523077   119.79960212   180.08419977
 H     21  20  19     2.080551152838   120.24178285   180.59939151
 H     22  21  20     2.079573440984   121.45340666   181.02827044
 H     25  24  23     2.104979184327   111.34546098    61.29083264
 H     25  24  23     2.090822793857   106.89880940   180.53781655
 H     25  24  23     2.103402789749   110.99604996   299.40783530

---------------------
BASIS SET INFORMATION
---------------------
There are 4 groups of distinct atoms

 Group   1 Type C   : 11s6p2d1f contracted to 5s3p2d1f pattern {62111/411/11/1}
 Group   2 Type O   : 11s6p2d1f contracted to 5s3p2d1f pattern {62111/411/11/1}
 Group   3 Type P   : 14s9p3d1f contracted to 5s5p2d1f pattern {73211/51111/21/1}
 Group   4 Type H   : 5s1p contracted to 3s1p pattern {311/1}

Atom   0C    basis set group =>   1
Atom   1O    basis set group =>   2
Atom   2C    basis set group =>   1
Atom   3C    basis set group =>   1
Atom   4C    basis set group =>   1
Atom   5C    basis set group =>   1
Atom   6C    basis set group =>   1
Atom   7C    basis set group =>   1
Atom   8P    basis set group =>   3
Atom   9C    basis set group =>   1
Atom  10C    basis set group =>   1
Atom  11C    basis set group =>   1
Atom  12C    basis set group =>   1
Atom  13C    basis set group =>   1
Atom  14C    basis set group =>   1
Atom  15O    basis set group =>   2
Atom  16C    basis set group =>   1
Atom  17C    basis set group =>   1
Atom  18C    basis set group =>   1
Atom  19C    basis set group =>   1
Atom  20C    basis set group =>   1
Atom  21C    basis set group =>   1
Atom  22C    basis set group =>   1
Atom  23O    basis set group =>   2
Atom  24C    basis set group =>   1
Atom  25H    basis set group =>   4
Atom  26H    basis set group =>   4
Atom  27H    basis set group =>   4
Atom  28H    basis set group =>   4
Atom  29H    basis set group =>   4
Atom  30H    basis set group =>   4
Atom  31H    basis set group =>   4
Atom  32H    basis set group =>   4
Atom  33H    basis set group =>   4
Atom  34H    basis set group =>   4
Atom  35H    basis set group =>   4
Atom  36H    basis set group =>   4
Atom  37H    basis set group =>   4
Atom  38H    basis set group =>   4
Atom  39H    basis set group =>   4
Atom  40H    basis set group =>   4
Atom  41H    basis set group =>   4
Atom  42H    basis set group =>   4
Atom  43H    basis set group =>   4
Atom  44H    basis set group =>   4
Atom  45H    basis set group =>   4
---------------------------------
AUXILIARY/J BASIS SET INFORMATION
---------------------------------
There are 4 groups of distinct atoms

 Group   1 Type C   : 12s5p4d2f1g contracted to 6s4p3d1f1g pattern {711111/2111/211/2/1}
 Group   2 Type O   : 12s5p4d2f1g contracted to 6s4p3d1f1g pattern {711111/2111/211/2/1}
 Group   3 Type P   : 14s5p5d2f1g contracted to 8s4p3d1f1g pattern {71111111/2111/311/2/1}
 Group   4 Type H   : 5s2p1d contracted to 3s1p1d pattern {311/2/1}

Atom   0C    basis set group =>   1
Atom   1O    basis set group =>   2
Atom   2C    basis set group =>   1
Atom   3C    basis set group =>   1
Atom   4C    basis set group =>   1
Atom   5C    basis set group =>   1
Atom   6C    basis set group =>   1
Atom   7C    basis set group =>   1
Atom   8P    basis set group =>   3
Atom   9C    basis set group =>   1
Atom  10C    basis set group =>   1
Atom  11C    basis set group =>   1
Atom  12C    basis set group =>   1
Atom  13C    basis set group =>   1
Atom  14C    basis set group =>   1
Atom  15O    basis set group =>   2
Atom  16C    basis set group =>   1
Atom  17C    basis set group =>   1
Atom  18C    basis set group =>   1
Atom  19C    basis set group =>   1
Atom  20C    basis set group =>   1
Atom  21C    basis set group =>   1
Atom  22C    basis set group =>   1
Atom  23O    basis set group =>   2
Atom  24C    basis set group =>   1
Atom  25H    basis set group =>   4
Atom  26H    basis set group =>   4
Atom  27H    basis set group =>   4
Atom  28H    basis set group =>   4
Atom  29H    basis set group =>   4
Atom  30H    basis set group =>   4
Atom  31H    basis set group =>   4
Atom  32H    basis set group =>   4
Atom  33H    basis set group =>   4
Atom  34H    basis set group =>   4
Atom  35H    basis set group =>   4
Atom  36H    basis set group =>   4
Atom  37H    basis set group =>   4
Atom  38H    basis set group =>   4
Atom  39H    basis set group =>   4
Atom  40H    basis set group =>   4
Atom  41H    basis set group =>   4
Atom  42H    basis set group =>   4
Atom  43H    basis set group =>   4
Atom  44H    basis set group =>   4
Atom  45H    basis set group =>   4


           ************************************************************
           *        Program running with 6 parallel MPI-processes     *
           *              working on a common directory               *
           ************************************************************
------------------------------------------------------------------------------
                             ORCA STARTUP CALCULATIONS
                           -- RI-GTO INTEGRALS CHOSEN --
------------------------------------------------------------------------------
------------------------------------------------------------------------------
                   ___                                                        
                  /   \      - P O W E R E D   B Y -                         
                 /     \                                                     
                 |  |  |   _    _      __       _____    __    __             
                 |  |  |  | |  | |    /  \     |  _  \  |  |  /  |          
                  \  \/   | |  | |   /    \    | | | |  |  | /  /          
                 / \  \   | |__| |  /  /\  \   | |_| |  |  |/  /          
                |  |  |   |  __  | /  /__\  \  |    /   |      \           
                |  |  |   | |  | | |   __   |  |    \   |  |\   \          
                \     /   | |  | | |  |  |  |  | |\  \  |  | \   \       
                 \___/    |_|  |_| |__|  |__|  |_| \__\ |__|  \__/        
                                                                              
                      - O R C A' S   B I G   F R I E N D -                    
                                      &                                       
                       - I N T E G R A L  F E E D E R -                       
                                                                              
 v1 FN, 2020, v2 2021, v3 2022-2024                                           
------------------------------------------------------------------------------


----------------------
SHARK INTEGRAL PACKAGE
----------------------

Number of atoms                             ...     46
Number of basis functions                   ...    907
Number of shells                            ...    361
Maximum angular momentum                    ...      3
Integral batch strategy                     ... SHARK/LIBINT Hybrid
RI-J (if used) integral strategy            ... SPLIT-RIJ (Revised 2003 algorithm where possible)
Printlevel                                  ...      1
Contraction scheme used                     ... SEGMENTED contraction
Prescreening option                         ... SCHWARTZ
   Thresh                                   ... 1.000e-10
   Tcut                                     ... 1.000e-11
   Tpresel                                  ... 1.000e-11 
Coulomb Range Separation                    ... NOT USED
Exchange Range Separation                   ... NOT USED
Multipole approximations                    ... NOT USED
Finite Nucleus Model                        ... NOT USED
CABS basis                                  ... NOT available
Auxiliary Coulomb fitting basis             ... AVAILABLE
   # of basis functions in Aux-J            ...   1458
   # of shells in Aux-J                     ...    482
   Maximum angular momentum in Aux-J        ...      4
Auxiliary J/K fitting basis                 ... NOT available
Auxiliary Correlation fitting basis         ... NOT available
Auxiliary 'external' fitting basis          ... NOT available

Checking pre-screening integrals            ... done (  0.0 sec) Dimension = 361
Check shell pair data                       ... done (  0.0 sec)
Shell pair information
Shell pair cut-off parameter TPreSel        ...   1.0e-11
Total number of shell pairs                 ...     65341
Shell pairs after pre-screening             ...     44624
Total number of primitive shell pairs       ...    201288
Primitive shell pairs kept                  ...     88937
          la=0 lb=0:  11621 shell pairs
          la=1 lb=0:  13060 shell pairs
          la=1 lb=1:   3706 shell pairs
          la=2 lb=0:   6224 shell pairs
          la=2 lb=1:   3569 shell pairs
          la=2 lb=2:    891 shell pairs
          la=3 lb=0:   2894 shell pairs
          la=3 lb=1:   1665 shell pairs
          la=3 lb=2:    803 shell pairs
          la=3 lb=3:    191 shell pairs

Calculating one electron integrals          ... done (  0.1 sec)
Calculating RI/J V-Matrix + Cholesky decomp.... done (  0.1 sec)
Calculating Nuclear repulsion               ... done (  0.0 sec) ENN=   2373.003258042714 Eh

Diagonalization of the overlap matrix:
Smallest eigenvalue                        ... 6.745e-06
Time for diagonalization                   ...    0.197 sec
Threshold for overlap eigenvalues          ... 1.000e-07
Number of eigenvalues below threshold      ... 0
Time for construction of square roots      ...    0.096 sec
Total time needed                          ...    0.300 sec

-------------------
DFT GRID GENERATION
-------------------

General Integration Accuracy     IntAcc      ... 4.388
Radial Grid Type                 RadialGrid  ... OptM3 with GC (2021)
Angular Grid (max. ang.)         AngularGrid ... 4 (Lebedev-302)
Angular grid pruning method      GridPruning ... 4 (adaptive)
Weight generation scheme         WeightScheme... mBecke (2022)
Basis function cutoff            BFCut       ... 1.0000e-10
Integration weight cutoff        WCut        ... 1.0000e-14
Partially contracted basis set               ... off
Rotationally invariant grid construction     ... off
Angular grids for H and He will be reduced by one unit

Total number of grid points                  ...   217439
Total number of batches                      ...     3424
Average number of points per batch           ...       63
Average number of grid points per atom       ...     4727

--------------------
COSX GRID GENERATION
--------------------

GRIDX 1
-------
General Integration Accuracy     IntAcc      ... 3.816
Radial Grid Type                 RadialGrid  ... OptM3 with GC (2021)
Angular Grid (max. ang.)         AngularGrid ... 1 (Lebedev-50)
Angular grid pruning method      GridPruning ... 4 (adaptive)
Weight generation scheme         WeightScheme... mBecke (2022)
Basis function cutoff            BFCut       ... 1.0000e-10
Integration weight cutoff        WCut        ... 1.0000e-14
Partially contracted basis set               ... on
Rotationally invariant grid construction     ... off
Angular grids for H and He will be reduced by one unit

Total number of grid points                  ...    28574
Total number of batches                      ...      245
Average number of points per batch           ...      116
Average number of grid points per atom       ...      621
UseSFitting                                  ... on

GRIDX 2
-------
General Integration Accuracy     IntAcc      ... 4.020
Radial Grid Type                 RadialGrid  ... OptM3 with GC (2021)
Angular Grid (max. ang.)         AngularGrid ... 2 (Lebedev-110)
Angular grid pruning method      GridPruning ... 4 (adaptive)
Weight generation scheme         WeightScheme... mBecke (2022)
Basis function cutoff            BFCut       ... 1.0000e-10
Integration weight cutoff        WCut        ... 1.0000e-14
Partially contracted basis set               ... on
Rotationally invariant grid construction     ... off
Angular grids for H and He will be reduced by one unit

Total number of grid points                  ...    59341
Total number of batches                      ...      486
Average number of points per batch           ...      122
Average number of grid points per atom       ...     1290
UseSFitting                                  ... on

GRIDX 3
-------
General Integration Accuracy     IntAcc      ... 4.338
Radial Grid Type                 RadialGrid  ... OptM3 with GC (2021)
Angular Grid (max. ang.)         AngularGrid ... 3 (Lebedev-194)
Angular grid pruning method      GridPruning ... 4 (adaptive)
Weight generation scheme         WeightScheme... mBecke (2022)
Basis function cutoff            BFCut       ... 1.0000e-10
Integration weight cutoff        WCut        ... 1.0000e-14
Partially contracted basis set               ... on
Rotationally invariant grid construction     ... off
Angular grids for H and He will be reduced by one unit

Total number of grid points                  ...   129906
Total number of batches                      ...     1040
Average number of points per batch           ...      124
Average number of grid points per atom       ...     2824
UseSFitting                                  ... on
Initializing property integral containers    ... done (  0.0 sec)

SHARK setup successfully completed in   5.6 seconds

Maximum memory used throughout the entire STARTUP-calculation: 96.3 MB


           ************************************************************
           *        Program running with 6 parallel MPI-processes     *
           *              working on a common directory               *
           ************************************************************
-------------------------------------------------------------------------------
                                 ORCA GUESS
                   Start orbitals & Density for SCF / CASSCF
-------------------------------------------------------------------------------

------------
SCF SETTINGS
------------
Hamiltonian:
 Density Functional     Method          .... DFT(GTOs)
 Exchange Functional    Exchange        .... M062X
 Correlation Functional Correlation     .... M062X
 Gradients option       PostSCFGGA      .... off
 Hybrid DFT is turned on
   Fraction HF Exchange ScalHFX         ....  0.540000
   Scaling of DF-GGA-X  ScalDFX         ....  0.460000
   Scaling of DF-GGA-C  ScalDFC         ....  1.000000
   Scaling of DF-LDA-C  ScalLDAC        ....  1.000000
   Perturbative correction              ....  0.000000
 RI-approximation to the Coulomb term is turned on
   Number of AuxJ basis functions       .... 1458
   RIJ-COSX (HFX calculated with COS-X)).... on


General Settings:
 Integral files         IntName         .... data/single_point_P_M06-2x/78464/78464
 Hartree-Fock type      HFTyp           .... RHF
 Total Charge           Charge          ....    0
 Multiplicity           Mult            ....    1
 Number of Electrons    NEL             ....  186
 Basis Dimension        Dim             ....  907
 Nuclear Repulsion      ENuc            ....   2373.0032580427 Eh

Convergence Acceleration:
 AO-DIIS                CNVDIIS         .... on
   Start iteration      DIISMaxIt       ....    12
   Startup error        DIISStart       ....  0.200000
   # of expansion vecs  DIISMaxEq       ....     5
   Bias factor          DIISBfac        ....   1.050
   Max. coefficient     DIISMaxC        ....  10.000
 MO-DIIS                CNVKDIIS        .... off
 Trust-Rad. Augm. Hess. CNVTRAH         .... auto
   Auto Start mean grad. ratio tolernc. ....  1.125000
   Auto Start start iteration           ....    50
   Auto Start num. interpolation iter.  ....    10
   Max. Number of Micro iterations      ....    24
   Max. Number of Macro iterations      .... Maxiter - #DIIS iter
   Number of Davidson start vectors     ....     2
   Converg. threshold    (grad. norm)   ....   5.000e-05
   Grad. Scal. Fac. for Micro threshold ....   0.100
   Minimum threshold for Micro iter.    ....   1.000e-02
   NR start threshold (gradient norm)   ....   1.000e-04
   Initial trust radius                 ....   0.400
   Minimum AH scaling param. (alpha)    ....   1.000
   Maximum AH scaling param. (alpha)    .... 1000.000
   Quad. conv. algorithm                .... NR
   White noise on init. David. guess    .... on
   Maximum white noise                  ....   0.010
   Pseudo random numbers                .... off
   Inactive MOs                         .... canonical
   Orbital update algorithm             .... Taylor
   Preconditioner                       .... Diag
   Full preconditioner red. dimension   ....   250
 SOSCF                  CNVSOSCF        .... on
   Start iteration      SOSCFMaxIt      ....   150
   Startup grad/error   SOSCFStart      ....  0.003300
   Hessian update       SOSCFHessUp     .... L-BFGS
 Level Shifting         CNVShift        .... on
   Level shift para.    LevelShift      ....    0.2500
   Turn off err/grad.   ShiftErr        ....    0.0010
 Zerner damping         CNVZerner       .... off
 Static damping         CNVDamp         .... on
   Fraction old density DampFac         ....    0.7000
   Max. Damping (<1)    DampMax         ....    0.9800
   Min. Damping (>=0)   DampMin         ....    0.0000
   Turn off err/grad.   DampErr         ....    0.1000

SCF Procedure:
 Maximum # iterations   MaxIter         ....   125
 SCF integral mode      SCFMode         .... Direct
   Integral package                     .... SHARK and LIBINT hybrid scheme
 Reset frequency        DirectResetFreq ....    20
 Integral Threshold     Thresh          ....  1.000e-10 Eh
 Primitive CutOff       TCut            ....  1.000e-11 Eh

Convergence Tolerance:
 Convergence Check Mode ConvCheckMode   .... Total+1el-Energy
 Convergence forced     ConvForced      .... 0
 Energy Change          TolE            ....  1.000e-06 Eh
 1-El. energy change                    ....  1.000e-03 Eh
 Orbital Gradient       TolG            ....  5.000e-05
 Orbital Rotation angle TolX            ....  5.000e-05
 DIIS Error             TolErr          ....  1.000e-05

------------------------------
INITIAL GUESS: MODEL POTENTIAL
------------------------------
Loading Hartree-Fock densities                     ... done
Calculating cut-offs                               ... done
Initializing the effective Hamiltonian             ... done
Setting up the integral package (SHARK)            ... done
Starting the Coulomb interaction                   ... done (   1.0 sec)
Making the grid                                    ... done (   0.4 sec)
Mapping shells                                     ... done
Starting the XC term evaluation                    ... done (   0.6 sec)
  promolecular density results
     # of electrons  =    185.987831964
     EX              =   -160.490994304
     EC              =     -6.285520519
     EX+EC           =   -166.776514823
Transforming the Hamiltonian                       ... done (   0.1 sec)
Diagonalizing the Hamiltonian                      ... done (   0.2 sec)
Back transforming the eigenvectors                 ... done (   0.1 sec)
Now organizing SCF variables                       ... done
                      ------------------
                      INITIAL GUESS DONE (   2.4 sec)
                      ------------------
             **** ENERGY FILE WAS UPDATED (data/single_point_P_M06-2x/78464/78464.en.tmp) ****
Finished Guess after   2.7 sec
Maximum memory used throughout the entire GUESS-calculation: 76.8 MB


           ************************************************************
           *        Program running with 6 parallel MPI-processes     *
           *              working on a common directory               *
           ************************************************************

-------------------------------------------------------------------------------------------
                                      ORCA LEAN-SCF
                              memory conserving SCF solver
-------------------------------------------------------------------------------------------

----------------------------------------D-I-I-S--------------------------------------------
Iteration    Energy (Eh)           Delta-E    RMSDP     MaxDP     DIISErr   Damp  Time(sec)
-------------------------------------------------------------------------------------------
               ***  Starting incremental Fock matrix formation  ***
    1    -1379.2651679095192776     0.00e+00  1.03e-03  3.65e-02  1.60e-01  0.700  25.0
    2    -1379.4929901263517422    -2.28e-01  8.63e-04  4.35e-02  8.27e-02  0.700  13.5
                               ***Turning on AO-DIIS***
    3    -1379.6058047599735801    -1.13e-01  5.76e-04  2.35e-02  4.49e-02  0.700  12.8
    4    -1379.6722479795780600    -6.64e-02  1.34e-03  6.69e-02  3.15e-02  0.000  12.2
                              *** Initializing SOSCF ***
---------------------------------------S-O-S-C-F--------------------------------------
Iteration    Energy (Eh)           Delta-E    RMSDP     MaxDP     MaxGrad    Time(sec)
--------------------------------------------------------------------------------------
    5    -1379.8137743703296110    -1.42e-01  1.56e-04  1.73e-02  3.27e-03    13.0
               *** Restarting incremental Fock matrix formation ***
    6    -1379.8140255484895533    -2.51e-04  1.53e-04  6.97e-03  4.74e-04    24.0
    7    -1379.8140448758495040    -1.93e-05  5.18e-05  2.87e-03  7.87e-04    17.2
    8    -1379.8140743320841466    -2.95e-05  3.96e-05  1.90e-03  1.49e-04    16.1
    9    -1379.8140748168220853    -4.85e-07  7.03e-06  3.22e-04  8.36e-05    14.9
                 **** Energy Check signals convergence ****

               *****************************************************
               *                     SUCCESS                       *
               *           SCF CONVERGED AFTER   9 CYCLES          *
               *****************************************************

Recomputing exchange energy using gridx3       ... done (   35.708 sec)
Old exchange energy                            :    -88.287405419 Eh
New exchange energy                            :    -88.287326573 Eh
Exchange energy change after final integration :      0.000078846 Eh
Total energy after final integration           :  -1379.813995971 Eh
             **** ENERGY FILE WAS UPDATED (data/single_point_P_M06-2x/78464/78464.en.tmp) ****

----------------
TOTAL SCF ENERGY
----------------

Total Energy       :      -1379.81399597056270 Eh          -37546.64767 eV

Components:
Nuclear Repulsion  :       2373.00325804271370 Eh           64572.70146 eV
Electronic Energy  :      -3752.81733285953578 Eh         -102119.35127 eV
One Electron Energy:      -6602.87329735295771 Eh         -179673.31684 eV
Two Electron Energy:       2850.05596449342192 Eh           77553.96556 eV

Virial components:
Potential Energy   :      -2752.63618991632165 Eh          -74903.03872 eV
Kinetic Energy     :       1372.82219394575895 Eh           37356.39106 eV
Virial Ratio       :          2.00509301354220

DFT components:
N(Alpha)           :       93.000123374239 electrons
N(Beta)            :       93.000123374239 electrons
N(Total)           :      186.000246748477 electrons
E(XC)              :      -82.033912090858 Eh       

---------------
SCF CONVERGENCE
---------------

  Last Energy change         ...    4.8474e-07  Tolerance :   1.0000e-06
  Last MAX-Density change    ...    3.2194e-04  Tolerance :   1.0000e-05
  Last RMS-Density change    ...    7.0347e-06  Tolerance :   1.0000e-06
  Last DIIS Error            ...    3.2737e-03  Tolerance :   1.0000e-05
  Last Orbital Gradient      ...    8.3582e-05  Tolerance :   5.0000e-05
  Last Orbital Rotation      ...    1.4206e-04  Tolerance :   5.0000e-05


----------------
ORBITAL ENERGIES
----------------

  NO   OCC          E(Eh)            E(eV) 
   0   2.0000     -78.023859     -2123.1371 
   1   2.0000     -19.659619      -534.9654 
   2   2.0000     -19.658400      -534.9323 
   3   2.0000     -19.637334      -534.3590 
   4   2.0000     -10.607466      -288.6438 
   5   2.0000     -10.606672      -288.6222 
   6   2.0000     -10.597679      -288.3775 
   7   2.0000     -10.596520      -288.3460 
   8   2.0000     -10.595098      -288.3073 
   9   2.0000     -10.581332      -287.9327 
  10   2.0000     -10.548295      -287.0337 
  11   2.0000     -10.547528      -287.0128 
  12   2.0000     -10.546465      -286.9839 
  13   2.0000     -10.545620      -286.9609 
  14   2.0000     -10.544882      -286.9408 
  15   2.0000     -10.544753      -286.9373 
  16   2.0000     -10.544569      -286.9323 
  17   2.0000     -10.544064      -286.9186 
  18   2.0000     -10.544017      -286.9173 
  19   2.0000     -10.543781      -286.9109 
  20   2.0000     -10.543582      -286.9054 
  21   2.0000     -10.543084      -286.8919 
  22   2.0000     -10.542401      -286.8733 
  23   2.0000     -10.537517      -286.7404 
  24   2.0000     -10.535776      -286.6930 
  25   2.0000      -6.839252      -186.1055 
  26   2.0000      -4.953758      -134.7986 
  27   2.0000      -4.953420      -134.7894 
  28   2.0000      -4.953345      -134.7874 
  29   2.0000      -1.192549       -32.4509 
  30   2.0000      -1.191618       -32.4256 
  31   2.0000      -1.170004       -31.8374 
  32   2.0000      -0.952898       -25.9297 
  33   2.0000      -0.945958       -25.7408 
  34   2.0000      -0.945281       -25.7224 
  35   2.0000      -0.865443       -23.5499 
  36   2.0000      -0.849269       -23.1098 
  37   2.0000      -0.842919       -22.9370 
  38   2.0000      -0.837991       -22.8029 
  39   2.0000      -0.833680       -22.6856 
  40   2.0000      -0.831458       -22.6251 
  41   2.0000      -0.784322       -21.3425 
  42   2.0000      -0.780601       -21.2412 
  43   2.0000      -0.768792       -20.9199 
  44   2.0000      -0.727650       -19.8004 
  45   2.0000      -0.688247       -18.7282 
  46   2.0000      -0.686020       -18.6676 
  47   2.0000      -0.668732       -18.1971 
  48   2.0000      -0.666818       -18.1450 
  49   2.0000      -0.662817       -18.0362 
  50   2.0000      -0.631398       -17.1812 
  51   2.0000      -0.604290       -16.4436 
  52   2.0000      -0.597887       -16.2693 
  53   2.0000      -0.584030       -15.8923 
  54   2.0000      -0.556611       -15.1462 
  55   2.0000      -0.554306       -15.0834 
  56   2.0000      -0.550313       -14.9748 
  57   2.0000      -0.548732       -14.9318 
  58   2.0000      -0.547228       -14.8908 
  59   2.0000      -0.541112       -14.7244 
  60   2.0000      -0.539644       -14.6845 
  61   2.0000      -0.528672       -14.3859 
  62   2.0000      -0.525274       -14.2934 
  63   2.0000      -0.506656       -13.7868 
  64   2.0000      -0.503866       -13.7109 
  65   2.0000      -0.495835       -13.4924 
  66   2.0000      -0.487364       -13.2619 
  67   2.0000      -0.480149       -13.0655 
  68   2.0000      -0.478249       -13.0138 
  69   2.0000      -0.464930       -12.6514 
  70   2.0000      -0.464102       -12.6289 
  71   2.0000      -0.448747       -12.2110 
  72   2.0000      -0.442849       -12.0505 
  73   2.0000      -0.438378       -11.9289 
  74   2.0000      -0.430613       -11.7176 
  75   2.0000      -0.421228       -11.4622 
  76   2.0000      -0.418852       -11.3975 
  77   2.0000      -0.418806       -11.3963 
  78   2.0000      -0.412205       -11.2167 
  79   2.0000      -0.404917       -11.0184 
  80   2.0000      -0.401668       -10.9299 
  81   2.0000      -0.392126       -10.6703 
  82   2.0000      -0.387867       -10.5544 
  83   2.0000      -0.376641       -10.2489 
  84   2.0000      -0.370312       -10.0767 
  85   2.0000      -0.341113        -9.2821 
  86   2.0000      -0.328941        -8.9509 
  87   2.0000      -0.305313        -8.3080 
  88   2.0000      -0.301211        -8.1964 
  89   2.0000      -0.294935        -8.0256 
  90   2.0000      -0.281463        -7.6590 
  91   2.0000      -0.274977        -7.4825 
  92   2.0000      -0.251009        -6.8303 
  93   0.0000       0.006795         0.1849 
  94   0.0000       0.008426         0.2293 
  95   0.0000       0.018332         0.4988 
  96   0.0000       0.024505         0.6668 
  97   0.0000       0.036323         0.9884 
  98   0.0000       0.038717         1.0535 
  99   0.0000       0.068942         1.8760 
 100   0.0000       0.072276         1.9667 
 101   0.0000       0.078368         2.1325 
 102   0.0000       0.086823         2.3626 
 103   0.0000       0.088836         2.4174 
*Only the first 10 virtual orbitals were printed.

                    ********************************
                    * MULLIKEN POPULATION ANALYSIS *
                    ********************************

-----------------------
MULLIKEN ATOMIC CHARGES
-----------------------
   0 C :   -0.313100
   1 O :   -0.281960
   2 C :    0.259634
   3 C :   -0.233621
   4 C :   -0.141104
   5 C :   -0.200876
   6 C :   -0.108024
   7 C :   -0.123090
   8 P :    0.140846
   9 C :   -0.066632
  10 C :   -0.095577
  11 C :   -0.206571
  12 C :   -0.140167
  13 C :   -0.228224
  14 C :    0.213777
  15 O :   -0.279059
  16 C :   -0.316080
  17 C :   -0.089189
  18 C :   -0.129817
  19 C :   -0.173600
  20 C :   -0.129789
  21 C :   -0.178387
  22 C :    0.180286
  23 O :   -0.325957
  24 C :   -0.251805
  25 H :    0.154341
  26 H :    0.150776
  27 H :    0.153024
  28 H :    0.161173
  29 H :    0.142157
  30 H :    0.139333
  31 H :    0.177696
  32 H :    0.179784
  33 H :    0.140397
  34 H :    0.142058
  35 H :    0.162219
  36 H :    0.157647
  37 H :    0.152475
  38 H :    0.150732
  39 H :    0.183671
  40 H :    0.143909
  41 H :    0.143559
  42 H :    0.154620
  43 H :    0.132472
  44 H :    0.145279
  45 H :    0.150764
Sum of atomic charges:    0.0000000

--------------------------------
MULLIKEN REDUCED ORBITAL CHARGES
--------------------------------
  0 C s       :     3.311844  s :     3.311844
      pz      :     1.098736  p :     2.892264
      px      :     0.849217
      py      :     0.944312
      dz2     :     0.010053  d :     0.101272
      dxz     :     0.025247
      dyz     :     0.015811
      dx2y2   :     0.032660
      dxy     :     0.017501
      f0      :     0.000848  f :     0.007719
      f+1     :     0.001074
      f-1     :     0.000546
      f+2     :     0.000317
      f-2     :     0.001582
      f+3     :     0.002154
      f-3     :     0.001199

  1 O s       :     3.785490  s :     3.785490
      pz      :     1.549810  p :     4.455621
      px      :     1.330289
      py      :     1.575522
      dz2     :     0.007510  d :     0.038675
      dxz     :     0.008524
      dyz     :     0.005733
      dx2y2   :     0.006383
      dxy     :     0.010526
      f0      :     0.000260  f :     0.002174
      f+1     :     0.000472
      f-1     :     0.000134
      f+2     :     0.000333
      f-2     :     0.000369
      f+3     :     0.000269
      f-3     :     0.000337

  2 C s       :     3.103783  s :     3.103783
      pz      :     0.756929  p :     2.469769
      px      :     0.762035
      py      :     0.950805
      dz2     :     0.042586  d :     0.152735
      dxz     :     0.020937
      dyz     :     0.028103
      dx2y2   :     0.030463
      dxy     :     0.030645
      f0      :     0.002073  f :     0.014080
      f+1     :     0.002220
      f-1     :     0.001766
      f+2     :     0.001600
      f-2     :     0.003016
      f+3     :     0.001769
      f-3     :     0.001636

  3 C s       :     3.206597  s :     3.206597
      pz      :     0.968984  p :     2.966538
      px      :     1.042899
      py      :     0.954655
      dz2     :     0.016585  d :     0.054042
      dxz     :     0.006077
      dyz     :     0.009786
      dx2y2   :     0.010232
      dxy     :     0.011362
      f0      :     0.000674  f :     0.006444
      f+1     :     0.000929
      f-1     :     0.001150
      f+2     :     0.000969
      f-2     :     0.001317
      f+3     :     0.000750
      f-3     :     0.000656

  4 C s       :     3.225942  s :     3.225942
      pz      :     0.956148  p :     2.845320
      px      :     0.913350
      py      :     0.975823
      dz2     :     0.014328  d :     0.063353
      dxz     :     0.008516
      dyz     :     0.012981
      dx2y2   :     0.017347
      dxy     :     0.010181
      f0      :     0.000992  f :     0.006488
      f+1     :     0.001047
      f-1     :     0.000408
      f+2     :     0.000857
      f-2     :     0.001337
      f+3     :     0.000844
      f-3     :     0.001003

  5 C s       :     3.244605  s :     3.244605
      pz      :     1.003530  p :     2.889431
      px      :     0.974173
      py      :     0.911728
      dz2     :     0.007988  d :     0.060525
      dxz     :     0.011765
      dyz     :     0.012678
      dx2y2   :     0.016076
      dxy     :     0.012018
      f0      :     0.000579  f :     0.006315
      f+1     :     0.000579
      f-1     :     0.001072
      f+2     :     0.000750
      f-2     :     0.001350
      f+3     :     0.001105
      f-3     :     0.000881

  6 C s       :     3.185617  s :     3.185617
      pz      :     0.897204  p :     2.848141
      px      :     0.964862
      py      :     0.986075
      dz2     :     0.020968  d :     0.067648
      dxz     :     0.009490
      dyz     :     0.010491
      dx2y2   :     0.008800
      dxy     :     0.017899
      f0      :     0.000692  f :     0.006617
      f+1     :     0.000957
      f-1     :     0.001160
      f+2     :     0.000965
      f-2     :     0.001378
      f+3     :     0.000836
      f-3     :     0.000630

  7 C s       :     3.252859  s :     3.252859
      pz      :     0.942884  p :     2.785342
      px      :     0.910292
      py      :     0.932166
      dz2     :     0.021078  d :     0.077685
      dxz     :     0.007672
      dyz     :     0.016104
      dx2y2   :     0.017231
      dxy     :     0.015600
      f0      :     0.000949  f :     0.007204
      f+1     :     0.001094
      f-1     :     0.000739
      f+2     :     0.000786
      f-2     :     0.001674
      f+3     :     0.000975
      f-3     :     0.000987

  8 P s       :     5.769804  s :     5.769804
      pz      :     3.315532  p :     8.795272
      px      :     2.737093
      py      :     2.742647
      dz2     :     0.032214  d :     0.267645
      dxz     :     0.048075
      dyz     :     0.061884
      dx2y2   :     0.055838
      dxy     :     0.069634
      f0      :     0.002679  f :     0.026433
      f+1     :     0.002665
      f-1     :     0.003637
      f+2     :     0.004525
      f-2     :     0.005556
      f+3     :     0.003967
      f-3     :     0.003403

  9 C s       :     3.248874  s :     3.248874
      pz      :     0.961624  p :     2.735450
      px      :     0.850710
      py      :     0.923116
      dz2     :     0.014449  d :     0.075162
      dxz     :     0.016665
      dyz     :     0.010033
      dx2y2   :     0.015510
      dxy     :     0.018504
      f0      :     0.000748  f :     0.007147
      f+1     :     0.000675
      f-1     :     0.001506
      f+2     :     0.001031
      f-2     :     0.001104
      f+3     :     0.001147
      f-3     :     0.000936

 10 C s       :     3.175189  s :     3.175189
      pz      :     0.914028  p :     2.846149
      px      :     1.032440
      py      :     0.899682
      dz2     :     0.014322  d :     0.067621
      dxz     :     0.010588
      dyz     :     0.011445
      dx2y2   :     0.018084
      dxy     :     0.013181
      f0      :     0.000627  f :     0.006618
      f+1     :     0.000618
      f-1     :     0.001376
      f+2     :     0.000789
      f-2     :     0.001145
      f+3     :     0.001266
      f-3     :     0.000799

 11 C s       :     3.247805  s :     3.247805
      pz      :     1.001964  p :     2.891981
      px      :     0.880112
      py      :     1.009904
      dz2     :     0.005045  d :     0.060471
      dxz     :     0.018416
      dyz     :     0.007398
      dx2y2   :     0.013002
      dxy     :     0.016609
      f0      :     0.000836  f :     0.006314
      f+1     :     0.000853
      f-1     :     0.000618
      f+2     :     0.000983
      f-2     :     0.000851
      f+3     :     0.001298
      f-3     :     0.000876

 12 C s       :     3.228956  s :     3.228956
      pz      :     0.948776  p :     2.841439
      px      :     0.953654
      py      :     0.939010
      dz2     :     0.014338  d :     0.063283
      dxz     :     0.012315
      dyz     :     0.008250
      dx2y2   :     0.013721
      dxy     :     0.014659
      f0      :     0.000732  f :     0.006489
      f+1     :     0.000577
      f-1     :     0.001332
      f+2     :     0.000920
      f-2     :     0.000892
      f+3     :     0.000992
      f-3     :     0.001045

 13 C s       :     3.200688  s :     3.200688
      pz      :     1.013519  p :     2.966932
      px      :     0.990175
      py      :     0.963239
      dz2     :     0.013541  d :     0.054156
      dxz     :     0.008781
      dyz     :     0.007755
      dx2y2   :     0.010703
      dxy     :     0.013376
      f0      :     0.000692  f :     0.006448
      f+1     :     0.000587
      f-1     :     0.001425
      f+2     :     0.000760
      f-2     :     0.001067
      f+3     :     0.001137
      f-3     :     0.000780

 14 C s       :     3.128705  s :     3.128705
      pz      :     0.835404  p :     2.488908
      px      :     0.933901
      py      :     0.719604
      dz2     :     0.029800  d :     0.154510
      dxz     :     0.029276
      dyz     :     0.023543
      dx2y2   :     0.032247
      dxy     :     0.039644
      f0      :     0.001307  f :     0.014099
      f+1     :     0.001014
      f-1     :     0.003275
      f+2     :     0.001815
      f-2     :     0.002138
      f+3     :     0.002769
      f-3     :     0.001780

 15 O s       :     3.787923  s :     3.787923
      pz      :     1.628183  p :     4.450298
      px      :     1.418929
      py      :     1.403186
      dz2     :     0.005586  d :     0.038669
      dxz     :     0.005401
      dyz     :     0.007681
      dx2y2   :     0.012765
      dxy     :     0.007236
      f0      :     0.000312  f :     0.002169
      f+1     :     0.000173
      f-1     :     0.000351
      f+2     :     0.000412
      f-2     :     0.000313
      f+3     :     0.000275
      f-3     :     0.000333

 16 C s       :     3.312134  s :     3.312134
      pz      :     1.062992  p :     2.895117
      px      :     0.766580
      py      :     1.065545
      dz2     :     0.008246  d :     0.101126
      dxz     :     0.035564
      dyz     :     0.011497
      dx2y2   :     0.022457
      dxy     :     0.023362
      f0      :     0.000835  f :     0.007703
      f+1     :     0.001444
      f-1     :     0.000353
      f+2     :     0.001119
      f-2     :     0.001040
      f+3     :     0.001838
      f-3     :     0.001074

 17 C s       :     3.256378  s :     3.256378
      pz      :     0.846076  p :     2.749220
      px      :     0.974193
      py      :     0.928950
      dz2     :     0.019537  d :     0.076500
      dxz     :     0.015604
      dyz     :     0.014924
      dx2y2   :     0.014556
      dxy     :     0.011878
      f0      :     0.001091  f :     0.007090
      f+1     :     0.000898
      f-1     :     0.001288
      f+2     :     0.001114
      f-2     :     0.001252
      f+3     :     0.000664
      f-3     :     0.000783

 18 C s       :     3.187729  s :     3.187729
      pz      :     0.910163  p :     2.868883
      px      :     0.958039
      py      :     1.000682
      dz2     :     0.013768  d :     0.066618
      dxz     :     0.013882
      dyz     :     0.014756
      dx2y2   :     0.013862
      dxy     :     0.010350
      f0      :     0.001093  f :     0.006587
      f+1     :     0.000965
      f-1     :     0.000733
      f+2     :     0.000917
      f-2     :     0.001206
      f+3     :     0.001110
      f-3     :     0.000564

 19 C s       :     3.232572  s :     3.232572
      pz      :     0.994855  p :     2.873911
      px      :     0.955556
      py      :     0.923501
      dz2     :     0.010078  d :     0.060808
      dxz     :     0.013487
      dyz     :     0.009931
      dx2y2   :     0.019104
      dxy     :     0.008207
      f0      :     0.000399  f :     0.006308
      f+1     :     0.000933
      f-1     :     0.001020
      f+2     :     0.000835
      f-2     :     0.001085
      f+3     :     0.001133
      f-3     :     0.000903

 20 C s       :     3.223593  s :     3.223593
      pz      :     0.908767  p :     2.838486
      px      :     0.983498
      py      :     0.946221
      dz2     :     0.018099  d :     0.061342
      dxz     :     0.012509
      dyz     :     0.010314
      dx2y2   :     0.008781
      dxy     :     0.011639
      f0      :     0.001059  f :     0.006368
      f+1     :     0.000694
      f-1     :     0.001177
      f+2     :     0.000992
      f-2     :     0.001117
      f+3     :     0.000447
      f-3     :     0.000881

 21 C s       :     3.214276  s :     3.214276
      pz      :     0.941272  p :     2.898822
      px      :     0.937686
      py      :     1.019863
      dz2     :     0.013057  d :     0.058830
      dxz     :     0.008745
      dyz     :     0.014222
      dx2y2   :     0.011328
      dxy     :     0.011478
      f0      :     0.001097  f :     0.006460
      f+1     :     0.000962
      f-1     :     0.000751
      f+2     :     0.000943
      f-2     :     0.001173
      f+3     :     0.000996
      f-3     :     0.000537

 22 C s       :     3.051055  s :     3.051055
      pz      :     0.809033  p :     2.588135
      px      :     0.852002
      py      :     0.927099
      dz2     :     0.030187  d :     0.166710
      dxz     :     0.037847
      dyz     :     0.041150
      dx2y2   :     0.038589
      dxy     :     0.018937
      f0      :     0.002075  f :     0.013814
      f+1     :     0.001876
      f-1     :     0.002630
      f+2     :     0.002420
      f-2     :     0.001970
      f+3     :     0.001627
      f-3     :     0.001216

 23 O s       :     3.800038  s :     3.800038
      pz      :     1.164924  p :     4.486299
      px      :     1.634487
      py      :     1.686888
      dz2     :     0.007550  d :     0.037576
      dxz     :     0.011794
      dyz     :     0.009456
      dx2y2   :     0.003611
      dxy     :     0.005166
      f0      :     0.000455  f :     0.002044
      f+1     :     0.000441
      f-1     :     0.000388
      f+2     :     0.000239
      f-2     :     0.000339
      f+3     :     0.000085
      f-3     :     0.000097

 24 C s       :     3.280158  s :     3.280158
      pz      :     0.814097  p :     2.863050
      px      :     1.032866
      py      :     1.016086
      dz2     :     0.024111  d :     0.101114
      dxz     :     0.023505
      dyz     :     0.018752
      dx2y2   :     0.028448
      dxy     :     0.006298
      f0      :     0.001429  f :     0.007483
      f+1     :     0.001349
      f-1     :     0.001187
      f+2     :     0.001531
      f-2     :     0.001007
      f+3     :     0.000343
      f-3     :     0.000636

 25 H s       :     0.827150  s :     0.827150
      pz      :     0.008214  p :     0.018510
      px      :     0.006025
      py      :     0.004270

 26 H s       :     0.831872  s :     0.831872
      pz      :     0.004122  p :     0.017353
      px      :     0.003048
      py      :     0.010183

 27 H s       :     0.829620  s :     0.829620
      pz      :     0.009008  p :     0.017355
      px      :     0.005400
      py      :     0.002947

 28 H s       :     0.818492  s :     0.818492
      pz      :     0.003691  p :     0.020336
      px      :     0.008652
      py      :     0.007993

 29 H s       :     0.838226  s :     0.838226
      pz      :     0.006274  p :     0.019617
      px      :     0.003038
      py      :     0.010304

 30 H s       :     0.840936  s :     0.840936
      pz      :     0.008369  p :     0.019731
      px      :     0.008239
      py      :     0.003123

 31 H s       :     0.801618  s :     0.801618
      pz      :     0.003376  p :     0.020686
      px      :     0.008371
      py      :     0.008940

 32 H s       :     0.799467  s :     0.799467
      pz      :     0.003949  p :     0.020749
      px      :     0.012954
      py      :     0.003846

 33 H s       :     0.839856  s :     0.839856
      pz      :     0.006519  p :     0.019747
      px      :     0.002840
      py      :     0.010387

 34 H s       :     0.838332  s :     0.838332
      pz      :     0.004386  p :     0.019610
      px      :     0.009182
      py      :     0.006042

 35 H s       :     0.817465  s :     0.817465
      pz      :     0.004437  p :     0.020316
      px      :     0.011784
      py      :     0.004094

 36 H s       :     0.823752  s :     0.823752
      pz      :     0.005916  p :     0.018601
      px      :     0.002327
      py      :     0.010357

 37 H s       :     0.830193  s :     0.830193
      pz      :     0.006305  p :     0.017331
      px      :     0.004813
      py      :     0.006213

 38 H s       :     0.831949  s :     0.831949
      pz      :     0.008818  p :     0.017320
      px      :     0.005092
      py      :     0.003410

 39 H s       :     0.795736  s :     0.795736
      pz      :     0.006159  p :     0.020593
      px      :     0.004906
      py      :     0.009528

 40 H s       :     0.836411  s :     0.836411
      pz      :     0.010841  p :     0.019680
      px      :     0.005050
      py      :     0.003788

 41 H s       :     0.836802  s :     0.836802
      pz      :     0.003984  p :     0.019639
      px      :     0.009719
      py      :     0.005936

 42 H s       :     0.825683  s :     0.825683
      pz      :     0.006335  p :     0.019698
      px      :     0.004154
      py      :     0.009209

 43 H s       :     0.850080  s :     0.850080
      pz      :     0.002641  p :     0.017448
      px      :     0.011326
      py      :     0.003481

 44 H s       :     0.836570  s :     0.836570
      pz      :     0.008409  p :     0.018151
      px      :     0.005684
      py      :     0.004058

 45 H s       :     0.831227  s :     0.831227
      pz      :     0.002352  p :     0.018009
      px      :     0.003252
      py      :     0.012405



                     *******************************
                     * LOEWDIN POPULATION ANALYSIS *
                     *******************************

----------------------
LOEWDIN ATOMIC CHARGES
----------------------
   0 C :   -0.338256
   1 O :    0.233833
   2 C :   -0.246079
   3 C :   -0.150256
   4 C :   -0.144116
   5 C :   -0.163123
   6 C :   -0.133028
   7 C :   -0.248434
   8 P :    0.728218
   9 C :   -0.246871
  10 C :   -0.125900
  11 C :   -0.159495
  12 C :   -0.142303
  13 C :   -0.150828
  14 C :   -0.251695
  15 O :    0.235214
  16 C :   -0.337945
  17 C :   -0.244138
  18 C :   -0.130158
  19 C :   -0.153085
  20 C :   -0.141197
  21 C :   -0.122454
  22 C :   -0.257006
  23 O :    0.195810
  24 C :   -0.341534
  25 H :    0.119856
  26 H :    0.112448
  27 H :    0.113351
  28 H :    0.149954
  29 H :    0.147055
  30 H :    0.145673
  31 H :    0.159139
  32 H :    0.159663
  33 H :    0.146281
  34 H :    0.147303
  35 H :    0.149937
  36 H :    0.120909
  37 H :    0.112952
  38 H :    0.112454
  39 H :    0.159328
  40 H :    0.146634
  41 H :    0.147051
  42 H :    0.152656
  43 H :    0.106648
  44 H :    0.116130
  45 H :    0.109404

-------------------------------
LOEWDIN REDUCED ORBITAL CHARGES
-------------------------------
  0 C s       :     2.867449  s :     2.867449
      pz      :     1.096838  p :     3.025480
      px      :     0.924121
      py      :     1.004522
      dz2     :     0.042233  d :     0.389891
      dxz     :     0.098877
      dyz     :     0.052530
      dx2y2   :     0.104213
      dxy     :     0.092039
      f0      :     0.005456  f :     0.055435
      f+1     :     0.007097
      f-1     :     0.005627
      f+2     :     0.002095
      f-2     :     0.009399
      f+3     :     0.015467
      f-3     :     0.010294

  1 O s       :     3.240107  s :     3.240107
      pz      :     1.510487  p :     4.407326
      px      :     1.357045
      py      :     1.539794
      dz2     :     0.019525  d :     0.112088
      dxz     :     0.027374
      dyz     :     0.014096
      dx2y2   :     0.022898
      dxy     :     0.028195
      f0      :     0.000855  f :     0.006646
      f+1     :     0.000981
      f-1     :     0.000625
      f+2     :     0.000826
      f-2     :     0.001284
      f+3     :     0.001157
      f-3     :     0.000919

  2 C s       :     2.721524  s :     2.721524
      pz      :     0.855883  p :     2.759061
      px      :     0.877701
      py      :     1.025478
      dz2     :     0.143846  d :     0.672104
      dxz     :     0.125337
      dyz     :     0.122794
      dx2y2   :     0.133602
      dxy     :     0.146526
      f0      :     0.012817  f :     0.093389
      f+1     :     0.014543
      f-1     :     0.011175
      f+2     :     0.011191
      f-2     :     0.018070
      f+3     :     0.013591
      f-3     :     0.012003

  3 C s       :     2.768934  s :     2.768934
      pz      :     1.001802  p :     2.983902
      px      :     0.992070
      py      :     0.990030
      dz2     :     0.080941  d :     0.357428
      dxz     :     0.051694
      dyz     :     0.073324
      dx2y2   :     0.055451
      dxy     :     0.096019
      f0      :     0.004133  f :     0.039993
      f+1     :     0.005199
      f-1     :     0.006409
      f+2     :     0.006864
      f-2     :     0.007057
      f+3     :     0.005595
      f-3     :     0.004736

  4 C s       :     2.776818  s :     2.776818
      pz      :     0.956125  p :     2.941562
      px      :     1.005779
      py      :     0.979658
      dz2     :     0.057777  d :     0.384636
      dxz     :     0.070152
      dyz     :     0.081185
      dx2y2   :     0.106050
      dxy     :     0.069471
      f0      :     0.006345  f :     0.041100
      f+1     :     0.005250
      f-1     :     0.003403
      f+2     :     0.004778
      f-2     :     0.007674
      f+3     :     0.006591
      f-3     :     0.007058

  5 C s       :     2.775289  s :     2.775289
      pz      :     0.960235  p :     2.973137
      px      :     0.979726
      py      :     1.033176
      dz2     :     0.046362  d :     0.373988
      dxz     :     0.073181
      dyz     :     0.069835
      dx2y2   :     0.097630
      dxy     :     0.086979
      f0      :     0.004078  f :     0.040708
      f+1     :     0.002540
      f-1     :     0.007203
      f+2     :     0.004785
      f-2     :     0.007429
      f+3     :     0.008760
      f-3     :     0.005913

  6 C s       :     2.773985  s :     2.773985
      pz      :     0.967918  p :     2.928654
      px      :     0.964131
      py      :     0.996605
      dz2     :     0.093323  d :     0.389247
      dxz     :     0.054798
      dyz     :     0.078945
      dx2y2   :     0.054648
      dxy     :     0.107534
[...]
      py      :     0.031873

 27 H s       :     0.828946  s :     0.828946
      pz      :     0.029594  p :     0.057702
      px      :     0.017530
      py      :     0.010578

 28 H s       :     0.791981  s :     0.791981
      pz      :     0.012422  p :     0.058065
      px      :     0.023450
      py      :     0.022193

 29 H s       :     0.797411  s :     0.797411
      pz      :     0.017827  p :     0.055535
      px      :     0.010540
      py      :     0.027167

 30 H s       :     0.798188  s :     0.798188
      pz      :     0.022732  p :     0.056139
      px      :     0.022525
      py      :     0.010881

 31 H s       :     0.782581  s :     0.782581
      pz      :     0.011225  p :     0.058280
      px      :     0.022770
      py      :     0.024285

 32 H s       :     0.781878  s :     0.781878
      pz      :     0.012501  p :     0.058459
      px      :     0.033769
      py      :     0.012189

 33 H s       :     0.797529  s :     0.797529
      pz      :     0.018438  p :     0.056191
      px      :     0.010300
      py      :     0.027453

 34 H s       :     0.797180  s :     0.797180
      pz      :     0.013370  p :     0.055517
      px      :     0.024817
      py      :     0.017331

 35 H s       :     0.791960  s :     0.791960
      pz      :     0.014191  p :     0.058102
      px      :     0.030762
      py      :     0.013149

 36 H s       :     0.821625  s :     0.821625
      pz      :     0.018271  p :     0.057466
      px      :     0.008743
      py      :     0.030453

 37 H s       :     0.829399  s :     0.829399
      pz      :     0.020873  p :     0.057650
      px      :     0.015549
      py      :     0.021228

 38 H s       :     0.829927  s :     0.829927
      pz      :     0.028902  p :     0.057618
      px      :     0.016318
      py      :     0.012398

 39 H s       :     0.782429  s :     0.782429
      pz      :     0.017708  p :     0.058243
      px      :     0.014885
      py      :     0.025650

 40 H s       :     0.797421  s :     0.797421
      pz      :     0.028567  p :     0.055945
      px      :     0.015137
      py      :     0.012242

 41 H s       :     0.797268  s :     0.797268
      pz      :     0.012696  p :     0.055681
      px      :     0.025800
      py      :     0.017185

 42 H s       :     0.790914  s :     0.790914
      pz      :     0.018271  p :     0.056431
      px      :     0.013297
      py      :     0.024863

 43 H s       :     0.836195  s :     0.836195
      pz      :     0.009254  p :     0.057157
      px      :     0.035402
      py      :     0.012502

 44 H s       :     0.826479  s :     0.826479
      pz      :     0.024235  p :     0.057391
      px      :     0.019061
      py      :     0.014095

 45 H s       :     0.831515  s :     0.831515
      pz      :     0.008641  p :     0.059082
      px      :     0.011555
      py      :     0.038885



                      *****************************
                      * MAYER POPULATION ANALYSIS *
                      *****************************

  NA   - Mulliken gross atomic population
  ZA   - Total nuclear charge
  QA   - Mulliken gross atomic charge
  VA   - Mayer's total valence
  BVA  - Mayer's bonded valence
  FA   - Mayer's free valence

  ATOM       NA         ZA         QA         VA         BVA        FA
  0 C      6.3131     6.0000    -0.3131     3.8753     3.8753    -0.0000
  1 O      8.2820     8.0000    -0.2820     1.9995     1.9995    -0.0000
  2 C      5.7404     6.0000     0.2596     3.8352     3.8352     0.0000
  3 C      6.2336     6.0000    -0.2336     3.9473     3.9473     0.0000
  4 C      6.1411     6.0000    -0.1411     3.9674     3.9674     0.0000
  5 C      6.2009     6.0000    -0.2009     4.0056     4.0056     0.0000
  6 C      6.1080     6.0000    -0.1080     3.8689     3.8689     0.0000
  7 C      6.1231     6.0000    -0.1231     3.7683     3.7683     0.0000
  8 P     14.8592    15.0000     0.1408     3.0570     3.0570     0.0000
  9 C      6.0666     6.0000    -0.0666     3.7350     3.7350     0.0000
 10 C      6.0956     6.0000    -0.0956     3.8862     3.8862     0.0000
 11 C      6.2066     6.0000    -0.2066     4.0174     4.0174     0.0000
 12 C      6.1402     6.0000    -0.1402     3.9685     3.9685    -0.0000
 13 C      6.2282     6.0000    -0.2282     3.9479     3.9479    -0.0000
 14 C      5.7862     6.0000     0.2138     3.8540     3.8540    -0.0000
 15 O      8.2791     8.0000    -0.2791     2.0029     2.0029     0.0000
 16 C      6.3161     6.0000    -0.3161     3.8745     3.8745    -0.0000
 17 C      6.0892     6.0000    -0.0892     3.7294     3.7294    -0.0000
 18 C      6.1298     6.0000    -0.1298     3.8509     3.8509    -0.0000
 19 C      6.1736     6.0000    -0.1736     3.9801     3.9801    -0.0000
 20 C      6.1298     6.0000    -0.1298     3.9132     3.9132    -0.0000
 21 C      6.1784     6.0000    -0.1784     4.0218     4.0218     0.0000
 22 C      5.8197     6.0000     0.1803     3.9318     3.9318    -0.0000
 23 O      8.3260     8.0000    -0.3260     1.9135     1.9135     0.0000
 24 C      6.2518     6.0000    -0.2518     3.8328     3.8328    -0.0000
 25 H      0.8457     1.0000     0.1543     0.9619     0.9619    -0.0000
 26 H      0.8492     1.0000     0.1508     0.9429     0.9429    -0.0000
 27 H      0.8470     1.0000     0.1530     0.9451     0.9451    -0.0000
 28 H      0.8388     1.0000     0.1612     0.9597     0.9597     0.0000
 29 H      0.8578     1.0000     0.1422     0.9654     0.9654     0.0000
 30 H      0.8607     1.0000     0.1393     0.9680     0.9680     0.0000
 31 H      0.8223     1.0000     0.1777     0.9531     0.9531     0.0000
 32 H      0.8202     1.0000     0.1798     0.9449     0.9449     0.0000
 33 H      0.8596     1.0000     0.1404     0.9676     0.9676     0.0000
 34 H      0.8579     1.0000     0.1421     0.9655     0.9655    -0.0000
 35 H      0.8378     1.0000     0.1622     0.9596     0.9596     0.0000
 36 H      0.8424     1.0000     0.1576     0.9623     0.9623    -0.0000
 37 H      0.8475     1.0000     0.1525     0.9434     0.9434    -0.0000
 38 H      0.8493     1.0000     0.1507     0.9451     0.9451    -0.0000
 39 H      0.8163     1.0000     0.1837     0.9545     0.9545    -0.0000
 40 H      0.8561     1.0000     0.1439     0.9664     0.9664    -0.0000
 41 H      0.8564     1.0000     0.1436     0.9642     0.9642    -0.0000
 42 H      0.8454     1.0000     0.1546     0.9675     0.9675     0.0000
 43 H      0.8675     1.0000     0.1325     0.9509     0.9509    -0.0000
 44 H      0.8547     1.0000     0.1453     0.9602     0.9602     0.0000
 45 H      0.8492     1.0000     0.1508     0.9522     0.9522    -0.0000

  Mayer bond orders larger than 0.100000
B(  0-C ,  1-O ) :   0.9449 B(  0-C , 25-H ) :   0.9734 B(  0-C , 26-H ) :   0.9645 
B(  0-C , 27-H ) :   0.9638 B(  1-O ,  2-C ) :   1.0643 B(  2-C ,  3-C ) :   1.4124 
B(  2-C ,  7-C ) :   1.2867 B(  3-C ,  4-C ) :   1.4369 B(  3-C , 28-H ) :   0.9211 
B(  4-C ,  5-C ) :   1.4721 B(  4-C , 29-H ) :   0.9434 B(  5-C ,  6-C ) :   1.4459 
B(  5-C , 30-H ) :   0.9476 B(  6-C ,  7-C ) :   1.4136 B(  6-C , 31-H ) :   0.9190 
B(  7-C ,  8-P ) :   0.9575 B(  8-P ,  9-C ) :   0.9586 B(  8-P , 17-C ) :   0.8686 
B(  9-C , 10-C ) :   1.4052 B(  9-C , 14-C ) :   1.2741 B( 10-C , 11-C ) :   1.4560 
B( 10-C , 32-H ) :   0.9221 B( 11-C , 12-C ) :   1.4717 B( 11-C , 33-H ) :   0.9472 
B( 12-C , 13-C ) :   1.4386 B( 12-C , 34-H ) :   0.9441 B( 13-C , 14-C ) :   1.4138 
B( 13-C , 35-H ) :   0.9194 B( 14-C , 15-O ) :   1.0692 B( 15-O , 16-C ) :   0.9440 
B( 16-C , 36-H ) :   0.9728 B( 16-C , 37-H ) :   0.9645 B( 16-C , 38-H ) :   0.9636 
B( 17-C , 18-C ) :   1.3505 B( 17-C , 22-C ) :   1.3345 B( 18-C , 19-C ) :   1.4736 
B( 18-C , 39-H ) :   0.9178 B( 19-C , 20-C ) :   1.4350 B( 19-C , 40-H ) :   0.9448 
B( 20-C , 21-C ) :   1.4393 B( 20-C , 41-H ) :   0.9473 B( 21-C , 22-C ) :   1.4979 
B( 21-C , 42-H ) :   0.9308 B( 22-C , 23-O ) :   0.9270 B( 23-O , 24-C ) :   0.9154 
B( 24-C , 43-H ) :   0.9663 B( 24-C , 44-H ) :   0.9742 B( 24-C , 45-H ) :   0.9574 


-------
TIMINGS
-------

Total SCF time: 0 days 0 hours 3 min 5 sec 

Total time                  ....     185.616 sec
Sum of individual times     ....     185.771 sec  (100.1%)

SCF preparation             ....       0.419 sec  (  0.2%)
Fock matrix formation       ....     179.282 sec  ( 96.6%)
  Startup                   ....       0.166 sec  (  0.1% of F)
  Split-RI-J                ....      12.544 sec  (  7.0% of F)
  Chain of spheres X        ....     133.371 sec  ( 74.4% of F)
  XC integration            ....      32.737 sec  ( 18.3% of F)
    Basis function eval.    ....       4.709 sec  ( 14.4% of XC)
    Density eval.           ....      13.933 sec  ( 42.6% of XC)
    XC-Functional eval.     ....       0.498 sec  (  1.5% of XC)
    XC-Potential eval.      ....      12.587 sec  ( 38.4% of XC)
Diagonalization             ....       0.000 sec  (  0.0%)
Density matrix formation    ....       0.450 sec  (  0.2%)
Total Energy calculation    ....       0.182 sec  (  0.1%)
Population analysis         ....       0.331 sec  (  0.2%)
Orbital Transformation      ....       0.775 sec  (  0.4%)
Orbital Orthonormalization  ....       0.000 sec  (  0.0%)
DIIS solution               ....       2.916 sec  (  1.6%)
SOSCF solution              ....       1.416 sec  (  0.8%)
Finished LeanSCF after 185.7 sec

Maximum memory used throughout the entire LEANSCF-calculation: 147.1 MB


-------------------------------------------------------------------------------
                          DFT DISPERSION CORRECTION                            
                                                                               
                              DFTD3 V3.1  Rev 1                                
                              USING zero damping                               
-------------------------------------------------------------------------------
The M062X functional is recognized
Active option DFTDOPT                   ...         3   

molecular C6(AA) [au] = 26012.848456 


            DFT-D V3
 parameters
 s6 scaling factor         :     1.0000 
 rs6 scaling factor        :     1.6190 
 s8 scaling factor         :     0.0000 
 rs8 scaling factor        :     1.0000 
 Damping factor alpha6     :    14.0000 
 Damping factor alpha8     :    16.0000 
 ad hoc parameters k1-k3   :    16.0000     1.3333    -4.0000 

 Edisp/kcal,au: -2.362619761460  -0.003765073847 
 E6   /kcal   :  -2.362619761 
 E8   /kcal   :  -0.000000000 
 % E8         :   0.000000000 

-------------------------   ----------------
Dispersion correction           -0.003765074
-------------------------   ----------------


-------------------------   --------------------
FINAL SINGLE POINT ENERGY     -1379.817761044410
-------------------------   --------------------



           ************************************************************
           *        Program running with 6 parallel MPI-processes     *
           *              working on a common directory               *
           ************************************************************

------------------------------------------------------------------------------
                              ORCA PROPERTY CALCULATIONS
------------------------------------------------------------------------------

GBWName                                 ... data/single_point_P_M06-2x/78464/78464.gbw
Number of atoms                         ...     46
Number of basis functions               ...    907
Max core memory                         ...   1024 MB

Electric properties:
Dipole moment                           ... YES
Quadrupole moment                       ...  NO
Static polarizability (Dipole/Dipole)   ...  NO
Static polarizability (Dipole/Quad.)    ...  NO
Static polarizability (Quad./Quad.)     ...  NO
Static polarizability (Velocity)        ...  NO

Atomic electric properties:
Dipole moment                           ...  NO
Quadrupole moment                       ...  NO
Static polarizability                   ...  NO

Choice of electric origin               ... Center of mass
Position of electric origin             ...    -0.043054    -0.178893    -0.044018

General magnetic properties:
Magnetizability                         ...  NO

EPR properties:
g-Tensor (aka g-matrix)                 ...  NO
Zero-Field splitting spin-orbit         ...  NO
Zero-field splitting spin-spin          ...  NO
Hyperfine couplings                     ...  NO (   0 nuclei)
Quadrupole couplings                    ...  NO (   0 nuclei)
Contact density                         ...  NO (   0 nuclei)

NMR properties:
Chemical shifts                         ...  NO (   0 nuclei)
Spin-rotation constants                 ...  NO (   0 nuclei)
Spin-spin couplings                     ...  NO (   0 nuclei,    0 pairs)

Choice of magnetic origin               ... GIAO
Position of magnetic origin             ...     0.000000     0.000000     0.000000

Properties with geometric perturbations:
SCF Hessian                             ...  NO
IR spectrum                             ...  NO
VCD spectrum                            ...  NO
X-ray spectroscopy properties:
SCF XES/XAS/RIXS spectra                ...  NO


-------------
DIPOLE MOMENT
-------------

Method             : SCF
Type of density    : Electron Density
Multiplicity       :   1
Irrep              :   0
Energy             : -1379.8139959705627007 Eh
Relativity type    : 
Basis              : AO
                                X                 Y                 Z
Electronic contribution:     -0.956416762      -3.923268596       0.708332138
Nuclear contribution   :      1.113436042       4.673837307      -0.723541424
                        -----------------------------------------
Total Dipole Moment    :      0.157019280       0.750568711      -0.015209286
                        -----------------------------------------
Magnitude (a.u.)       :      0.766967904
Magnitude (Debye)      :      1.949477485



--------------------
Rotational spectrum 
--------------------
 
Rotational constants in cm-1:             0.007888             0.006987             0.004845 
Rotational constants in MHz :           236.486996           209.466551           145.262720 

Dipole components along the rotational axes: 
x,y,z [a.u.] :     0.187245     0.728236    -0.151167 
x,y,z [Debye]:     0.475938     1.851029    -0.384237 

 

Dipole moment calculation done in   0.1 sec 

Maximum memory used throughout the entire PROP-calculation: 80.8 MB

--------------------------------
SUGGESTED CITATIONS FOR THIS RUN
--------------------------------

Below you find a list of papers that are relevant to this ORCA run
We neither can nor want to force you to cite these papers, but we appreciate if you do
You receive ORCA, which is the product of decades of hard work by many enthusiastic individuals, for free
The only thing we kindly ask in return is that you cite our papers,
We deeply appreciate it, if you show your appreciation for ORCA by not just citing the generic ORCA reference.

Please note that relegating all ORCA citations to the supporting information does *not* help us.
SI sections are not indexed - citations you put there will not count into any citation statistics
But we need these citations in order to attract the funding resources that allow us to do what we are doing

Therefore, if you are a happy ORCA user, please consider citing a few of the papers listed below in the main body of your paper

In addition to the list printed below, the program has created the file data/single_point_P_M06-2x/78464/78464.bibtex that contains the list in bibtex format
You can import this file easily into all common literature databanks and citation aid programs


List of essential papers. We consider these as the minimum necessary citations

  1. Neese,F.
     Software update: the ORCA program system, version 5.0
     WIRES Comput. Molec. Sci., 2022 12(1)e1606
     doi.org/10.1002/wcms.1606

List of papers to cite with high priority. The work reported in these papers was absolutely
necessary for this run to complete.
Our perspective: the developers of density functionals and basis sets usually get cited in chemistry papers
Good! But without the algorithms to do something with them, the functionals or basis sets would not do anything.
Hence, in our opinion, the algorithm design and method developments papers are equally worthy of getting cited

  1. Neese,F.
     An improvement of the resolution of the identity approximation for the formation of the Coulomb matrix
     J. Comp. Chem., 2003 24(14)1740-1747
     doi.org/10.1002/jcc.10318
  2. Neese,F.; Wennmohs,F.; Hansen,A.; Becker,U.
     Efficient, approximate and parallel Hartree-Fock and hybrid DFT calculations. A 'chain-of-spheres' algorithm for the Hartree-Fock exchange
     Chem. Phys., 2009 356(1-3)98-109
     doi.org/10.1016/j.chemphys.2008.10.036
  3. Helmich-Paris,B.; de Souza,B.; Neese,F.; Izsák,R.
     An improved chain of spheres for exchange algorithm
     J. Chem. Phys., 2021 155 104109
     doi.org/doi: 10.1063/5.0058766.
  4. Neese,F.
     The SHARK Integral Generation and Digestion System
     J. Comp. Chem., 2022  1-16
     doi.org/10.1002/jcc.26942
  5. Grimme,S.; Antony,J.; Ehrlich,S.; Krieg,H.
     A consistent and accurate ab initio parametrization of density functional dispersion correction (DFT-D) for the 94 elements H-Pu
     J. Chem. Phys., 2010 132 154104-XXXX
     doi.org/10.1063/1.3382344

List of suggested additional citations. These are papers that are important in the 'surrounding' of 
of this run, or papers that preceded the highly important papers. If you like your results we are grateful for a citation.

  1. Izsak,R.; Neese,F.
     An overlap fitted chain of spheres exchange method
     J. Chem. Phys., 2011 135 144105
     doi.org/10.1063/1.3646921
  2. Izsak,R.; Hansen,A.; Neese,F.
     The resolution of identity and chain of spheres approximations for the LPNO-CCSD singles Fock term
     Molec. Phys., 2012 110 2413-2417
     doi.org/10.1080/00268976.2012.687466
  3. Neese,F.
     The ORCA program system
     WIRES Comput. Molec. Sci., 2012 2(1)73-78
     doi.org/10.1002/wcms.81
  4. Izsak,R.; Neese,F.; Klopper,W.
     Robust fitting techniques in the chain of spheres approximation to the Fock exchange: The role of the complementary space
     J. Chem. Phys., 2013 139 
     doi.org/10.1063/1.4819264
  5. Neese,F.
     Software update: the ORCA program system, version 4.0
     WIRES Comput. Molec. Sci., 2018 8(1)1-6
     doi.org/10.1002/wcms.1327
  6. Neese,F.; Wennmohs,F.; Becker,U.; Riplinger,C.
     The ORCA quantum chemistry program package
     J. Chem. Phys., 2020 152 Art. No. L224108
     doi.org/10.1063/5.0004608

List of optional additional citations

  1. Neese,F.
     Approximate second-order SCF convergence for spin unrestricted wavefunctions
     Chem. Phys. Lett., 2000 325(1-3)93-98
     doi.org/10.1016/s0009-2614(00)00662-x

Timings for individual modules:

Sum of individual times          ...      194.720 sec (=   3.245 min)
Startup calculation              ...        5.705 sec (=   0.095 min)   2.9 %
SCF iterations                   ...      188.644 sec (=   3.144 min)  96.9 %
Property calculations            ...        0.371 sec (=   0.006 min)   0.2 %
                             ****ORCA TERMINATED NORMALLY****
TOTAL RUN TIME: 0 days 0 hours 3 minutes 14 seconds 968 msec
