
                                 *****************
                                 * O   R   C   A *
                                 *****************

                                            #,                                       
                                            ###                                      
                                            ####                                     
                                            #####                                    
                                            ######                                   
                                           ########,                                 
                                     ,,################,,,,,                         
                               ,,#################################,,                 
                          ,,##########################################,,             
                       ,#########################################, ''#####,          
                    ,#############################################,,   '####,        
                  ,##################################################,,,,####,       
                ,###########''''           ''''###############################       
              ,#####''   ,,,,##########,,,,          '''####'''          '####       
            ,##' ,,,,###########################,,,                        '##       
           ' ,,###''''                  '''############,,,                           
         ,,##''                                '''############,,,,        ,,,,,,###''
      ,#''                                            '''#######################'''  
     '                                                          ''''####''''         
             ,#######,   #######,   ,#######,      ##                                
            ,#'     '#,  ##    ##  ,#'     '#,    #''#        ,####,   ,####,        
            ##       ##  ##   ,#'  ##            #'  '#       #'       #'  '#        
            ##       ##  #######   ##           ,######,      #####,   #    #        
            '#,     ,#'  ##    ##  '#,     ,#' ,#      #,     #,   #   #,  ,#        
             '#######'   ##     ##  '#######'  #'      '#     '####' # '####'        



                #########################################################
                #                        -***-                          #
                #          Department of theory and spectroscopy        #
                #                                                       #
                #                      Frank Neese                      #
                #                                                       #
                #     Directorship, Architecture, Infrastructure        #
                #                    SHARK, DRIVERS                     #
                #        Core code/Algorithms in most modules           #
                #                                                       #
                #        Max Planck Institute fuer Kohlenforschung      #
                #                Kaiser Wilhelm Platz 1                 #
                #                 D-45470 Muelheim/Ruhr                 #
                #                      Germany                          #
                #                                                       #
                #                  All rights reserved                  #
                #                        -***-                          #
                #########################################################


                         Program Version 6.0.0  -   RELEASE   -


 With contributions from (in alphabetic order):
   Daniel Aravena         : Magnetic Suceptibility
   Michael Atanasov       : Ab Initio Ligand Field Theory (pilot matlab implementation)
   Alexander A. Auer      : GIAO ZORA, VPT2 properties, NMR spectrum
   Ute Becker             : All parallelization in ORCA, NUMFREQ, NUMCALC
   Giovanni Bistoni       : ED, misc. LED, open-shell LED, HFLD
   Martin Brehm           : Molecular dynamics
   Dmytro Bykov           : pre 5.0 version of the SCF Hessian
   Marcos Casanova-Páez   : Triplet and SCS-CIS(D). UHF-(DLPNO)-IP/EA/STEOM-CCSD. UHF-CVS-IP/STEOM-CCSD
   Vijay G. Chilkuri      : MRCI spin determinant printing, contributions to CSF-ICE
   Pauline Colinet        : FMM embedding
   Dipayan Datta          : RHF DLPNO-CCSD density
   Achintya Kumar Dutta   : EOM-CC, STEOM-CC
   Nicolas Foglia         : Exact transition moments, OPA infrastructure, MCD improvements
   Dmitry Ganyushin       : Spin-Orbit,Spin-Spin,Magnetic field MRCI
   Miquel Garcia          : C-PCM and meta-GGA Hessian, CCSD/C-PCM, Gaussian charge scheme
   Tiago L. C. Gouveia    : GS-ROHF, GS-ROCIS
   Yang Guo               : DLPNO-NEVPT2, F12-NEVPT2, CIM, IAO-localization
   Andreas Hansen         : Spin unrestricted coupled pair/coupled cluster methods
   Ingolf Harden          : AUTO-CI MPn and infrastructure 
   Benjamin Helmich-Paris : MC-RPA, TRAH-(SCF,CASSCF), AVAS, COSX integrals, SCF dyn. polar.
   Lee Huntington         : MR-EOM, pCC
   Robert Izsak           : Overlap fitted RIJCOSX, COSX-SCS-MP3, EOM
   Riya Kayal             : Wick's Theorem for AUTO-CI, AUTO-CI UHF-CCSDT
   Emily Kempfer          : AUTO-CI, RHF CISDT and CCSDT
   Christian Kollmar      : KDIIS, OOCD, Brueckner-CCSD(T), CCSD density, CASPT2, CASPT2-K, improved NEVPT2
   Axel Koslowski         : Symmetry handling
   Simone Kossmann        : Meta GGA functionals, TD-DFT gradient, OOMP2, (MP2 Hessian; deprecated post 5.0)
   Lucas Lang             : DCDCAS
   Marvin Lechner         : AUTO-CI (C++ implementation), FIC-MRCC
   Spencer Leger          : CASSCF response
   Dagmar Lenk            : GEPOL surface, SMD, ORCA-2-JSON
   Dimitrios Liakos       : Extrapolation schemes; Compound Job, initial MDCI parallelization
   Dimitrios Manganas     : Further ROCIS development; embedding schemes. LFT, Crystal Embedding
   Dimitrios Pantazis     : SARC Basis sets
   Anastasios Papadopoulos: AUTO-CI, single reference methods and gradients
   Taras Petrenko         : pre 6.0 DFT Hessian and TD-DFT gradient, (ASA, deprecated), ECA, 1-Electron XAS/XES, NRVS
   Peter Pinski           : DLPNO-MP2, DLPNO-MP2 Gradient
   Christoph Reimann      : Effective Core Potentials
   Marius Retegan         : Local ZFS, SOC
   Christoph Riplinger    : Optimizer, TS searches, QM/MM, DLPNO-CCSD(T), (RO)-DLPNO pert. Triples
   Michael Roemelt        : Original ROCIS implementation
   Masaaki Saitow         : Open-shell DLPNO-CCSD energy and density
   Barbara Sandhoefer     : DKH picture change effects
   Kantharuban Sivalingam : CASSCF convergence/infrastructure, NEVPT2 and variants, FIC-MRCI
   Bernardo de Souza      : ESD, SOC TD-DFT
   Georgi Stoychev        : AutoAux, RI-MP2 NMR, DLPNO-MP2 response, X2C
   Van Anh Tran           : RI-MP2 g-tensors
   Willem Van den Heuvel  : Paramagnetic NMR
   Zikuan Wang            : NOTCH, Electric field optimization 
   Frank Wennmohs         : Technical directorship and infrastructure
   Hang Xu                : AUTO-CI-Response properties 


 We gratefully acknowledge several colleagues who have allowed us to
 interface, adapt or use parts of their codes:
   Stefan Grimme, W. Hujo, H. Kruse, P. Pracht,  : VdW corrections, initial TS optimization,
                  C. Bannwarth, S. Ehlert,         DFT functionals, gCP, sTDA/sTD-DF
                  L. Wittmann, M. Mueller
   Ed Valeev, F. Pavosevic, A. Kumar             : LibInt (2-el integral package), F12 methods
   Garnet Chan, S. Sharma, J. Yang, R. Olivares  : DMRG
   Ulf Ekstrom                                   : XCFun DFT Library
   Mihaly Kallay                                 : mrcc  (arbitrary order and MRCC methods)
   Frank Weinhold                                : gennbo (NPA and NBO analysis)
   Simon Mueller                                 : openCOSMO-RS
   Christopher J. Cramer and Donald G. Truhlar   : smd solvation model
   Lars Goerigk                                  : TD-DFT with DH, B97 family of functionals
   V. Asgeirsson, H. Jonsson                     : NEB implementation
   FAccTs GmbH                                   : IRC, NEB, NEB-TS, DLPNO-Multilevel, CI-OPT
                                                   MM, QMMM, 2- and 3-layer-ONIOM, Crystal-QMMM,
                                                   LR-CPCM, SF, NACMEs, symmetry and pop. for TD-DFT,
                                                   nearIR, NL-DFT gradient (VV10), updates on ESD,
                                                   ML-optimized integration grids, MBIS, APM,
                                                   GOAT, DOCKER, SOLVATOR, interface openCOSMO-RS
   S Lehtola, MJT Oliveira, MAL Marques          : LibXC Library
   Liviu Ungur et al                             : ANISO software


 Your calculation uses the libint2 library for the computation of 2-el integrals
 For citations please refer to: http://libint.valeyev.net

 Your ORCA version has been built with support for libXC version: 6.2.2
 For citations please refer to: https://libxc.gitlab.io

 This ORCA versions uses:
   CBLAS   interface :  Fast vector & matrix operations
   LAPACKE interface :  Fast linear algebra routines
   Shared memory     :  Shared parallel matrices


Your calculation utilizes the atom-pairwise dispersion correction
with the Becke-Johnson damping scheme (D3BJ)


Warning: RI is on but no J-basis has been assigned. Assigning Def2/J (nothing to worry about!)
================================================================================

----- Orbital basis set information -----
Your calculation utilizes the basis: def2-SVP
   F. Weigend and R. Ahlrichs, Phys. Chem. Chem. Phys. 7, 3297 (2005).

----- AuxJ basis set information -----
Your calculation utilizes the auxiliary basis: def2/J
   F. Weigend, Phys. Chem. Chem. Phys. 8, 1057 (2006).

================================================================================
                                        WARNINGS
                       Please study these warnings very carefully!
================================================================================


WARNING: Geometry Optimization
  ===> : Switching off AutoStart
         For restart on a previous wavefunction, please use MOREAD

================================================================================
                                       INPUT FILE
================================================================================
NAME = data/geom_opt/77831/77831.inp
|  1> ! RIJONX B3LYP def2-SVP D3BJ TIGHTSCF Opt
|  2> %pal
|  3> nprocs 6
|  4> end
|  5> 
|  6> * xyz 0 1
|  7> C      0.323191    5.659333    0.730157
|  8> C      0.810007    5.054557   -0.577663
|  9> C      0.821189    3.523594   -0.579405
| 10> C     -0.578952    2.908586   -0.493459
| 11> C     -0.563726    1.374292   -0.516190
| 12> C     -0.248919    0.799733   -1.896407
| 13> P     -0.065597   -1.019048   -2.047778
| 14> C      1.676697   -1.354860   -1.581582
| 15> C      2.180018   -0.761149   -0.271507
| 16> C      3.605005   -1.233737    0.038484
| 17> C      4.118083   -0.621869    1.344138
| 18> C      5.498500   -1.138647    1.754520
| 19> C      6.607570   -0.735975    0.794942
| 20> C     -1.019232   -1.741350   -0.659412
| 21> C     -2.526130   -1.730031   -0.926913
| 22> C     -3.299774   -2.325114    0.252351
| 23> C     -4.806232   -2.323535   -0.012391
| 24> C     -5.578263   -2.915420    1.166512
| 25> C     -7.076278   -2.917117    0.906896
| 26> H     -0.734857    5.443172    0.903649
| 27> H      0.899401    5.277527    1.578775
| 28> H      0.437797    6.747866    0.705507
| 29> H      0.191811    5.424506   -1.403863
| 30> H      1.831344    5.408041   -0.763617
| 31> H      1.314249    3.196135   -1.500958
| 32> H      1.435936    3.160434    0.253132
| 33> H     -1.052956    3.220617    0.444230
| 34> H     -1.207500    3.286720   -1.308513
| 35> H      0.132501    1.014141    0.246478
| 36> H     -1.558847    1.034625   -0.205113
| 37> H     -1.062769    1.090848   -2.572083
| 38> H      0.657322    1.254243   -2.308651
| 39> H      1.801487   -2.444112   -1.555733
| 40> H      2.312681   -0.994478   -2.399169
| 41> H      2.183305    0.332787   -0.333988
| 42> H      1.523166   -1.041647    0.559357
| 43> H      4.263548   -0.954527   -0.791595
| 44> H      3.620852   -2.327623    0.114459
| 45> H      3.411853   -0.854686    2.150785
| 46> H      4.146095    0.471015    1.255209
| 47> H      5.475743   -2.230574    1.848510
| 48> H      5.736669   -0.740206    2.748017
| 49> H      7.578781   -1.049400    1.191279
| 50> H      6.482444   -1.207836   -0.183941
| 51> H      6.632788    0.349472    0.656365
| 52> H     -0.696723   -2.782001   -0.533675
| 53> H     -0.800276   -1.235811    0.285656
| 54> H     -2.878239   -0.707680   -1.110743
| 55> H     -2.748669   -2.306613   -1.834293
| 56> H     -2.959978   -3.351954    0.434131
| 57> H     -3.086096   -1.747570    1.159972
| 58> H     -5.020443   -2.901893   -0.919438
| 59> H     -5.146251   -1.296978   -0.196034
| 60> H     -5.244418   -3.942932    1.352305
| 61> H     -5.371447   -2.337720    2.074906
| 62> H     -7.320478   -3.514841    0.022864
| 63> H     -7.448106   -1.899871    0.747711
| 64> H     -7.608875   -3.343440    1.762815
| 65> **                         ****END OF INPUT****
================================================================================

                       *****************************
                       * Geometry Optimization Run *
                       *****************************

Geometry optimization settings:
Update method            Update   .... BFGS
Choice of coordinates    CoordSys .... (2022) Redundant Internals
Initial Hessian          InHess   .... Almloef's Model
Max. no of cycles        MaxIter  .... 174

Convergence Tolerances:
Energy Change            TolE     ....  5.0000e-06 Eh
Max. Gradient            TolMAXG  ....  3.0000e-04 Eh/bohr
RMS Gradient             TolRMSG  ....  1.0000e-04 Eh/bohr
Max. Displacement        TolMAXD  ....  4.0000e-03 bohr
RMS Displacement         TolRMSD  ....  2.0000e-03 bohr
Strict Convergence                .... False

------------------------------------------------------------------------------
                        ORCA OPTIMIZATION COORDINATE SETUP
------------------------------------------------------------------------------

The optimization will be done in redundant internal coordinates (2022)
Making redundant internal coordinates   ...  (2022 redundants) done
Evaluating the initial hessian          ...  (Almloef) done
Evaluating the coordinates              ...  done
Calculating the B-matrix                .... done
Calculating the G-matrix                .... done
Diagonalizing the G-matrix              .... done
Small eigenvalue found = 9.345e-04
Small eigenvalue found = 1.125e-03
Small eigenvalue found = 1.572e-03
Small eigenvalue found = 4.995e-03
Small eigenvalue found = 8.202e-03
Small eigenvalue found = 9.851e-03
Small eigenvalue found = 1.114e-02
Small eigenvalue found = 1.484e-02
Small eigenvalue found = 1.551e-02
Small eigenvalue found = 1.898e-02
Small eigenvalue found = 2.243e-02
Small eigenvalue found = 2.643e-02
The first mode is                       ....  105
The number of degrees of freedom        ....  168

    -----------------------------------------------------------------
                    Redundant Internal Coordinates


    -----------------------------------------------------------------
         Definition                    Initial Value    Approx d2E/dq
    -----------------------------------------------------------------
      1. B(C   1,C   0)                  1.5209         0.386274   
      2. B(C   2,C   1)                  1.5310         0.372198   
      3. B(C   3,C   2)                  1.5317         0.371288   
      4. B(C   4,C   3)                  1.5345         0.367399   
      5. B(C   5,C   4)                  1.5278         0.376585   
      6. B(P   6,C   5)                  1.8343         0.410634   
      7. B(C   7,P   6)                  1.8346         0.410136   
      8. B(C   8,C   7)                  1.5239         0.382110   
      9. B(C   9,C   8)                  1.5330         0.369510   
     10. B(C  10,C   9)                  1.5305         0.372919   
     11. B(C  11,C  10)                  1.5300         0.373519   
     12. B(C  12,C  11)                  1.5208         0.386352   
     13. B(C  13,P   6)                  1.8327         0.413021   
     14. B(C  14,C  13)                  1.5305         0.372891   
     15. B(C  15,C  14)                  1.5308         0.372495   
     16. B(C  16,C  15)                  1.5295         0.374200   
     17. B(C  17,C  16)                  1.5285         0.375702   
     18. B(C  18,C  17)                  1.5203         0.387061   
     19. B(H  19,C   0)                  1.0938         0.355172   
     20. B(H  20,C   0)                  1.0945         0.354186   
     21. B(H  21,C   0)                  1.0948         0.353771   
     22. B(H  22,C   1)                  1.0962         0.352002   
     23. B(H  23,C   1)                  1.0967         0.351399   
     24. B(H  24,C   2)                  1.0953         0.353207   
     25. B(H  25,C   2)                  1.0968         0.351247   
     26. B(H  26,C   3)                  1.0960         0.352198   
     27. B(H  27,C   3)                  1.0965         0.351569   
     28. B(H  28,C   4)                  1.0937         0.355284   
     29. B(H  29,C   4)                  1.0965         0.351547   
     30. B(H  30,C   5)                  1.0971         0.350824   
     31. B(H  31,C   5)                  1.0944         0.354275   
     32. B(H  32,C   7)                  1.0967         0.351369   
     33. B(H  33,C   7)                  1.0967         0.351316   
     34. B(H  34,C   8)                  1.0957         0.352607   
     35. B(H  35,C   8)                  1.0957         0.352691   
     36. B(H  36,C   9)                  1.0958         0.352573   
     37. B(H  37,C   9)                  1.0966         0.351428   
     38. B(H  38,C  10)                  1.0971         0.350820   
     39. B(H  39,C  10)                  1.0969         0.351146   
     40. B(H  40,C  11)                  1.0962         0.351990   
     41. B(H  41,C  11)                  1.0966         0.351483   
     42. B(H  42,C  12)                  1.0948         0.353817   
     43. B(H  43,C  12)                  1.0939         0.355035   
     44. B(H  44,C  12)                  1.0945         0.354134   
     45. B(H  45,C  13)                  1.0967         0.351330   
     46. B(H  46,C  13)                  1.0939         0.354949   
     47. B(H  47,C  14)                  1.0968         0.351213   
     48. B(H  48,C  14)                  1.0979         0.349844   
     49. B(H  49,C  15)                  1.0968         0.351254   
     50. B(H  50,C  15)                  1.0968         0.351204   
     51. B(H  51,C  16)                  1.0969         0.351129   
     52. B(H  52,C  16)                  1.0969         0.351106   
     53. B(H  53,C  17)                  1.0962         0.351933   
     54. B(H  54,C  17)                  1.0962         0.351970   
     55. B(H  55,C  18)                  1.0947         0.353905   
     56. B(H  56,C  18)                  1.0947         0.353926   
     57. B(H  57,C  18)                  1.0945         0.354150   
     58. A(H  19,C   0,H  20)          108.5024         0.289458   
     59. A(C   1,C   0,H  19)          111.5582         0.325368   
     60. A(H  19,C   0,H  21)          107.5375         0.289405   
     61. A(C   1,C   0,H  21)          110.0287         0.325156   
     62. A(H  20,C   0,H  21)          108.0098         0.289279   
     63. A(C   1,C   0,H  20)          111.0690         0.325219   
     64. A(C   0,C   1,C   2)          113.6375         0.365204   
     65. A(C   0,C   1,H  22)          109.4750         0.324889   
     66. A(C   2,C   1,H  23)          108.3804         0.322824   
     67. A(C   2,C   1,H  22)          109.9218         0.322915   
     68. A(C   0,C   1,H  23)          108.4053         0.324797   
     69. A(H  22,C   1,H  23)          106.7762         0.288694   
     70. A(C   3,C   2,H  25)          109.6836         0.322672   
     71. A(C   1,C   2,H  24)          107.6508         0.323096   
     72. A(H  24,C   2,H  25)          106.7003         0.288829   
     73. A(C   1,C   2,C   3)          113.2520         0.362742   
     74. A(C   3,C   2,H  24)          109.7966         0.322966   
     75. A(C   1,C   2,H  25)          109.5322         0.322801   
     76. A(C   2,C   3,H  27)          110.1097         0.322720   
     77. A(H  26,C   3,H  27)          106.8485         0.288741   
     78. A(C   4,C   3,H  26)          107.5542         0.322258   
     79. A(C   2,C   3,C   4)          113.0517         0.361939   
     80. A(C   4,C   3,H  27)          109.8445         0.322164   
     81. A(C   2,C   3,H  26)          109.2097         0.322815   
     82. A(H  28,C   4,H  29)          106.1338         0.289133   
     83. A(C   3,C   4,H  28)          108.9802         0.322719   
     84. A(C   5,C   4,H  29)          109.0737         0.323467   
     85. A(C   5,C   4,H  28)          112.0224         0.324029   
     86. A(C   3,C   4,H  29)          107.2478         0.322160   
     87. A(C   3,C   4,C   5)          113.0436         0.362815   
     88. A(P   6,C   5,H  31)          107.3342         0.348876   
     89. A(H  30,C   5,H  31)          105.7879         0.288911   
     90. A(C   4,C   5,H  31)          110.7765         0.323878   
     91. A(P   6,C   5,H  30)          106.6441         0.348301   
     92. A(C   4,C   5,P   6)          117.9071         0.393655   
     93. A(C   4,C   5,H  30)          107.6820         0.323358   
     94. A(C   5,P   6,C  13)          106.0381         0.426521   
     95. A(C   5,P   6,C   7)          104.8000         0.425986   
     96. A(C   7,P   6,C  13)          103.2690         0.426429   
     97. A(P   6,C   7,C   8)          117.4406         0.394577   
     98. A(H  32,C   7,H  33)          106.1384         0.288602   
     99. A(C   8,C   7,H  33)          108.7439         0.324207   
    100. A(P   6,C   7,H  33)          107.5259         0.348312   
    101. A(C   8,C   7,H  32)          109.2157         0.324215   
    102. A(P   6,C   7,H  32)          107.2091         0.348320   
    103. A(C   9,C   8,H  35)          108.9659         0.322635   
    104. A(C   7,C   8,H  35)          110.7434         0.324415   
    105. A(C   9,C   8,H  34)          108.4526         0.322622   
    106. A(C   7,C   8,H  34)          109.9344         0.324402   
    107. A(H  34,C   8,H  35)          107.4955         0.288938   
    108. A(C   7,C   8,C   9)          111.1472         0.364076   
    109. A(C  10,C   9,H  37)          109.5627         0.322931   
    110. A(C   8,C   9,H  37)          109.5695         0.322445   
    111. A(C  10,C   9,H  36)          110.0544         0.323103   
    112. A(C   8,C   9,H  36)          109.0819         0.322617   
    113. A(C   8,C   9,C  10)          111.1547         0.362564   
    114. A(H  36,C   9,H  37)          107.3358         0.288771   
    115. A(C   9,C  10,C  11)          113.3435         0.363233   
    116. A(H  38,C  10,H  39)          106.7079         0.288510   
    117. A(C  11,C  10,H  39)          109.5869         0.322974   
    118. A(C   9,C  10,H  39)          109.7391         0.322889   
    119. A(C  11,C  10,H  38)          108.1732         0.322924   
    120. A(C   9,C  10,H  38)          109.0627         0.322839   
    121. A(C  10,C  11,C  12)          113.5328         0.365438   
    122. A(H  40,C  11,H  41)          106.7835         0.288704   
    123. A(C  12,C  11,H  41)          108.4843         0.324821   
    124. A(C  10,C  11,H  41)          108.4351         0.323024   
    125. A(C  12,C  11,H  40)          109.4494         0.324897   
    126. A(C  10,C  11,H  40)          109.9198         0.323101   
    127. A(H  43,C  12,H  44)          108.4891         0.289434   
    128. A(H  42,C  12,H  44)          108.0172         0.289278   
    129. A(C  11,C  12,H  44)          111.0542         0.325222   
    130. A(H  42,C  12,H  43)          107.5747         0.289393   
    131. A(C  11,C  12,H  43)          111.5307         0.325358   
    132. A(C  11,C  12,H  42)          110.0421         0.325174   
    133. A(P   6,C  13,C  14)          112.1483         0.393375   
    134. A(H  45,C  13,H  46)          106.2962         0.289063   
    135. A(C  14,C  13,H  46)          110.1604         0.323455   
    136. A(P   6,C  13,H  46)          111.6039         0.349329   
    137. A(C  14,C  13,H  45)          108.4569         0.322912   
    138. A(P   6,C  13,H  45)          107.9274         0.348726   
    139. A(C  13,C  14,C  15)          111.1049         0.363058   
    140. A(H  47,C  14,H  48)          106.6148         0.288393   
    141. A(C  15,C  14,H  48)          109.2746         0.322632   
    142. A(C  13,C  14,H  48)          109.8858         0.322688   
    143. A(C  15,C  14,H  47)          109.2218         0.322838   
    144. A(C  13,C  14,H  47)          110.6262         0.322895   
    145. A(H  49,C  15,H  50)          107.1865         0.288573   
    146. A(C  16,C  15,H  50)          109.5460         0.323079   
    147. A(C  14,C  15,H  50)          109.5315         0.322837   
    148. A(C  16,C  15,H  49)          109.5599         0.323086   
    149. A(C  14,C  15,H  49)          109.5762         0.322844   
    150. A(C  14,C  15,C  16)          111.3473         0.363276   
    151. A(H  51,C  16,H  52)          107.1268         0.288545   
    152. A(C  17,C  16,H  52)          109.5709         0.323276   
    153. A(C  15,C  16,H  52)          109.5878         0.323064   
    154. A(C  17,C  16,H  51)          109.5722         0.323280   
    155. A(C  15,C  16,H  51)          109.5685         0.323068   
    156. A(C  15,C  16,C  17)          111.3203         0.363808   
    157. A(H  53,C  17,H  54)          107.2208         0.288759   
    158. A(C  18,C  17,H  54)          109.1465         0.324992   
    159. A(C  16,C  17,H  54)          109.8635         0.323407   
    160. A(C  18,C  17,H  53)          109.1448         0.324987   
    161. A(C  16,C  17,H  53)          109.8686         0.323401   
    162. A(C  16,C  17,C  18)          111.4944         0.365918   
    163. A(H  56,C  18,H  57)          108.0818         0.289294   
    164. A(H  55,C  18,H  57)          108.0758         0.289291   
    165. A(C  17,C  18,H  57)          110.2642         0.325322   
    166. A(H  55,C  18,H  56)          108.3110         0.289263   
    167. A(C  17,C  18,H  56)          111.0059         0.325289   
    168. A(C  17,C  18,H  55)          110.9958         0.325285   
    169. D(H  22,C   1,C   0,H  21)    -62.5974         0.011873   
    170. D(C   2,C   1,C   0,H  20)     54.5402         0.011873   
    171. D(C   2,C   1,C   0,H  19)    -66.6489         0.011873   
    172. D(H  22,C   1,C   0,H  20)    177.8583         0.011873   
    173. D(H  22,C   1,C   0,H  19)     56.6693         0.011873   
    174. D(C   2,C   1,C   0,H  21)    174.0845         0.011873   
    175. D(C   3,C   2,C   1,H  22)    -56.8593         0.011066   
    176. D(C   3,C   2,C   1,C   0)     66.2143         0.011066   
    177. D(H  24,C   2,C   1,H  23)    -51.6435         0.011066   
    178. D(H  24,C   2,C   1,H  22)     64.7117         0.011066   
    179. D(C   3,C   2,C   1,H  23)   -173.2146         0.011066   
    180. D(H  24,C   2,C   1,C   0)   -172.2147         0.011066   
    181. D(C   4,C   3,C   2,H  25)    -58.1438         0.011016   
    182. D(C   4,C   3,C   2,H  24)     58.8013         0.011016   
    183. D(H  26,C   3,C   2,H  25)     61.5509         0.011016   
    184. D(H  26,C   3,C   2,H  24)    178.4960         0.011016   
    185. D(H  26,C   3,C   2,C   1)    -61.1452         0.011016   
    186. D(C   4,C   3,C   2,C   1)    179.1601         0.011016   
    187. D(H  28,C   4,C   3,H  27)    175.2371         0.010800   
    188. D(H  28,C   4,C   3,H  26)    -68.8275         0.010800   
    189. D(H  28,C   4,C   3,C   2)     51.8137         0.010800   
    190. D(C   5,C   4,C   3,H  27)     49.9822         0.010800   
    191. D(C   5,C   4,C   3,H  26)    165.9176         0.010800   
    192. D(C   5,C   4,C   3,C   2)    -73.4412         0.010800   
    193. D(H  30,C   5,C   4,H  29)     55.0721         0.011314   
    194. D(H  30,C   5,C   4,C   3)    -64.1380         0.011314   
    195. D(P   6,C   5,C   4,H  29)    -65.5274         0.011314   
    196. D(H  30,C   5,C   4,H  28)    172.2671         0.011314   
    197. D(P   6,C   5,C   4,C   3)    175.2625         0.011314   
    198. D(P   6,C   5,C   4,H  28)     51.6677         0.011314   
    199. D(C   7,P   6,C   5,C   4)    -84.3172         0.003786   
    200. D(C  13,P   6,C   5,C   4)     24.5252         0.003786   
    201. D(C  13,P   6,C   5,H  30)    -96.6106         0.003786   
    202. D(C   7,P   6,C   5,H  31)     41.5431         0.003786   
    203. D(C   7,P   6,C   5,H  30)    154.5470         0.003786   
    204. D(H  33,C   7,P   6,C   5)    -72.1060         0.003780   
    205. D(H  32,C   7,P   6,C  13)     63.2820         0.003780   
    206. D(H  32,C   7,P   6,C   5)    174.1307         0.003780   
    207. D(C   8,C   7,P   6,C  13)    -60.0203         0.003780   
    208. D(C   8,C   7,P   6,C   5)     50.8284         0.003780   
    209. D(H  34,C   8,C   7,H  33)     57.2285         0.011630   
    210. D(H  34,C   8,C   7,H  32)    172.6401         0.011630   
    211. D(H  34,C   8,C   7,P   6)    -65.0826         0.011630   
    212. D(C   9,C   8,C   7,H  33)    -62.8571         0.011630   
    213. D(C   9,C   8,C   7,H  32)     52.5545         0.011630   
    214. D(C   9,C   8,C   7,P   6)    174.8318         0.011630   
    215. D(H  36,C   9,C   8,H  35)    179.9752         0.010917   
    216. D(H  36,C   9,C   8,H  34)    -63.2946         0.010917   
    217. D(H  36,C   9,C   8,C   7)     57.6658         0.010917   
    218. D(C  10,C   9,C   8,H  35)    -58.4957         0.010917   
    219. D(C  10,C   9,C   8,H  34)     58.2345         0.010917   
    220. D(C  10,C   9,C   8,C   7)    179.1950         0.010917   
    221. D(H  38,C  10,C   9,H  37)    -65.9696         0.011107   
    222. D(H  38,C  10,C   9,H  36)    176.2324         0.011107   
    223. D(H  38,C  10,C   9,C   8)     55.2731         0.011107   
    224. D(C  11,C  10,C   9,H  37)     54.5966         0.011107   
    225. D(C  11,C  10,C   9,H  36)    -63.2014         0.011107   
    226. D(C  11,C  10,C   9,C   8)    175.8393         0.011107   
    227. D(H  40,C  11,C  10,H  38)     63.8240         0.011140   
    228. D(H  40,C  11,C  10,C   9)    -57.2446         0.011140   
    229. D(C  12,C  11,C  10,H  39)    -57.2375         0.011140   
    230. D(C  12,C  11,C  10,H  38)   -173.2123         0.011140   
    231. D(C  12,C  11,C  10,C   9)     65.7191         0.011140   
    232. D(H  40,C  11,C  10,H  39)    179.7988         0.011140   
    233. D(H  43,C  12,C  11,H  41)    173.1780         0.011877   
    234. D(H  43,C  12,C  11,H  40)     57.0144         0.011877   
    235. D(H  43,C  12,C  11,C  10)    -66.2075         0.011877   
    236. D(H  42,C  12,C  11,H  41)     53.8735         0.011877   
    237. D(H  42,C  12,C  11,H  40)    -62.2900         0.011877   
    238. D(H  42,C  12,C  11,C  10)    174.4880         0.011877   
    239. D(H  46,C  13,P   6,C   5)    -46.8385         0.003813   
    240. D(H  45,C  13,P   6,C   7)    -53.3524         0.003813   
    241. D(H  45,C  13,P   6,C   5)   -163.2824         0.003813   
    242. D(C  14,C  13,P   6,C   7)   -172.7549         0.003813   
    243. D(C  14,C  13,P   6,C   5)     77.3151         0.003813   
    244. D(H  47,C  14,C  13,H  46)     67.0114         0.011105   
    245. D(H  47,C  14,C  13,H  45)   -177.0336         0.011105   
    246. D(H  47,C  14,C  13,P   6)    -57.9419         0.011105   
    247. D(C  15,C  14,C  13,H  46)    -54.4782         0.011105   
    248. D(C  15,C  14,C  13,H  45)     61.4767         0.011105   
    249. D(C  15,C  14,C  13,P   6)   -179.4315         0.011105   
    250. D(H  49,C  15,C  14,H  48)     63.0907         0.011083   
    251. D(H  49,C  15,C  14,H  47)    179.3687         0.011083   
    252. D(H  49,C  15,C  14,C  13)    -58.3238         0.011083   
    253. D(C  16,C  15,C  14,H  48)    -58.2747         0.011083   
    254. D(C  16,C  15,C  14,H  47)     58.0033         0.011083   
    255. D(C  16,C  15,C  14,C  13)   -179.6892         0.011083   
    256. D(H  51,C  16,C  15,H  50)   -179.9422         0.011179   
    257. D(H  51,C  16,C  15,H  49)    -62.6265         0.011179   
    258. D(H  51,C  16,C  15,C  14)     58.7484         0.011179   
    259. D(C  17,C  16,C  15,H  50)    -58.5843         0.011179   
    260. D(C  17,C  16,C  15,H  49)     58.7314         0.011179   
    261. D(C  17,C  16,C  15,C  14)   -179.8937         0.011179   
    262. D(H  53,C  17,C  16,H  52)    179.8177         0.011264   
    263. D(H  53,C  17,C  16,H  51)     62.5526         0.011264   
    264. D(H  53,C  17,C  16,C  15)    -58.8031         0.011264   
    265. D(C  18,C  17,C  16,H  52)     58.6806         0.011264   
    266. D(C  18,C  17,C  16,H  51)    -58.5844         0.011264   
    267. D(C  18,C  17,C  16,C  15)   -179.9402         0.011264   
    268. D(H  56,C  18,C  17,H  54)     61.3604         0.011919   
    269. D(H  56,C  18,C  17,H  53)    178.2497         0.011919   
    270. D(H  56,C  18,C  17,C  16)    -60.1924         0.011919   
    271. D(H  55,C  18,C  17,H  54)   -178.1197         0.011919   
    272. D(H  55,C  18,C  17,H  53)    -61.2305         0.011919   
    273. D(H  55,C  18,C  17,C  16)     60.3275         0.011919   
    -----------------------------------------------------------------

Number of atoms                         .... 58
Number of degrees of freedom            .... 273


         *************************************************************
         *                GEOMETRY OPTIMIZATION CYCLE   1            *
         *************************************************************
---------------------------------
CARTESIAN COORDINATES (ANGSTROEM)
---------------------------------
  C      0.323191    5.659333    0.730157
  C      0.810007    5.054557   -0.577663
  C      0.821189    3.523594   -0.579405
  C     -0.578952    2.908586   -0.493459
  C     -0.563726    1.374292   -0.516190
  C     -0.248919    0.799733   -1.896407
  P     -0.065597   -1.019048   -2.047778
  C      1.676697   -1.354860   -1.581582
  C      2.180018   -0.761149   -0.271507
  C      3.605005   -1.233737    0.038484
  C      4.118083   -0.621869    1.344138
  C      5.498500   -1.138647    1.754520
  C      6.607570   -0.735975    0.794942
  C     -1.019232   -1.741350   -0.659412
  C     -2.526130   -1.730031   -0.926913
  C     -3.299774   -2.325114    0.252351
  C     -4.806232   -2.323535   -0.012391
  C     -5.578263   -2.915420    1.166512
  C     -7.076278   -2.917117    0.906896
  H     -0.734857    5.443172    0.903649
  H      0.899401    5.277527    1.578775
  H      0.437797    6.747866    0.705507
  H      0.191811    5.424506   -1.403863
  H      1.831344    5.408041   -0.763617
  H      1.314249    3.196135   -1.500958
  H      1.435936    3.160434    0.253132
  H     -1.052956    3.220617    0.444230
  H     -1.207500    3.286720   -1.308513
  H      0.132501    1.014141    0.246478
  H     -1.558847    1.034625   -0.205113
  H     -1.062769    1.090848   -2.572083
  H      0.657322    1.254243   -2.308651
  H      1.801487   -2.444112   -1.555733
  H      2.312681   -0.994478   -2.399169
  H      2.183305    0.332787   -0.333988
  H      1.523166   -1.041647    0.559357
  H      4.263548   -0.954527   -0.791595
  H      3.620852   -2.327623    0.114459
  H      3.411853   -0.854686    2.150785
  H      4.146095    0.471015    1.255209
  H      5.475743   -2.230574    1.848510
  H      5.736669   -0.740206    2.748017
  H      7.578781   -1.049400    1.191279
  H      6.482444   -1.207836   -0.183941
  H      6.632788    0.349472    0.656365
  H     -0.696723   -2.782001   -0.533675
  H     -0.800276   -1.235811    0.285656
  H     -2.878239   -0.707680   -1.110743
  H     -2.748669   -2.306613   -1.834293
  H     -2.959978   -3.351954    0.434131
  H     -3.086096   -1.747570    1.159972
  H     -5.020443   -2.901893   -0.919438
  H     -5.146251   -1.296978   -0.196034
  H     -5.244418   -3.942932    1.352305
  H     -5.371447   -2.337720    2.074906
  H     -7.320478   -3.514841    0.022864
  H     -7.448106   -1.899871    0.747711
  H     -7.608875   -3.343440    1.762815

----------------------------
CARTESIAN COORDINATES (A.U.)
----------------------------
  NO LB      ZA    FRAG     MASS         X           Y           Z
   0 C     6.0000    0    12.011    0.610742   10.694589    1.379797
   1 C     6.0000    0    12.011    1.530691    9.551728   -1.091625
   2 C     6.0000    0    12.011    1.551822    6.658628   -1.094917
   3 C     6.0000    0    12.011   -1.094061    5.496431   -0.932502
   4 C     6.0000    0    12.011   -1.065288    2.597036   -0.975458
   5 C     6.0000    0    12.011   -0.470389    1.511276   -3.583690
   6 P    15.0000    0    30.974   -0.123960   -1.925722   -3.869740
   7 C     6.0000    0    12.011    3.168498   -2.560314   -2.988757
   8 C     6.0000    0    12.011    4.119637   -1.438363   -0.513074
   9 C     6.0000    0    12.011    6.812472   -2.331425    0.072724
  10 C     6.0000    0    12.011    7.782049   -1.175162    2.540053
  11 C     6.0000    0    12.011   10.390659   -2.151731    3.315562
  12 C     6.0000    0    12.011   12.486498   -1.390791    1.502223
  13 C     6.0000    0    12.011   -1.926069   -3.290675   -1.246108
  14 C     6.0000    0    12.011   -4.773694   -3.269285   -1.751612
  15 C     6.0000    0    12.011   -6.235669   -4.393829    0.476874
  16 C     6.0000    0    12.011   -9.082462   -4.390845   -0.023416
  17 C     6.0000    0    12.011  -10.541389   -5.509345    2.204388
  18 C     6.0000    0    12.011  -13.372227   -5.512552    1.713785
  19 H     1.0000    0     1.008   -1.388678   10.286104    1.707649
  20 H     1.0000    0     1.008    1.699622    9.973081    2.983452
  21 H     1.0000    0     1.008    0.827316   12.751619    1.333215
  22 H     1.0000    0     1.008    0.362470   10.250831   -2.652917
  23 H     1.0000    0     1.008    3.460739   10.219716   -1.443027
  24 H     1.0000    0     1.008    2.483571    6.039820   -2.836400
  25 H     1.0000    0     1.008    2.713526    5.972355    0.478350
  26 H     1.0000    0     1.008   -1.989798    6.086084    0.839473
  27 H     1.0000    0     1.008   -2.281844    6.211001   -2.472731
  28 H     1.0000    0     1.008    0.250391    1.916449    0.465776
  29 H     1.0000    0     1.008   -2.945794    1.955158   -0.387607
  30 H     1.0000    0     1.008   -2.008342    2.061404   -4.860532
  31 H     1.0000    0     1.008    1.242159    2.370176   -4.362718
  32 H     1.0000    0     1.008    3.404317   -4.618702   -2.939909
  33 H     1.0000    0     1.008    4.370334   -1.879291   -4.533772
  34 H     1.0000    0     1.008    4.125849    0.628876   -0.631146
  35 H     1.0000    0     1.008    2.878367   -1.968428    1.057032
  36 H     1.0000    0     1.008    8.056938   -1.803795   -1.495898
  37 H     1.0000    0     1.008    6.842419   -4.398570    0.216296
  38 H     1.0000    0     1.008    6.447468   -1.615122    4.064395
  39 H     1.0000    0     1.008    7.834984    0.890089    2.372001
  40 H     1.0000    0     1.008   10.347655   -4.215174    3.493178
  41 H     1.0000    0     1.008   10.840733   -1.398787    5.193000
  42 H     1.0000    0     1.008   14.321821   -1.983079    2.251191
  43 H     1.0000    0     1.008   12.250044   -2.282479   -0.347598
  44 H     1.0000    0     1.008   12.534153    0.660406    1.240350
  45 H     1.0000    0     1.008   -1.316616   -5.257220   -1.008500
  46 H     1.0000    0     1.008   -1.512302   -2.335344    0.539812
  47 H     1.0000    0     1.008   -5.439083   -1.337321   -2.099000
  48 H     1.0000    0     1.008   -5.194232   -4.358867   -3.466311
  49 H     1.0000    0     1.008   -5.593548   -6.334275    0.820389
  50 H     1.0000    0     1.008   -5.831876   -3.302429    2.192029
  51 H     1.0000    0     1.008   -9.487262   -5.483783   -1.737486
  52 H     1.0000    0     1.008   -9.725005   -2.450933   -0.370451
  53 H     1.0000    0     1.008   -9.910514   -7.451062    2.555486
  54 H     1.0000    0     1.008  -10.150564   -4.417651    3.921004
  55 H     1.0000    0     1.008  -13.833699   -6.642087    0.043207
  56 H     1.0000    0     1.008  -14.074881   -3.590236    1.412969
  57 H     1.0000    0     1.008  -14.378690   -6.318186    3.331238

--------------------------------
INTERNAL COORDINATES (ANGSTROEM)
--------------------------------
 C      0   0   0     0.000000000000     0.00000000     0.00000000
 C      1   0   0     1.520900056030     0.00000000     0.00000000
 C      2   1   0     1.531004826595   113.63750762     0.00000000
 C      3   2   1     1.531671105316   113.25201285    66.21430135
 C      4   3   2     1.534537913469   113.05174468   179.16009995
 C      5   4   3     1.527815584035   113.04364830   286.55879049
 P      6   5   4     1.834253107204   117.90708236   175.26251694
 C      7   6   5     1.834583547347   104.80004648   275.68282736
 C      8   7   6     1.523850808376   117.44064849    50.82839520
 C      9   8   7     1.532978078119   111.14715385   174.83182794
 C     10   9   8     1.530478307989   111.15467014   179.19497669
 C     11  10   9     1.530040516162   113.34348705   175.83930688
 C     12  11  10     1.520845469654   113.53282223    65.71913409
 C      7   6   5     1.832675651168   106.03809844    24.52522116
 C     14   7   6     1.530498770717   112.14831856    77.31509114
 C     15  14   7     1.530788162131   111.10490311   180.56849488
 C     16  15  14     1.529544548409   111.34734355   180.31078799
 C     17  16  15     1.528454121521   111.32025032   180.10630534
 C     18  17  16     1.520346107796   111.49439296   180.05984880
 H      1   2   3     1.093750713046   111.55822543   293.35114932
 H      1   2   3     1.094507330108   111.06903160    54.54020485
 H      1   2   3     1.094827041055   110.02868879   174.08447258
 H      2   1   3     1.096191131608   109.47503053   123.31814496
 H      2   1   3     1.096658149079   108.40526889   239.44288198
 H      3   2   1     1.095261380717   107.65081134   187.78533419
 H      3   2   1     1.096775690822   109.53222848   303.43430261
 H      4   3   2     1.096040052962   109.20972495   298.85475536
 H      4   3   2     1.096526758988   110.10969941    55.88314494
 H      5   4   3     1.093665056841   108.98016536    51.81365745
 H      5   4   3     1.096543831983   107.24783446   166.30006329
 H      6   5   4     1.097104289802   107.68202679   295.86197995
 H      6   5   4     1.094439219745   110.77652686    51.09995839
 H      8   7   6     1.096681646790   107.20907572   174.13065947
 H      8   7   6     1.096722087290   107.52586355   287.89402182
 H      9   8   7     1.095723802710   109.93441912   294.91737436
 H      9   8   7     1.095659009183   110.74340537    53.55811601
 H     10   9   8     1.095750087013   109.08191942    57.66583800
 H     10   9   8     1.096635723032   109.56950050   300.43369734
 H     11  10   9     1.097107082740   109.06268074    55.27312107
 H     11  10   9     1.096853899405   109.73905003   298.71193915
 H     12  11  10     1.096200973580   109.91983992   302.75541981
 H     12  11  10     1.096592901696   108.43506942   186.36138770
 H     13  12  11     1.094791786010   110.04214028   174.48800416
 H     13  12  11     1.093856136284   111.53070951   293.79247105
 H     13  12  11     1.094547724981   111.05421314    54.93529888
 H     14   7   6     1.096711608424   107.92744889   196.71755785
 H     14   7   6     1.093921813971   111.60389804   313.16150281
 H     15  14   7     1.096802527341   110.62619517   302.05812214
 H     15  14   7     1.097865599081   109.88580988    59.51244736
 H     16  15  14     1.096770566534   109.57620201   301.67621155
 H     16  15  14     1.096809572925   109.53154833    58.99296045
 H     17  16  15     1.096867625967   109.56847626    58.74842377
 H     17  16  15     1.096885110693   109.58784081   301.47565545
 H     18  17  16     1.096244695776   109.86857920   301.19690500
 H     18  17  16     1.096216131560   109.86351598    58.92412877
 H     19  18  17     1.094723799504   110.99577817    60.32750871
 H     19  18  17     1.094707883558   111.00591312   299.80764626
 H     19  18  17     1.094535608968   110.26422037   180.06054938

---------------------------
INTERNAL COORDINATES (A.U.)
---------------------------
 C      0   0   0     0.000000000000     0.00000000     0.00000000
 C      1   0   0     2.874084582962     0.00000000     0.00000000
 C      2   1   0     2.893179831976   113.63750762     0.00000000
 C      3   2   1     2.894438916288   113.25201285    66.21430135
 C      4   3   2     2.899856398575   113.05174468   179.16009995
 C      5   4   3     2.887153036962   113.04364830   286.55879049
 P      6   5   4     3.466236032909   117.90708236   175.26251694
 C      7   6   5     3.466860474283   104.80004648   275.68282736
 C      8   7   6     2.879660696784   117.44064849    50.82839520
 C      9   8   7     2.896908736950   111.14715385   174.83182794
 C     10   9   8     2.892184856006   111.15467014   179.19497669
 C     11  10   9     2.891357549350   113.34348705   175.83930688
 C     12  11  10     2.873981429661   113.53282223    65.71913409
 C      7   6   5     3.463255073014   106.03809844    24.52522116
 C     14   7   6     2.892223524958   112.14831856    77.31509114
 C     15  14   7     2.892770395477   111.10490311   180.56849488
 C     16  15  14     2.890420306126   111.34734355   180.31078799
 C     17  16  15     2.888359697938   111.32025032   180.10630534
 C     18  17  16     2.873037772507   111.49439296   180.05984880
 H      1   2   3     2.066889306438   111.55822543   293.35114932
 H      1   2   3     2.068319105473   111.06903160    54.54020485
 H      1   2   3     2.068923271605   110.02868879   174.08447258
 H      2   1   3     2.071501029173   109.47503053   123.31814496
 H      2   1   3     2.072383564292   108.40526889   239.44288198
 H      3   2   1     2.069744054615   107.65081134   187.78533419
 H      3   2   1     2.072605685996   109.53222848   303.43430261
 H      4   3   2     2.071215531908   109.20972495   298.85475536
 H      4   3   2     2.072135273003   110.10969941    55.88314494
 H      5   4   3     2.066727439668   108.98016536    51.81365745
 H      5   4   3     2.072167536288   107.24783446   166.30006329
 H      6   5   4     2.073226648075   107.68202679   295.86197995
 H      6   5   4     2.068190395541   110.77652686    51.09995839
 H      8   7   6     2.072427968530   107.20907572   174.13065947
 H      8   7   6     2.072504390000   107.52586355   287.89402182
 H      9   8   7     2.070617905541   109.93441912   294.91737436
 H      9   8   7     2.070495463519   110.74340537    53.55811601
 H     10   9   8     2.070667575676   109.08191942    57.66583800
 H     10   9   8     2.072341185205   109.56950050   300.43369734
 H     11  10   9     2.073231925964   109.06268074    55.27312107
 H     11  10   9     2.072753478800   109.73905003   298.71193915
 H     12  11  10     2.071519627804   109.91983992   302.75541981
 H     12  11  10     2.072260264608   108.43506942   186.36138770
 H     13  12  11     2.068856649225   110.04214028   174.48800416
 H     13  12  11     2.067088527486   111.53070951   293.79247105
 H     13  12  11     2.068395440721   111.05421314    54.93529888
 H     14   7   6     2.072484587813   107.92744889   196.71755785
 H     14   7   6     2.067212640327   111.60389804   313.16150281
 H     15  14   7     2.072656399668   110.62619517   302.05812214
 H     15  14   7     2.074665314116   109.88580988    59.51244736
 H     16  15  14     2.072596002496   109.57620201   301.67621155
 H     16  15  14     2.072669713892   109.53154833    58.99296045
 H     17  16  15     2.072779418242   109.56847626    58.74842377
 H     17  16  15     2.072812459585   109.58784081   301.47565545
 H     18  17  16     2.071602250781   109.86857920   301.19690500
 H     18  17  16     2.071548272235   109.86351598    58.92412877
 H     19  18  17     2.068728173348   110.99577817    60.32750871
 H     19  18  17     2.068698096570   111.00591312   299.80764626
 H     19  18  17     2.068372544774   110.26422037   180.06054938

---------------------
BASIS SET INFORMATION
---------------------
There are 3 groups of distinct atoms

 Group   1 Type C   : 7s4p1d contracted to 3s2p1d pattern {511/31/1}
 Group   2 Type P   : 10s7p1d contracted to 4s3p1d pattern {5311/511/1}
 Group   3 Type H   : 4s1p contracted to 2s1p pattern {31/1}

Atom   0C    basis set group =>   1
Atom   1C    basis set group =>   1
Atom   2C    basis set group =>   1
Atom   3C    basis set group =>   1
Atom   4C    basis set group =>   1
Atom   5C    basis set group =>   1
Atom   6P    basis set group =>   2
Atom   7C    basis set group =>   1
Atom   8C    basis set group =>   1
Atom   9C    basis set group =>   1
Atom  10C    basis set group =>   1
Atom  11C    basis set group =>   1
Atom  12C    basis set group =>   1
Atom  13C    basis set group =>   1
Atom  14C    basis set group =>   1
Atom  15C    basis set group =>   1
Atom  16C    basis set group =>   1
Atom  17C    basis set group =>   1
Atom  18C    basis set group =>   1
Atom  19H    basis set group =>   3
Atom  20H    basis set group =>   3
Atom  21H    basis set group =>   3
Atom  22H    basis set group =>   3
Atom  23H    basis set group =>   3
Atom  24H    basis set group =>   3
Atom  25H    basis set group =>   3
Atom  26H    basis set group =>   3
Atom  27H    basis set group =>   3
Atom  28H    basis set group =>   3
Atom  29H    basis set group =>   3
Atom  30H    basis set group =>   3
Atom  31H    basis set group =>   3
Atom  32H    basis set group =>   3
Atom  33H    basis set group =>   3
Atom  34H    basis set group =>   3
Atom  35H    basis set group =>   3
Atom  36H    basis set group =>   3
Atom  37H    basis set group =>   3
Atom  38H    basis set group =>   3
Atom  39H    basis set group =>   3
Atom  40H    basis set group =>   3
Atom  41H    basis set group =>   3
Atom  42H    basis set group =>   3
Atom  43H    basis set group =>   3
Atom  44H    basis set group =>   3
Atom  45H    basis set group =>   3
Atom  46H    basis set group =>   3
Atom  47H    basis set group =>   3
Atom  48H    basis set group =>   3
Atom  49H    basis set group =>   3
Atom  50H    basis set group =>   3
Atom  51H    basis set group =>   3
Atom  52H    basis set group =>   3
Atom  53H    basis set group =>   3
Atom  54H    basis set group =>   3
Atom  55H    basis set group =>   3
Atom  56H    basis set group =>   3
Atom  57H    basis set group =>   3
---------------------------------
AUXILIARY/J BASIS SET INFORMATION
---------------------------------
There are 3 groups of distinct atoms

 Group   1 Type C   : 12s5p4d2f1g contracted to 6s4p3d1f1g pattern {711111/2111/211/2/1}
 Group   2 Type P   : 14s5p5d2f1g contracted to 8s4p3d1f1g pattern {71111111/2111/311/2/1}
 Group   3 Type H   : 5s2p1d contracted to 3s1p1d pattern {311/2/1}

Atom   0C    basis set group =>   1
Atom   1C    basis set group =>   1
Atom   2C    basis set group =>   1
Atom   3C    basis set group =>   1
Atom   4C    basis set group =>   1
Atom   5C    basis set group =>   1
Atom   6P    basis set group =>   2
Atom   7C    basis set group =>   1
Atom   8C    basis set group =>   1
Atom   9C    basis set group =>   1
Atom  10C    basis set group =>   1
Atom  11C    basis set group =>   1
Atom  12C    basis set group =>   1
Atom  13C    basis set group =>   1
Atom  14C    basis set group =>   1
Atom  15C    basis set group =>   1
Atom  16C    basis set group =>   1
Atom  17C    basis set group =>   1
Atom  18C    basis set group =>   1
Atom  19H    basis set group =>   3
Atom  20H    basis set group =>   3
Atom  21H    basis set group =>   3
Atom  22H    basis set group =>   3
Atom  23H    basis set group =>   3
Atom  24H    basis set group =>   3
Atom  25H    basis set group =>   3
Atom  26H    basis set group =>   3
Atom  27H    basis set group =>   3
Atom  28H    basis set group =>   3
Atom  29H    basis set group =>   3
Atom  30H    basis set group =>   3
Atom  31H    basis set group =>   3
Atom  32H    basis set group =>   3
Atom  33H    basis set group =>   3
Atom  34H    basis set group =>   3
Atom  35H    basis set group =>   3
Atom  36H    basis set group =>   3
Atom  37H    basis set group =>   3
Atom  38H    basis set group =>   3
Atom  39H    basis set group =>   3
Atom  40H    basis set group =>   3
Atom  41H    basis set group =>   3
Atom  42H    basis set group =>   3
Atom  43H    basis set group =>   3
Atom  44H    basis set group =>   3
Atom  45H    basis set group =>   3
Atom  46H    basis set group =>   3
Atom  47H    basis set group =>   3
Atom  48H    basis set group =>   3
Atom  49H    basis set group =>   3
Atom  50H    basis set group =>   3
Atom  51H    basis set group =>   3
Atom  52H    basis set group =>   3
Atom  53H    basis set group =>   3
Atom  54H    basis set group =>   3
Atom  55H    basis set group =>   3
Atom  56H    basis set group =>   3
Atom  57H    basis set group =>   3


           ************************************************************
           *        Program running with 6 parallel MPI-processes     *
           *              working on a common directory               *
           ************************************************************
------------------------------------------------------------------------------
                             ORCA STARTUP CALCULATIONS
                           -- RI-GTO INTEGRALS CHOSEN --
------------------------------------------------------------------------------
------------------------------------------------------------------------------
                   ___                                                        
                  /   \      - P O W E R E D   B Y -                         
                 /     \                                                     
                 |  |  |   _    _      __       _____    __    __             
                 |  |  |  | |  | |    /  \     |  _  \  |  |  /  |          
                  \  \/   | |  | |   /    \    | | | |  |  | /  /          
                 / \  \   | |__| |  /  /\  \   | |_| |  |  |/  /          
                |  |  |   |  __  | /  /__\  \  |    /   |      \           
                |  |  |   | |  | | |   __   |  |    \   |  |\   \          
                \     /   | |  | | |  |  |  |  | |\  \  |  | \   \       
                 \___/    |_|  |_| |__|  |__|  |_| \__\ |__|  \__/        
                                                                              
                      - O R C A' S   B I G   F R I E N D -                    
                                      &                                       
                       - I N T E G R A L  F E E D E R -                       
                                                                              
 v1 FN, 2020, v2 2021, v3 2022-2024                                           
------------------------------------------------------------------------------


----------------------
SHARK INTEGRAL PACKAGE
----------------------

Number of atoms                             ...     58
Number of basis functions                   ...    465
Number of shells                            ...    233
Maximum angular momentum                    ...      2
Integral batch strategy                     ... SHARK/LIBINT Hybrid
RI-J (if used) integral strategy            ... SPLIT-RIJ (Revised 2003 algorithm where possible)
Printlevel                                  ...      1
Contraction scheme used                     ... SEGMENTED contraction
Prescreening option                         ... SCHWARTZ
   Thresh                                   ... 2.500e-11
   Tcut                                     ... 2.500e-12
   Tpresel                                  ... 2.500e-12 
Coulomb Range Separation                    ... NOT USED
Exchange Range Separation                   ... NOT USED
Multipole approximations                    ... NOT USED
Finite Nucleus Model                        ... NOT USED
CABS basis                                  ... NOT available
Auxiliary Coulomb fitting basis             ... AVAILABLE
   # of basis functions in Aux-J            ...   1362
   # of shells in Aux-J                     ...    482
   Maximum angular momentum in Aux-J        ...      4
Auxiliary J/K fitting basis                 ... NOT available
Auxiliary Correlation fitting basis         ... NOT available
Auxiliary 'external' fitting basis          ... NOT available

Checking pre-screening integrals            ... done (  0.0 sec) Dimension = 233
Check shell pair data                       ... done (  0.0 sec)
Shell pair information
Shell pair cut-off parameter TPreSel        ...   2.5e-12
Total number of shell pairs                 ...     27261
Shell pairs after pre-screening             ...     17056
Total number of primitive shell pairs       ...     92609
Primitive shell pairs kept                  ...     37464
          la=0 lb=0:   6311 shell pairs
          la=1 lb=0:   6656 shell pairs
          la=1 lb=1:   1736 shell pairs
          la=2 lb=0:   1510 shell pairs
          la=2 lb=1:    756 shell pairs
          la=2 lb=2:     87 shell pairs

Calculating one electron integrals          ... done (  0.0 sec)
Calculating RI/J V-Matrix + Cholesky decomp.... done (  0.1 sec)
Calculating Nuclear repulsion               ... done (  0.0 sec) ENN=   1598.996336461061 Eh

Diagonalization of the overlap matrix:
Smallest eigenvalue                        ... 9.143e-04
Time for diagonalization                   ...    0.031 sec
Threshold for overlap eigenvalues          ... 1.000e-07
Number of eigenvalues below threshold      ... 0
Time for construction of square roots      ...    0.017 sec
Total time needed                          ...    0.050 sec

-------------------
DFT GRID GENERATION
-------------------

General Integration Accuracy     IntAcc      ... 4.388
Radial Grid Type                 RadialGrid  ... OptM3 with GC (2021)
Angular Grid (max. ang.)         AngularGrid ... 4 (Lebedev-302)
Angular grid pruning method      GridPruning ... 4 (adaptive)
Weight generation scheme         WeightScheme... mBecke (2022)
Basis function cutoff            BFCut       ... 1.0000e-11
Integration weight cutoff        WCut        ... 1.0000e-14
Partially contracted basis set               ... off
Rotationally invariant grid construction     ... off
Angular grids for H and He will be reduced by one unit

Total number of grid points                  ...   237851
Total number of batches                      ...     3748
Average number of points per batch           ...       63
Average number of grid points per atom       ...     4101
Initializing property integral containers    ... done (  0.0 sec)

SHARK setup successfully completed in   1.7 seconds

Maximum memory used throughout the entire STARTUP-calculation: 65.9 MB


           ************************************************************
           *        Program running with 6 parallel MPI-processes     *
           *              working on a common directory               *
           ************************************************************
-------------------------------------------------------------------------------
                                 ORCA GUESS
                   Start orbitals & Density for SCF / CASSCF
-------------------------------------------------------------------------------

------------
SCF SETTINGS
------------
Hamiltonian:
 Density Functional     Method          .... DFT(GTOs)
 Exchange Functional    Exchange        .... B88
   X-Alpha parameter    XAlpha          ....  0.666667
   Becke's b parameter  XBeta           ....  0.004200
 Correlation Functional Correlation     .... LYP
 LDA part of GGA corr.  LDAOpt          .... VWN-5
 Gradients option       PostSCFGGA      .... off
 Hybrid DFT is turned on
   Fraction HF Exchange ScalHFX         ....  0.200000
   Scaling of DF-GGA-X  ScalDFX         ....  0.720000
   Scaling of DF-GGA-C  ScalDFC         ....  0.810000
   Scaling of DF-LDA-C  ScalLDAC        ....  1.000000
   Perturbative correction              ....  0.000000
   NL short-range parameter             ....  4.800000
 RI-approximation to the Coulomb term is turned on
   Number of AuxJ basis functions       .... 1362
   RIJ-ON(X) (HFX calculated with O(N)) .... on


General Settings:
 Integral files         IntName         .... data/geom_opt/77831/77831
 Hartree-Fock type      HFTyp           .... RHF
 Total Charge           Charge          ....    0
 Multiplicity           Mult            ....    1
 Number of Electrons    NEL             ....  162
 Basis Dimension        Dim             ....  465
 Nuclear Repulsion      ENuc            ....   1598.9963364611 Eh

Convergence Acceleration:
 AO-DIIS                CNVDIIS         .... on
   Start iteration      DIISMaxIt       ....    12
   Startup error        DIISStart       ....  0.200000
   # of expansion vecs  DIISMaxEq       ....     5
   Bias factor          DIISBfac        ....   1.050
   Max. coefficient     DIISMaxC        ....  10.000
 MO-DIIS                CNVKDIIS        .... off
 Trust-Rad. Augm. Hess. CNVTRAH         .... auto
   Auto Start mean grad. ratio tolernc. ....  1.125000
   Auto Start start iteration           ....    50
   Auto Start num. interpolation iter.  ....    10
   Max. Number of Micro iterations      ....    24
   Max. Number of Macro iterations      .... Maxiter - #DIIS iter
   Number of Davidson start vectors     ....     2
   Converg. threshold    (grad. norm)   ....   1.000e-05
   Grad. Scal. Fac. for Micro threshold ....   0.100
   Minimum threshold for Micro iter.    ....   1.000e-02
   NR start threshold (gradient norm)   ....   1.000e-04
   Initial trust radius                 ....   0.400
   Minimum AH scaling param. (alpha)    ....   1.000
   Maximum AH scaling param. (alpha)    .... 1000.000
   Quad. conv. algorithm                .... NR
   White noise on init. David. guess    .... on
   Maximum white noise                  ....   0.010
   Pseudo random numbers                .... off
   Inactive MOs                         .... canonical
   Orbital update algorithm             .... Taylor
   Preconditioner                       .... Diag
   Full preconditioner red. dimension   ....   250
   COSX micro iterations for RIJONX calc.... off
 SOSCF                  CNVSOSCF        .... on
   Start iteration      SOSCFMaxIt      ....   150
   Startup grad/error   SOSCFStart      ....  0.003300
   Hessian update       SOSCFHessUp     .... L-BFGS
 Level Shifting         CNVShift        .... on
   Level shift para.    LevelShift      ....    0.2500
   Turn off err/grad.   ShiftErr        ....    0.0010
 Zerner damping         CNVZerner       .... off
 Static damping         CNVDamp         .... on
   Fraction old density DampFac         ....    0.7000
   Max. Damping (<1)    DampMax         ....    0.9800
   Min. Damping (>=0)   DampMin         ....    0.0000
   Turn off err/grad.   DampErr         ....    0.1000

SCF Procedure:
 Maximum # iterations   MaxIter         ....   125
 SCF integral mode      SCFMode         .... Direct
   Integral package                     .... SHARK and LIBINT hybrid scheme
 Reset frequency        DirectResetFreq ....    20
 Integral Threshold     Thresh          ....  2.500e-11 Eh
 Primitive CutOff       TCut            ....  2.500e-12 Eh

Convergence Tolerance:
 Convergence Check Mode ConvCheckMode   .... Total+1el-Energy
 Convergence forced     ConvForced      .... 0
 Energy Change          TolE            ....  1.000e-08 Eh
 1-El. energy change                    ....  1.000e-05 Eh
 Orbital Gradient       TolG            ....  1.000e-05
 Orbital Rotation angle TolX            ....  1.000e-05
 DIIS Error             TolErr          ....  5.000e-07

------------------------------
INITIAL GUESS: MODEL POTENTIAL
------------------------------
Loading Hartree-Fock densities                     ... done
Calculating cut-offs                               ... done
Initializing the effective Hamiltonian             ... done
Setting up the integral package (SHARK)            ... done
Starting the Coulomb interaction                   ... done (   0.3 sec)
Making the grid                                    ... done (   0.3 sec)
Mapping shells                                     ... done
Starting the XC term evaluation                    ... done (   0.2 sec)
  promolecular density results
     # of electrons  =    161.985742849
     EX              =   -126.855303884
     EC              =     -5.312078219
     EX+EC           =   -132.167382103
Transforming the Hamiltonian                       ... done (   0.0 sec)
Diagonalizing the Hamiltonian                      ... done (   0.0 sec)
Back transforming the eigenvectors                 ... done (   0.0 sec)
Now organizing SCF variables                       ... done
                      ------------------
                      INITIAL GUESS DONE (   0.9 sec)
                      ------------------
             **** ENERGY FILE WAS UPDATED (data/geom_opt/77831/77831.en.tmp) ****
Finished Guess after   1.0 sec
Maximum memory used throughout the entire GUESS-calculation: 34.7 MB


           ************************************************************
           *        Program running with 6 parallel MPI-processes     *
           *              working on a common directory               *
           ************************************************************

-------------------------------------------------------------------------------------------
                                      ORCA LEAN-SCF
                              memory conserving SCF solver
-------------------------------------------------------------------------------------------

----------------------------------------D-I-I-S--------------------------------------------
Iteration    Energy (Eh)           Delta-E    RMSDP     MaxDP     DIISErr   Damp  Time(sec)
-------------------------------------------------------------------------------------------
               ***  Starting incremental Fock matrix formation  ***
    1    -1048.8833881037453466     0.00e+00  2.11e-03  8.37e-02  1.76e-01  0.700   7.0
    2    -1049.2095945732862674    -3.26e-01  1.52e-03  7.00e-02  9.29e-02  0.700   6.3
                               ***Turning on AO-DIIS***
    3    -1049.3427237815535591    -1.33e-01  6.39e-04  3.69e-02  3.57e-02  0.700   6.1
    4    -1049.4188609383977564    -7.61e-02  1.13e-03  8.01e-02  1.71e-02  0.000   5.8
    5    -1049.5839202267625296    -1.65e-01  1.99e-04  1.52e-02  6.58e-03  0.000   6.2
                              *** Initializing SOSCF ***
---------------------------------------S-O-S-C-F--------------------------------------
Iteration    Energy (Eh)           Delta-E    RMSDP     MaxDP     MaxGrad    Time(sec)
--------------------------------------------------------------------------------------
    6    -1049.5849878287904176    -1.07e-03  7.19e-05  2.23e-03  1.68e-03     5.8
               *** Restarting incremental Fock matrix formation ***
    7    -1049.5850839677618751    -9.61e-05  4.89e-05  2.13e-03  2.33e-04     7.1
    8    -1049.5850864444373656    -2.48e-06  1.36e-05  9.28e-04  1.65e-04     4.9
    9    -1049.5850924039441452    -5.96e-06  4.75e-06  3.77e-04  1.67e-05     4.1
   10    -1049.5850924544602094    -5.05e-08  2.04e-06  1.81e-04  1.56e-05     3.9
   11    -1049.5850925148997703    -6.04e-08  6.48e-07  2.86e-05  3.10e-06     3.5
   12    -1049.5850925111440120     3.76e-09  3.56e-07  2.30e-05  2.80e-06     3.2
                 **** Energy Check signals convergence ****

               *****************************************************
               *                     SUCCESS                       *
               *           SCF CONVERGED AFTER  12 CYCLES          *
               *****************************************************

             **** ENERGY FILE WAS UPDATED (data/geom_opt/77831/77831.en.tmp) ****

----------------
TOTAL SCF ENERGY
----------------

Total Energy       :      -1049.58509251114401 Eh          -28560.66236 eV

Components:
Nuclear Repulsion  :       1598.99633646106076 Eh           43510.90237 eV
Electronic Energy  :      -2648.58142897220478 Eh          -72071.56473 eV
One Electron Energy:      -4603.42942344347739 Eh         -125265.68300 eV
Two Electron Energy:       1954.84799447127261 Eh           53194.11827 eV

Virial components:
Potential Energy   :      -2090.11099342234274 Eh          -56874.81159 eV
Kinetic Energy     :       1040.52590091119873 Eh           28314.14923 eV
Virial Ratio       :          2.00870635857504

DFT components:
N(Alpha)           :       80.999952528497 electrons
N(Beta)            :       80.999952528497 electrons
N(Total)           :      161.999905056994 electrons
E(X)               :     -102.817693997001 Eh       
E(C)               :       -6.273817800451 Eh       
E(XC)              :     -109.091511797452 Eh       

---------------
SCF CONVERGENCE
---------------

  Last Energy change         ...   -3.7558e-09  Tolerance :   1.0000e-08
  Last MAX-Density change    ...    2.2950e-05  Tolerance :   1.0000e-07
  Last RMS-Density change    ...    3.5609e-07  Tolerance :   5.0000e-09
  Last DIIS Error            ...    1.6767e-03  Tolerance :   5.0000e-07
  Last Orbital Gradient      ...    2.7984e-06  Tolerance :   1.0000e-05
  Last Orbital Rotation      ...    3.5401e-06  Tolerance :   1.0000e-05


----------------
ORBITAL ENERGIES
----------------

  NO   OCC          E(Eh)            E(eV) 
   0   2.0000     -77.016814     -2095.7341 
   1   2.0000     -10.176151      -276.9071 
   2   2.0000     -10.175206      -276.8814 
   3   2.0000     -10.175066      -276.8776 
   4   2.0000     -10.174827      -276.8711 
   5   2.0000     -10.173879      -276.8453 
   6   2.0000     -10.173775      -276.8425 
   7   2.0000     -10.173719      -276.8410 
   8   2.0000     -10.173700      -276.8405 
   9   2.0000     -10.172555      -276.8093 
  10   2.0000     -10.172499      -276.8078 
  11   2.0000     -10.172490      -276.8075 
  12   2.0000     -10.172471      -276.8070 
  13   2.0000     -10.171759      -276.7876 
  14   2.0000     -10.171677      -276.7854 
  15   2.0000     -10.170924      -276.7649 
  16   2.0000     -10.170284      -276.7475 
  17   2.0000     -10.169727      -276.7323 
  18   2.0000     -10.168431      -276.6971 
  19   2.0000      -6.515968      -177.3085 
  20   2.0000      -4.681310      -127.3849 
  21   2.0000      -4.681224      -127.3826 
  22   2.0000      -4.678189      -127.3000 
  23   2.0000      -0.806254       -21.9393 
  24   2.0000      -0.798846       -21.7377 
  25   2.0000      -0.798012       -21.7150 
  26   2.0000      -0.774638       -21.0790 
  27   2.0000      -0.758518       -20.6403 
  28   2.0000      -0.756630       -20.5890 
  29   2.0000      -0.718362       -19.5476 
  30   2.0000      -0.695222       -18.9180 
  31   2.0000      -0.692621       -18.8472 
  32   2.0000      -0.654332       -17.8053 
  33   2.0000      -0.636472       -17.3193 
  34   2.0000      -0.625623       -17.0241 
  35   2.0000      -0.592996       -16.1362 
  36   2.0000      -0.579816       -15.7776 
  37   2.0000      -0.574226       -15.6255 
  38   2.0000      -0.568737       -15.4761 
  39   2.0000      -0.558428       -15.1956 
  40   2.0000      -0.554839       -15.0979 
  41   2.0000      -0.515137       -14.0176 
  42   2.0000      -0.480329       -13.0704 
  43   2.0000      -0.477026       -12.9805 
  44   2.0000      -0.462172       -12.5764 
  45   2.0000      -0.456054       -12.4099 
  46   2.0000      -0.452078       -12.3017 
  47   2.0000      -0.445940       -12.1346 
  48   2.0000      -0.441441       -12.0122 
  49   2.0000      -0.439096       -11.9484 
  50   2.0000      -0.425690       -11.5836 
  51   2.0000      -0.417327       -11.3560 
  52   2.0000      -0.414158       -11.2698 
  53   2.0000      -0.412031       -11.2119 
  54   2.0000      -0.402061       -10.9406 
  55   2.0000      -0.395965       -10.7747 
  56   2.0000      -0.392019       -10.6674 
  57   2.0000      -0.386128       -10.5071 
  58   2.0000      -0.378081       -10.2881 
  59   2.0000      -0.374918       -10.2020 
  60   2.0000      -0.367068        -9.9884 
  61   2.0000      -0.365579        -9.9479 
  62   2.0000      -0.359804        -9.7908 
  63   2.0000      -0.355010        -9.6603 
  64   2.0000      -0.350838        -9.5468 
  65   2.0000      -0.349309        -9.5052 
  66   2.0000      -0.341441        -9.2911 
  67   2.0000      -0.335515        -9.1298 
  68   2.0000      -0.329510        -8.9664 
  69   2.0000      -0.327980        -8.9248 
  70   2.0000      -0.327127        -8.9016 
  71   2.0000      -0.325326        -8.8526 
  72   2.0000      -0.323760        -8.8100 
  73   2.0000      -0.321785        -8.7562 
  74   2.0000      -0.320605        -8.7241 
  75   2.0000      -0.318139        -8.6570 
  76   2.0000      -0.314156        -8.5486 
  77   2.0000      -0.305780        -8.3207 
  78   2.0000      -0.294737        -8.0202 
  79   2.0000      -0.283411        -7.7120 
  80   2.0000      -0.193040        -5.2529 
  81   0.0000       0.045896         1.2489 
  82   0.0000       0.052406         1.4260 
  83   0.0000       0.059572         1.6210 
  84   0.0000       0.064820         1.7638 
  85   0.0000       0.065445         1.7808 
  86   0.0000       0.071269         1.9393 
  87   0.0000       0.072099         1.9619 
  88   0.0000       0.077728         2.1151 
  89   0.0000       0.084076         2.2878 
  90   0.0000       0.089393         2.4325 
  91   0.0000       0.094063         2.5596 
*Only the first 10 virtual orbitals were printed.

                    ********************************
                    * MULLIKEN POPULATION ANALYSIS *
                    ********************************

-----------------------
MULLIKEN ATOMIC CHARGES
-----------------------
   0 C :    0.003803
   1 C :    0.016824
   2 C :   -0.001366
   3 C :    0.025676
   4 C :    0.044539
   5 C :   -0.135272
   6 P :    0.143603
   7 C :   -0.104904
   8 C :    0.013104
   9 C :    0.005744
  10 C :    0.022449
  11 C :    0.021788
  12 C :    0.002286
  13 C :   -0.121422
  14 C :    0.055778
  15 C :    0.016571
  16 C :    0.009026
  17 C :   -0.002483
  18 C :    0.035121
  19 H :    0.011686
  20 H :    0.002078
  21 H :    0.004707
  22 H :   -0.007799
  23 H :   -0.009116
  24 H :   -0.008494
  25 H :   -0.008405
  26 H :   -0.009712
  27 H :   -0.016545
  28 H :   -0.006649
  29 H :   -0.006907
  30 H :    0.028458
  31 H :    0.023994
  32 H :    0.019695
  33 H :    0.021485
  34 H :    0.004673
  35 H :    0.000167
  36 H :   -0.008431
  37 H :   -0.014361
  38 H :   -0.014445
  39 H :   -0.013598
  40 H :   -0.008707
  41 H :   -0.010095
  42 H :    0.004505
  43 H :    0.011604
  44 H :    0.002117
  45 H :    0.015455
  46 H :    0.015126
  47 H :   -0.008325
  48 H :   -0.001786
  49 H :   -0.013078
  50 H :   -0.014705
  51 H :   -0.011127
  52 H :   -0.013423
  53 H :   -0.007619
  54 H :   -0.008330
  55 H :    0.002088
  56 H :    0.001318
  57 H :    0.001630
Sum of atomic charges:   -0.0000000

--------------------------------
MULLIKEN REDUCED ORBITAL CHARGES
--------------------------------
  0 C s       :     2.988223  s :     2.988223
      pz      :     0.986325  p :     2.978177
      px      :     1.003567
      py      :     0.988284
      dz2     :     0.007743  d :     0.029797
      dxz     :     0.006627
      dyz     :     0.004338
      dx2y2   :     0.009077
      dxy     :     0.002012

  1 C s       :     2.996535  s :     2.996535
      pz      :     0.994594  p :     2.948884
      px      :     0.975819
      py      :     0.978471
      dz2     :     0.007960  d :     0.037756
      dxz     :     0.007137
      dyz     :     0.007912
      dx2y2   :     0.008874
      dxy     :     0.005873

  2 C s       :     3.015522  s :     3.015522
      pz      :     0.980380  p :     2.948825
      px      :     0.993520
      py      :     0.974926
      dz2     :     0.005827  d :     0.037018
      dxz     :     0.009308
      dyz     :     0.005521
      dx2y2   :     0.008637
      dxy     :     0.007724

  3 C s       :     2.997170  s :     2.997170
      pz      :     0.974487  p :     2.940420
      px      :     0.993742
      py      :     0.972191
      dz2     :     0.005918  d :     0.036734
      dxz     :     0.009031
      dyz     :     0.005413
      dx2y2   :     0.008609
      dxy     :     0.007762

  4 C s       :     2.978294  s :     2.978294
      pz      :     0.980661  p :     2.939531
      px      :     0.985477
      py      :     0.973393
      dz2     :     0.007601  d :     0.037636
      dxz     :     0.008205
      dyz     :     0.007878
      dx2y2   :     0.008297
      dxy     :     0.005655

  5 C s       :     3.067306  s :     3.067306
      pz      :     1.010381  p :     3.036875
[...]
      pz      :     0.034485  p :     0.063745
      px      :     0.013710
      py      :     0.015550

 42 H s       :     0.913439  s :     0.913439
      pz      :     0.015133  p :     0.063641
      px      :     0.034875
      py      :     0.013632

 43 H s       :     0.916273  s :     0.916273
      pz      :     0.034927  p :     0.064386
      px      :     0.012979
      py      :     0.016480

 44 H s       :     0.916477  s :     0.916477
      pz      :     0.012579  p :     0.063408
      px      :     0.012009
      py      :     0.038820

 45 H s       :     0.911887  s :     0.911887
      pz      :     0.014261  p :     0.067925
      px      :     0.015441
      py      :     0.038223

 46 H s       :     0.918874  s :     0.918874
      pz      :     0.036668  p :     0.070410
      px      :     0.015054
      py      :     0.018688

 47 H s       :     0.921060  s :     0.921060
      pz      :     0.013268  p :     0.064519
      px      :     0.014739
      py      :     0.036512

 48 H s       :     0.916446  s :     0.916446
      pz      :     0.033156  p :     0.064712
      px      :     0.013303
      py      :     0.018254

 49 H s       :     0.919804  s :     0.919804
      pz      :     0.012935  p :     0.063734
      px      :     0.014666
      py      :     0.036133

 50 H s       :     0.920709  s :     0.920709
      pz      :     0.032011  p :     0.063788
      px      :     0.013633
      py      :     0.018143

 51 H s       :     0.919346  s :     0.919346
      pz      :     0.032137  p :     0.063797
      px      :     0.013548
      py      :     0.018112

 52 H s       :     0.920360  s :     0.920360
      pz      :     0.012991  p :     0.063714
      px      :     0.014664
      py      :     0.036058

 53 H s       :     0.918974  s :     0.918974
      pz      :     0.012963  p :     0.063493
      px      :     0.014579
      py      :     0.035951

 54 H s       :     0.919328  s :     0.919328
      pz      :     0.031737  p :     0.063471
      px      :     0.013440
      py      :     0.018293

 55 H s       :     0.916321  s :     0.916321
      pz      :     0.030602  p :     0.063402
      px      :     0.013942
      py      :     0.018858

 56 H s       :     0.916614  s :     0.916614
      pz      :     0.012417  p :     0.063387
      px      :     0.015258
      py      :     0.035712

 57 H s       :     0.914394  s :     0.914394
      pz      :     0.027775  p :     0.063643
      px      :     0.019400
      py      :     0.016468



                      *****************************
                      * MAYER POPULATION ANALYSIS *
                      *****************************

  NA   - Mulliken gross atomic population
  ZA   - Total nuclear charge
  QA   - Mulliken gross atomic charge
  VA   - Mayer's total valence
  BVA  - Mayer's bonded valence
  FA   - Mayer's free valence

  ATOM       NA         ZA         QA         VA         BVA        FA
  0 C      6.0067     6.0000    -0.0067     4.0176     4.0176    -0.0000
  1 C      5.9866     6.0000     0.0134     4.1146     4.1146    -0.0000
  2 C      6.0109     6.0000    -0.0109     4.0825     4.0825    -0.0000
  3 C      5.9783     6.0000     0.0217     4.0712     4.0712    -0.0000
  4 C      5.9507     6.0000     0.0493     4.0508     4.0508    -0.0000
  5 C      6.1615     6.0000    -0.1615     3.9186     3.9186    -0.0000
  6 P     14.8205    15.0000     0.1795     3.0217     3.0217    -0.0000
  7 C      6.1322     6.0000    -0.1322     3.9137     3.9137    -0.0000
  8 C      5.9817     6.0000     0.0183     4.0307     4.0307    -0.0000
  9 C      5.9977     6.0000     0.0023     4.0534     4.0534    -0.0000
 10 C      5.9847     6.0000     0.0153     4.0762     4.0762    -0.0000
 11 C      5.9830     6.0000     0.0170     4.1101     4.1101    -0.0000
 12 C      6.0074     6.0000    -0.0074     4.0183     4.0183    -0.0000
 13 C      6.1413     6.0000    -0.1413     3.9312     3.9312    -0.0000
 14 C      5.9510     6.0000     0.0490     4.0287     4.0287    -0.0000
 15 C      5.9839     6.0000     0.0161     4.0724     4.0724    -0.0000
 16 C      5.9953     6.0000     0.0047     4.0677     4.0677    -0.0000
 17 C      6.0051     6.0000    -0.0051     4.1072     4.1072    -0.0000
 18 C      5.9790     6.0000     0.0210     4.0122     4.0122    -0.0000
 19 H      0.9861     1.0000     0.0139     0.9899     0.9899    -0.0000
 20 H      0.9952     1.0000     0.0048     0.9879     0.9879    -0.0000
 21 H      0.9915     1.0000     0.0085     0.9824     0.9824     0.0000
 22 H      1.0050     1.0000    -0.0050     0.9777     0.9777    -0.0000
 23 H      1.0051     1.0000    -0.0051     0.9726     0.9726    -0.0000
 24 H      1.0047     1.0000    -0.0047     0.9829     0.9829    -0.0000
 25 H      1.0047     1.0000    -0.0047     0.9820     0.9820    -0.0000
 26 H      1.0061     1.0000    -0.0061     0.9819     0.9819    -0.0000
 27 H      1.0138     1.0000    -0.0138     0.9845     0.9845    -0.0000
 28 H      1.0057     1.0000    -0.0057     1.0013     1.0013    -0.0000
 29 H      1.0033     1.0000    -0.0033     0.9827     0.9827     0.0000
 30 H      0.9719     1.0000     0.0281     0.9775     0.9775     0.0000
 31 H      0.9749     1.0000     0.0251     0.9900     0.9900    -0.0000
 32 H      0.9783     1.0000     0.0217     0.9833     0.9833    -0.0000
 33 H      0.9761     1.0000     0.0239     0.9811     0.9811    -0.0000
 34 H      0.9907     1.0000     0.0093     0.9894     0.9894    -0.0000
 35 H      0.9985     1.0000     0.0015     0.9869     0.9869    -0.0000
 36 H      1.0072     1.0000    -0.0072     0.9879     0.9879    -0.0000
 37 H      1.0124     1.0000    -0.0124     0.9832     0.9832    -0.0000
 38 H      1.0109     1.0000    -0.0109     0.9787     0.9787    -0.0000
 39 H      1.0110     1.0000    -0.0110     0.9833     0.9833    -0.0000
 40 H      1.0058     1.0000    -0.0058     0.9773     0.9773    -0.0000
 41 H      1.0053     1.0000    -0.0053     0.9726     0.9726    -0.0000
 42 H      0.9916     1.0000     0.0084     0.9822     0.9822    -0.0000
 43 H      0.9861     1.0000     0.0139     0.9900     0.9900     0.0000
 44 H      0.9951     1.0000     0.0049     0.9875     0.9875    -0.0000
 45 H      0.9823     1.0000     0.0177     0.9811     0.9811    -0.0000
 46 H      0.9780     1.0000     0.0220     0.9912     0.9912    -0.0000
 47 H      1.0051     1.0000    -0.0051     0.9890     0.9890    -0.0000
 48 H      1.0010     1.0000    -0.0010     0.9878     0.9878    -0.0000
 49 H      1.0113     1.0000    -0.0113     0.9831     0.9831    -0.0000
 50 H      1.0131     1.0000    -0.0131     0.9840     0.9840    -0.0000
 51 H      1.0095     1.0000    -0.0095     0.9823     0.9823     0.0000
 52 H      1.0116     1.0000    -0.0116     0.9822     0.9822    -0.0000
 53 H      1.0053     1.0000    -0.0053     0.9768     0.9768    -0.0000
 54 H      1.0060     1.0000    -0.0060     0.9768     0.9768    -0.0000
 55 H      0.9945     1.0000     0.0055     0.9877     0.9877    -0.0000
 56 H      0.9952     1.0000     0.0048     0.9877     0.9877    -0.0000
 57 H      0.9929     1.0000     0.0071     0.9816     0.9816    -0.0000

  Mayer bond orders larger than 0.100000
B(  0-C ,  1-C ) :   1.1048 B(  0-C , 19-H ) :   0.9695 B(  0-C , 20-H ) :   0.9695 
B(  0-C , 21-H ) :   0.9647 B(  1-C ,  2-C ) :   1.0905 B(  1-C , 22-H ) :   0.9411 
B(  1-C , 23-H ) :   0.9412 B(  2-C ,  3-C ) :   1.0860 B(  2-C , 24-H ) :   0.9358 
B(  2-C , 25-H ) :   0.9352 B(  3-C ,  4-C ) :   1.0820 B(  3-C , 26-H ) :   0.9318 
B(  3-C , 27-H ) :   0.9371 B(  4-C ,  5-C ) :   1.0503 B(  4-C , 28-H ) :   0.9334 
B(  4-C , 29-H ) :   0.9276 B(  5-C ,  6-P ) :   0.9563 B(  5-C , 30-H ) :   0.9409 
B(  5-C , 31-H ) :   0.9355 B(  6-P ,  7-C ) :   0.9719 B(  6-P , 13-C ) :   0.9748 
B(  7-C ,  8-C ) :   1.0376 B(  7-C , 32-H ) :   0.9387 B(  7-C , 33-H ) :   0.9387 
B(  8-C ,  9-C ) :   1.0767 B(  8-C , 34-H ) :   0.9336 B(  8-C , 35-H ) :   0.9394 
B(  9-C , 10-C ) :   1.0808 B(  9-C , 36-H ) :   0.9373 B(  9-C , 37-H ) :   0.9382 
B( 10-C , 11-C ) :   1.0899 B( 10-C , 38-H ) :   0.9352 B( 10-C , 39-H ) :   0.9383 
B( 11-C , 12-C ) :   1.1042 B( 11-C , 40-H ) :   0.9413 B( 11-C , 41-H ) :   0.9401 
B( 12-C , 42-H ) :   0.9646 B( 12-C , 43-H ) :   0.9698 B( 12-C , 44-H ) :   0.9698 
B( 13-C , 14-C ) :   1.0605 B( 13-C , 45-H ) :   0.9379 B( 13-C , 46-H ) :   0.9162 
B( 14-C , 15-C ) :   1.0877 B( 14-C , 47-H ) :   0.9333 B( 14-C , 48-H ) :   0.9330 
B( 15-C , 16-C ) :   1.0834 B( 15-C , 49-H ) :   0.9386 B( 15-C , 50-H ) :   0.9364 
B( 16-C , 17-C ) :   1.0842 B( 16-C , 51-H ) :   0.9400 B( 16-C , 52-H ) :   0.9396 
B( 17-C , 18-C ) :   1.1058 B( 17-C , 53-H ) :   0.9430 B( 17-C , 54-H ) :   0.9429 
B( 18-C , 55-H ) :   0.9687 B( 18-C , 56-H ) :   0.9686 B( 18-C , 57-H ) :   0.9646 


-------
TIMINGS
-------

Total SCF time: 0 days 0 hours 0 min 24 sec 

Total time                  ....      24.651 sec
Sum of individual times     ....      24.530 sec  ( 99.5%)

SCF preparation             ....       0.149 sec  (  0.6%)
Fock matrix formation       ....      23.722 sec  ( 96.2%)
  Startup                   ....       0.025 sec  (  0.1% of F)
  Exchange formation        ....      18.897 sec  ( 79.7% of F)
  Split-RI-J                ....       1.925 sec  (  8.1% of F)
  XC integration            ....       2.785 sec  ( 11.7% of F)
    Basis function eval.    ....       0.854 sec  ( 30.7% of XC)
    Density eval.           ....       0.788 sec  ( 28.3% of XC)
    XC-Functional eval.     ....       0.066 sec  (  2.4% of XC)
    XC-Potential eval.      ....       0.604 sec  ( 21.7% of XC)
Diagonalization             ....       0.000 sec  (  0.0%)
Density matrix formation    ....       0.061 sec  (  0.2%)
Total Energy calculation    ....       0.020 sec  (  0.1%)
Population analysis         ....       0.133 sec  (  0.5%)
Orbital Transformation      ....       0.075 sec  (  0.3%)
Orbital Orthonormalization  ....       0.000 sec  (  0.0%)
DIIS solution               ....       0.083 sec  (  0.3%)
SOSCF solution              ....       0.287 sec  (  1.2%)
Finished LeanSCF after  24.7 sec

Maximum memory used throughout the entire LEANSCF-calculation: 52.7 MB


-------------------------------------------------------------------------------
                          DFT DISPERSION CORRECTION                            
                                                                               
                              DFTD3 V3.1  Rev 1                                
                          USING Becke-Johnson damping                          
-------------------------------------------------------------------------------
The B3LYP functional is recognized
Active option DFTDOPT                   ...         4   

molecular C6(AA) [au] = 24766.806770 


            DFT-D V3
 parameters
 s6 scaling factor         :     1.0000 
 a1 scaling factor         :     0.3981 
 s8 scaling factor         :     1.9889 
 a2 scaling factor         :     4.4211 
 ad hoc parameters k1-k3   :    16.0000     1.3333    -4.0000 

 Edisp/kcal,au: -61.441586241868  -0.097913389721 
 E6   /kcal   : -30.304746754 
 E8   /kcal   : -31.136839488 
 % E8         :  50.677141319 

-------------------------   ----------------
Dispersion correction           -0.097913390
-------------------------   ----------------


-------------------------   --------------------
FINAL SINGLE POINT ENERGY     -1049.692187138794
-------------------------   --------------------

                                *** OPTIMIZATION RUN DONE ***



           ************************************************************
           *        Program running with 6 parallel MPI-processes     *
           *              working on a common directory               *
           ************************************************************

------------------------------------------------------------------------------
                              ORCA PROPERTY CALCULATIONS
------------------------------------------------------------------------------

GBWName                                 ... data/geom_opt/77831/77831.gbw
Number of atoms                         ...     58
Number of basis functions               ...    465
Max core memory                         ...   1024 MB

Electric properties:
Dipole moment                           ... YES
Quadrupole moment                       ...  NO
Static polarizability (Dipole/Dipole)   ...  NO
Static polarizability (Dipole/Quad.)    ...  NO
Static polarizability (Quad./Quad.)     ...  NO
Static polarizability (Velocity)        ...  NO

Atomic electric properties:
Dipole moment                           ...  NO
Quadrupole moment                       ...  NO
Static polarizability                   ...  NO

Choice of electric origin               ... Center of mass
Position of electric origin             ...    -0.026065    -0.252968    -0.457979

General magnetic properties:
Magnetizability                         ...  NO

EPR properties:
g-Tensor (aka g-matrix)                 ...  NO
Zero-Field splitting spin-orbit         ...  NO
Zero-field splitting spin-spin          ...  NO
Hyperfine couplings                     ...  NO (   0 nuclei)
Quadrupole couplings                    ...  NO (   0 nuclei)
Contact density                         ...  NO (   0 nuclei)

NMR properties:
Chemical shifts                         ...  NO (   0 nuclei)
Spin-rotation constants                 ...  NO (   0 nuclei)
Spin-spin couplings                     ...  NO (   0 nuclei,    0 pairs)

Choice of magnetic origin               ... GIAO
Position of magnetic origin             ...     0.000000     0.000000     0.000000

Properties with geometric perturbations:
SCF Hessian                             ...  NO
IR spectrum                             ...  NO
VCD spectrum                            ...  NO
X-ray spectroscopy properties:
SCF XES/XAS/RIXS spectra                ...  NO


-------------
DIPOLE MOMENT
-------------

Method             : SCF
Type of density    : Electron Density
Multiplicity       :   1
Irrep              :   0
Energy             : -1049.5942737490724994 Eh
Relativity type    : 
Basis              : AO
                                X                 Y                 Z
Electronic contribution:     -0.621170397      -7.065629660     -12.548663439
Nuclear contribution   :      0.758883230       7.260770630      13.019311880
                        -----------------------------------------
Total Dipole Moment    :      0.137712833       0.195140971       0.470648441
                        -----------------------------------------
Magnitude (a.u.)       :      0.527782889
Magnitude (Debye)      :      1.341517492



--------------------
Rotational spectrum 
--------------------
 
Rotational constants in cm-1:             0.008884             0.004009             0.003167 
Rotational constants in MHz :           266.349236           120.195891            94.948261 

Dipole components along the rotational axes: 
x,y,z [a.u.] :     0.207303     0.099046     0.475153 
x,y,z [Debye]:     0.526923     0.251756     1.207742 

 

Dipole moment calculation done in   0.0 sec 

Maximum memory used throughout the entire PROP-calculation: 26.8 MB

--------------------------------
SUGGESTED CITATIONS FOR THIS RUN
--------------------------------

Below you find a list of papers that are relevant to this ORCA run
We neither can nor want to force you to cite these papers, but we appreciate if you do
You receive ORCA, which is the product of decades of hard work by many enthusiastic individuals, for free
The only thing we kindly ask in return is that you cite our papers,
We deeply appreciate it, if you show your appreciation for ORCA by not just citing the generic ORCA reference.

Please note that relegating all ORCA citations to the supporting information does *not* help us.
SI sections are not indexed - citations you put there will not count into any citation statistics
But we need these citations in order to attract the funding resources that allow us to do what we are doing

Therefore, if you are a happy ORCA user, please consider citing a few of the papers listed below in the main body of your paper

In addition to the list printed below, the program has created the file data/geom_opt/77831/77831.bibtex that contains the list in bibtex format
You can import this file easily into all common literature databanks and citation aid programs


List of essential papers. We consider these as the minimum necessary citations

  1. Neese,F.
     Software update: the ORCA program system, version 5.0
     WIRES Comput. Molec. Sci., 2022 12(1)e1606
     doi.org/10.1002/wcms.1606

List of papers to cite with high priority. The work reported in these papers was absolutely
necessary for this run to complete.
Our perspective: the developers of density functionals and basis sets usually get cited in chemistry papers
Good! But without the algorithms to do something with them, the functionals or basis sets would not do anything.
Hence, in our opinion, the algorithm design and method developments papers are equally worthy of getting cited

  1. Neese,F.
     An improvement of the resolution of the identity approximation for the formation of the Coulomb matrix
     J. Comp. Chem., 2003 24(14)1740-1747
     doi.org/10.1002/jcc.10318
  2. Neese,F.
     The SHARK Integral Generation and Digestion System
     J. Comp. Chem., 2022  1-16
     doi.org/10.1002/jcc.26942
  3. Grimme,S.; Antony,J.; Ehrlich,S.; Krieg,H.
     A consistent and accurate ab initio parametrization of density functional dispersion correction (DFT-D) for the 94 elements H-Pu
     J. Chem. Phys., 2010 132 154104-XXXX
     doi.org/10.1063/1.3382344
  4. Grimme,S.; Ehrlich,S.; Goerigk,L.
     Effect of the damping function in dispersion corrected density functional theory
     J. Comput. Chem., 2011 32(7)1456-1465
     doi.org/10.1002/jcc.21759

List of suggested additional citations. These are papers that are important in the 'surrounding' of 
of this run, or papers that preceded the highly important papers. If you like your results we are grateful for a citation.

  1. Neese,F.
     The ORCA program system
     WIRES Comput. Molec. Sci., 2012 2(1)73-78
     doi.org/10.1002/wcms.81
  2. Neese,F.
     Software update: the ORCA program system, version 4.0
     WIRES Comput. Molec. Sci., 2018 8(1)1-6
     doi.org/10.1002/wcms.1327
  3. Neese,F.; Wennmohs,F.; Becker,U.; Riplinger,C.
     The ORCA quantum chemistry program package
     J. Chem. Phys., 2020 152 Art. No. L224108
     doi.org/10.1063/5.0004608

List of optional additional citations

  1. Neese,F.
     Approximate second-order SCF convergence for spin unrestricted wavefunctions
     Chem. Phys. Lett., 2000 325(1-3)93-98
     doi.org/10.1016/s0009-2614(00)00662-x

Timings for individual modules:

Sum of individual times          ...      543.123 sec (=   9.052 min)
Startup calculation              ...       16.196 sec (=   0.270 min)   3.0 %
SCF iterations                   ...      371.741 sec (=   6.196 min)  68.4 %
Property calculations            ...        0.213 sec (=   0.004 min)   0.0 %
SCF Gradient evaluation          ...      154.691 sec (=   2.578 min)  28.5 %
Geometry relaxation              ...        0.282 sec (=   0.005 min)   0.1 %
                             ****ORCA TERMINATED NORMALLY****
TOTAL RUN TIME: 0 days 0 hours 9 minutes 4 seconds 848 msec
