
                                 *****************
                                 * O   R   C   A *
                                 *****************

                                            #,                                       
                                            ###                                      
                                            ####                                     
                                            #####                                    
                                            ######                                   
                                           ########,                                 
                                     ,,################,,,,,                         
                               ,,#################################,,                 
                          ,,##########################################,,             
                       ,#########################################, ''#####,          
                    ,#############################################,,   '####,        
                  ,##################################################,,,,####,       
                ,###########''''           ''''###############################       
              ,#####''   ,,,,##########,,,,          '''####'''          '####       
            ,##' ,,,,###########################,,,                        '##       
           ' ,,###''''                  '''############,,,                           
         ,,##''                                '''############,,,,        ,,,,,,###''
      ,#''                                            '''#######################'''  
     '                                                          ''''####''''         
             ,#######,   #######,   ,#######,      ##                                
            ,#'     '#,  ##    ##  ,#'     '#,    #''#        ,####,   ,####,        
            ##       ##  ##   ,#'  ##            #'  '#       #'       #'  '#        
            ##       ##  #######   ##           ,######,      #####,   #    #        
            '#,     ,#'  ##    ##  '#,     ,#' ,#      #,     #,   #   #,  ,#        
             '#######'   ##     ##  '#######'  #'      '#     '####' # '####'        



                #########################################################
                #                        -***-                          #
                #          Department of theory and spectroscopy        #
                #                                                       #
                #                      Frank Neese                      #
                #                                                       #
                #     Directorship, Architecture, Infrastructure        #
                #                    SHARK, DRIVERS                     #
                #        Core code/Algorithms in most modules           #
                #                                                       #
                #        Max Planck Institute fuer Kohlenforschung      #
                #                Kaiser Wilhelm Platz 1                 #
                #                 D-45470 Muelheim/Ruhr                 #
                #                      Germany                          #
                #                                                       #
                #                  All rights reserved                  #
                #                        -***-                          #
                #########################################################


                         Program Version 6.0.0  -   RELEASE   -


 With contributions from (in alphabetic order):
   Daniel Aravena         : Magnetic Suceptibility
   Michael Atanasov       : Ab Initio Ligand Field Theory (pilot matlab implementation)
   Alexander A. Auer      : GIAO ZORA, VPT2 properties, NMR spectrum
   Ute Becker             : All parallelization in ORCA, NUMFREQ, NUMCALC
   Giovanni Bistoni       : ED, misc. LED, open-shell LED, HFLD
   Martin Brehm           : Molecular dynamics
   Dmytro Bykov           : pre 5.0 version of the SCF Hessian
   Marcos Casanova-Páez   : Triplet and SCS-CIS(D). UHF-(DLPNO)-IP/EA/STEOM-CCSD. UHF-CVS-IP/STEOM-CCSD
   Vijay G. Chilkuri      : MRCI spin determinant printing, contributions to CSF-ICE
   Pauline Colinet        : FMM embedding
   Dipayan Datta          : RHF DLPNO-CCSD density
   Achintya Kumar Dutta   : EOM-CC, STEOM-CC
   Nicolas Foglia         : Exact transition moments, OPA infrastructure, MCD improvements
   Dmitry Ganyushin       : Spin-Orbit,Spin-Spin,Magnetic field MRCI
   Miquel Garcia          : C-PCM and meta-GGA Hessian, CCSD/C-PCM, Gaussian charge scheme
   Tiago L. C. Gouveia    : GS-ROHF, GS-ROCIS
   Yang Guo               : DLPNO-NEVPT2, F12-NEVPT2, CIM, IAO-localization
   Andreas Hansen         : Spin unrestricted coupled pair/coupled cluster methods
   Ingolf Harden          : AUTO-CI MPn and infrastructure 
   Benjamin Helmich-Paris : MC-RPA, TRAH-(SCF,CASSCF), AVAS, COSX integrals, SCF dyn. polar.
   Lee Huntington         : MR-EOM, pCC
   Robert Izsak           : Overlap fitted RIJCOSX, COSX-SCS-MP3, EOM
   Riya Kayal             : Wick's Theorem for AUTO-CI, AUTO-CI UHF-CCSDT
   Emily Kempfer          : AUTO-CI, RHF CISDT and CCSDT
   Christian Kollmar      : KDIIS, OOCD, Brueckner-CCSD(T), CCSD density, CASPT2, CASPT2-K, improved NEVPT2
   Axel Koslowski         : Symmetry handling
   Simone Kossmann        : Meta GGA functionals, TD-DFT gradient, OOMP2, (MP2 Hessian; deprecated post 5.0)
   Lucas Lang             : DCDCAS
   Marvin Lechner         : AUTO-CI (C++ implementation), FIC-MRCC
   Spencer Leger          : CASSCF response
   Dagmar Lenk            : GEPOL surface, SMD, ORCA-2-JSON
   Dimitrios Liakos       : Extrapolation schemes; Compound Job, initial MDCI parallelization
   Dimitrios Manganas     : Further ROCIS development; embedding schemes. LFT, Crystal Embedding
   Dimitrios Pantazis     : SARC Basis sets
   Anastasios Papadopoulos: AUTO-CI, single reference methods and gradients
   Taras Petrenko         : pre 6.0 DFT Hessian and TD-DFT gradient, (ASA, deprecated), ECA, 1-Electron XAS/XES, NRVS
   Peter Pinski           : DLPNO-MP2, DLPNO-MP2 Gradient
   Christoph Reimann      : Effective Core Potentials
   Marius Retegan         : Local ZFS, SOC
   Christoph Riplinger    : Optimizer, TS searches, QM/MM, DLPNO-CCSD(T), (RO)-DLPNO pert. Triples
   Michael Roemelt        : Original ROCIS implementation
   Masaaki Saitow         : Open-shell DLPNO-CCSD energy and density
   Barbara Sandhoefer     : DKH picture change effects
   Kantharuban Sivalingam : CASSCF convergence/infrastructure, NEVPT2 and variants, FIC-MRCI
   Bernardo de Souza      : ESD, SOC TD-DFT
   Georgi Stoychev        : AutoAux, RI-MP2 NMR, DLPNO-MP2 response, X2C
   Van Anh Tran           : RI-MP2 g-tensors
   Willem Van den Heuvel  : Paramagnetic NMR
   Zikuan Wang            : NOTCH, Electric field optimization 
   Frank Wennmohs         : Technical directorship and infrastructure
   Hang Xu                : AUTO-CI-Response properties 


 We gratefully acknowledge several colleagues who have allowed us to
 interface, adapt or use parts of their codes:
   Stefan Grimme, W. Hujo, H. Kruse, P. Pracht,  : VdW corrections, initial TS optimization,
                  C. Bannwarth, S. Ehlert,         DFT functionals, gCP, sTDA/sTD-DF
                  L. Wittmann, M. Mueller
   Ed Valeev, F. Pavosevic, A. Kumar             : LibInt (2-el integral package), F12 methods
   Garnet Chan, S. Sharma, J. Yang, R. Olivares  : DMRG
   Ulf Ekstrom                                   : XCFun DFT Library
   Mihaly Kallay                                 : mrcc  (arbitrary order and MRCC methods)
   Frank Weinhold                                : gennbo (NPA and NBO analysis)
   Simon Mueller                                 : openCOSMO-RS
   Christopher J. Cramer and Donald G. Truhlar   : smd solvation model
   Lars Goerigk                                  : TD-DFT with DH, B97 family of functionals
   V. Asgeirsson, H. Jonsson                     : NEB implementation
   FAccTs GmbH                                   : IRC, NEB, NEB-TS, DLPNO-Multilevel, CI-OPT
                                                   MM, QMMM, 2- and 3-layer-ONIOM, Crystal-QMMM,
                                                   LR-CPCM, SF, NACMEs, symmetry and pop. for TD-DFT,
                                                   nearIR, NL-DFT gradient (VV10), updates on ESD,
                                                   ML-optimized integration grids, MBIS, APM,
                                                   GOAT, DOCKER, SOLVATOR, interface openCOSMO-RS
   S Lehtola, MJT Oliveira, MAL Marques          : LibXC Library
   Liviu Ungur et al                             : ANISO software


 Your calculation uses the libint2 library for the computation of 2-el integrals
 For citations please refer to: http://libint.valeyev.net

 Your ORCA version has been built with support for libXC version: 6.2.2
 For citations please refer to: https://libxc.gitlab.io

 This ORCA versions uses:
   CBLAS   interface :  Fast vector & matrix operations
   LAPACKE interface :  Fast linear algebra routines
   Shared memory     :  Shared parallel matrices


Your calculation utilizes the atom-pairwise dispersion correction
with the Becke-Johnson damping scheme (D3BJ)


Warning: RI is on but no J-basis has been assigned. Assigning Def2/J (nothing to worry about!)
================================================================================

----- Orbital basis set information -----
Your calculation utilizes the basis: def2-SVP
   F. Weigend and R. Ahlrichs, Phys. Chem. Chem. Phys. 7, 3297 (2005).

----- AuxJ basis set information -----
Your calculation utilizes the auxiliary basis: def2/J
   F. Weigend, Phys. Chem. Chem. Phys. 8, 1057 (2006).

================================================================================
                                        WARNINGS
                       Please study these warnings very carefully!
================================================================================


WARNING: Geometry Optimization
  ===> : Switching off AutoStart
         For restart on a previous wavefunction, please use MOREAD

================================================================================
                                       INPUT FILE
================================================================================
NAME = data/geom_opt_P_BP86/11437688/11437688.inp
|  1> ! RI BP86 def2-SVP D3BJ TIGHTSCF Opt
|  2> %pal
|  3> nprocs 6
|  4> end
|  5> 
|  6> * xyz 0 1
|  7> C      5.934957    0.164368   -0.123062
|  8> C      4.980476   -0.744676    0.114453
|  9> C      3.561166   -0.573550   -0.222576
| 10> C      2.595104   -1.177100    0.588396
| 11> C      1.230431   -1.062461    0.290432
| 12> C      0.793658   -0.348330   -0.832589
| 13> C      1.771390    0.237873   -1.653742
| 14> C      3.135240    0.124588   -1.355738
| 15> P     -0.953950   -0.142425   -1.304907
| 16> C     -1.846228   -1.309279   -0.225769
| 17> C     -1.932869   -2.651584   -0.637734
| 18> C     -2.600322   -3.604780    0.136556
| 19> C     -3.196485   -3.232261    1.337164
| 20> C     -3.125019   -1.908656    1.761890
| 21> C     -2.456482   -0.955344    0.986661
| 22> C     -1.400575    1.497822   -0.646445
| 23> C     -2.617963    2.065285   -1.064796
| 24> C     -3.028316    3.319480   -0.604118
| 25> C     -2.226621    4.031520    0.282370
| 26> C     -1.016879    3.489591    0.706892
| 27> C     -0.607072    2.234106    0.245780
| 28> H      5.727411    1.122936   -0.586767
| 29> H      6.963040   -0.032903    0.164636
| 30> H      5.247310   -1.676379    0.608510
| 31> H      2.890554   -1.739408    1.471657
| 32> H      0.524090   -1.541803    0.963388
| 33> H      1.481519    0.794345   -2.543760
| 34> H      3.855110    0.581322   -2.030082
| 35> H     -1.474618   -2.971207   -1.572310
| 36> H     -2.653338   -4.636391   -0.201317
| 37> H     -3.717033   -3.971208    1.940365
| 38> H     -3.590157   -1.612195    2.698620
| 39> H     -2.420769    0.065659    1.357878
| 40> H     -3.265795    1.529623   -1.756884
| 41> H     -3.973780    3.737124   -0.940044
| 42> H     -2.542933    5.007248    0.641190
| 43> H     -0.386399    4.042234    1.398857
| 44> H      0.342147    1.846817    0.606946
| 45> **                         ****END OF INPUT****
================================================================================

                       *****************************
                       * Geometry Optimization Run *
                       *****************************

Geometry optimization settings:
Update method            Update   .... BFGS
Choice of coordinates    CoordSys .... (2022) Redundant Internals
Initial Hessian          InHess   .... Almloef's Model
Max. no of cycles        MaxIter  .... 114

Convergence Tolerances:
Energy Change            TolE     ....  5.0000e-06 Eh
Max. Gradient            TolMAXG  ....  3.0000e-04 Eh/bohr
RMS Gradient             TolRMSG  ....  1.0000e-04 Eh/bohr
Max. Displacement        TolMAXD  ....  4.0000e-03 bohr
RMS Displacement         TolRMSD  ....  2.0000e-03 bohr
Strict Convergence                .... False

------------------------------------------------------------------------------
                        ORCA OPTIMIZATION COORDINATE SETUP
------------------------------------------------------------------------------

The optimization will be done in redundant internal coordinates (2022)
Making redundant internal coordinates   ...  (2022 redundants) done
Evaluating the initial hessian          ...  (Almloef) done
Evaluating the coordinates              ...  done
Calculating the B-matrix                .... done
Calculating the G-matrix                .... done
Diagonalizing the G-matrix              .... done
Small eigenvalue found = 3.368e-03
Small eigenvalue found = 5.010e-03
Small eigenvalue found = 7.964e-03
Small eigenvalue found = 2.101e-02
Small eigenvalue found = 2.495e-02
The first mode is                       ....   87
The number of degrees of freedom        ....  108

    -----------------------------------------------------------------
                    Redundant Internal Coordinates


    -----------------------------------------------------------------
         Definition                    Initial Value    Approx d2E/dq
    -----------------------------------------------------------------
      1. B(C   1,C   0)                  1.3393         0.752623   
      2. B(C   2,C   1)                  1.4688         0.467790   
      3. B(C   3,C   2)                  1.3983         0.606048   
      4. B(C   4,C   3)                  1.4015         0.598908   
      5. B(C   5,C   4)                  1.4007         0.600738   
      6. B(C   6,C   5)                  1.4050         0.591406   
      7. B(C   7,C   2)                  1.3974         0.607929   
      8. B(C   7,C   6)                  1.4006         0.600898   
      9. B(P   8,C   5)                  1.8220         0.429570   
     10. B(C   9,P   8)                  1.8227         0.428432   
     11. B(C  10,C   9)                  1.4068         0.587464   
     12. B(C  11,C  10)                  1.3977         0.607342   
     13. B(C  12,C  11)                  1.3913         0.621882   
     14. B(C  13,C  12)                  1.3919         0.620414   
     15. B(C  14,C   9)                  1.4027         0.596239   
     16. B(C  14,C  13)                  1.3988         0.604854   
     17. B(C  15,P   8)                  1.8230         0.427910   
     18. B(C  16,C  15)                  1.4068         0.587418   
     19. B(C  17,C  16)                  1.3977         0.607328   
     20. B(C  18,C  17)                  1.3913         0.621934   
     21. B(C  19,C  18)                  1.3919         0.620454   
     22. B(C  20,C  19)                  1.3989         0.604788   
     23. B(C  20,C  15)                  1.4028         0.596114   
     24. B(H  21,C   0)                  1.0849         0.366946   
     25. B(H  22,C   0)                  1.0857         0.365898   
     26. B(H  23,C   1)                  1.0878         0.362989   
     27. B(H  24,C   3)                  1.0879         0.362825   
     28. B(H  25,C   4)                  1.0870         0.364098   
     29. B(H  26,C   6)                  1.0890         0.361488   
     30. B(H  27,C   7)                  1.0870         0.364097   
     31. B(H  28,C  10)                  1.0888         0.361630   
     32. B(H  29,C  11)                  1.0868         0.364324   
     33. B(H  30,C  12)                  1.0867         0.364524   
     34. B(H  31,C  13)                  1.0871         0.364007   
     35. B(H  32,C  14)                  1.0870         0.364118   
     36. B(H  33,C  16)                  1.0889         0.361617   
     37. B(H  34,C  17)                  1.0868         0.364333   
     38. B(H  35,C  18)                  1.0867         0.364533   
     39. B(H  36,C  19)                  1.0871         0.363989   
     40. B(H  37,C  20)                  1.0869         0.364164   
     41. A(H  21,C   0,H  22)          117.0640         0.292436   
     42. A(C   1,C   0,H  21)          122.6272         0.365923   
     43. A(C   1,C   0,H  22)          120.3008         0.365744   
     44. A(C   0,C   1,H  23)          119.1471         0.365245   
     45. A(C   2,C   1,H  23)          116.1698         0.337056   
     46. A(C   0,C   1,C   2)          124.6723         0.427272   
     47. A(C   1,C   2,C   3)          118.9631         0.411088   
     48. A(C   1,C   2,C   7)          122.6016         0.411314   
     49. A(C   3,C   2,C   7)          118.3821         0.430769   
     50. A(C   2,C   3,C   4)          120.9383         0.429614   
     51. A(C   2,C   3,H  24)          120.4194         0.352001   
     52. A(C   4,C   3,H  24)          118.6400         0.351297   
     53. A(C   3,C   4,H  25)          117.7126         0.351505   
     54. A(C   5,C   4,H  25)          121.2365         0.351686   
     55. A(C   3,C   4,C   5)          121.0501         0.428936   
     56. A(C   4,C   5,C   6)          117.6667         0.427968   
     57. A(C   4,C   5,P   8)          124.3718         0.431094   
     58. A(C   6,C   5,P   8)          117.9593         0.429884   
     59. A(C   7,C   6,H  26)          118.3225         0.351274   
     60. A(C   5,C   6,H  26)          120.3755         0.350331   
     61. A(C   5,C   6,C   7)          121.3019         0.427988   
     62. A(C   2,C   7,H  27)          120.7381         0.352394   
     63. A(C   2,C   7,C   6)          120.6453         0.430109   
     64. A(C   6,C   7,H  27)          118.6131         0.351702   
     65. A(C   5,P   8,C   9)          104.1065         0.432822   
     66. A(C   9,P   8,C  15)          104.0173         0.432521   
     67. A(C   5,P   8,C  15)          104.0659         0.432727   
     68. A(P   8,C   9,C  10)          117.8794         0.429165   
     69. A(C  10,C   9,C  14)          117.8447         0.426880   
     70. A(P   8,C   9,C  14)          124.2755         0.430308   
     71. A(C   9,C  10,C  11)          121.1915         0.428294   
     72. A(C  11,C  10,H  28)          118.4420         0.351932   
     73. A(C   9,C  10,H  28)          120.3662         0.349959   
     74. A(C  10,C  11,C  12)          120.0050         0.432694   
     75. A(C  12,C  11,H  29)          120.1009         0.353788   
     76. A(C  10,C  11,H  29)          119.8941         0.352374   
     77. A(C  11,C  12,H  30)          120.1461         0.353821   
     78. A(C  13,C  12,H  30)          120.1225         0.353679   
     79. A(C  11,C  12,C  13)          119.7313         0.434355   
     80. A(C  14,C  13,H  31)          119.7486         0.352077   
     81. A(C  12,C  13,H  31)          120.0201         0.353594   
     82. A(C  12,C  13,C  14)          120.2313         0.432192   
     83. A(C  13,C  14,H  32)          117.8124         0.352096   
     84. A(C   9,C  14,H  32)          121.1908         0.351243   
     85. A(C   9,C  14,C  13)          120.9958         0.429118   
     86. A(C  16,C  15,C  20)          117.8350         0.426858   
     87. A(P   8,C  15,C  20)          124.2907         0.430198   
     88. A(P   8,C  15,C  16)          117.8737         0.429065   
     89. A(C  17,C  16,H  33)          118.4409         0.351928   
     90. A(C  15,C  16,H  33)          120.3606         0.349952   
     91. A(C  15,C  16,C  17)          121.1982         0.428286   
     92. A(C  18,C  17,H  34)          120.1038         0.353795   
     93. A(C  16,C  17,H  34)          119.8909         0.352374   
     94. A(C  16,C  17,C  18)          120.0053         0.432699   
     95. A(C  19,C  18,H  35)          120.1242         0.353685   
     96. A(C  17,C  18,H  35)          120.1466         0.353827   
     97. A(C  17,C  18,C  19)          119.7292         0.434367   
     98. A(C  20,C  19,H  36)          119.7480         0.352068   
     99. A(C  18,C  19,H  36)          120.0188         0.353595   
    100. A(C  18,C  19,C  20)          120.2333         0.432188   
    101. A(C  19,C  20,H  37)          117.7813         0.352097   
    102. A(C  15,C  20,H  37)          121.2188         0.351238   
    103. A(C  15,C  20,C  19)          120.9987         0.429094   
    104. D(H  23,C   1,C   0,H  22)      0.6783         0.040423   
    105. D(C   2,C   1,C   0,H  21)      0.4896         0.040423   
    106. D(C   2,C   1,C   0,H  22)    179.4321         0.040423   
    107. D(H  23,C   1,C   0,H  21)   -178.2641         0.040423   
    108. D(C   7,C   2,C   1,C   0)     34.3250         0.014902   
    109. D(C   3,C   2,C   1,H  23)     30.4132         0.014902   
    110. D(C   7,C   2,C   1,H  23)   -146.8877         0.014902   
    111. D(C   3,C   2,C   1,C   0)   -148.3741         0.014902   
    112. D(H  24,C   3,C   2,C   7)    179.2252         0.025348   
    113. D(H  24,C   3,C   2,C   1)      1.8096         0.025348   
    114. D(C   4,C   3,C   2,C   1)   -178.7528         0.025348   
    115. D(C   4,C   3,C   2,C   7)     -1.3372         0.025348   
    116. D(C   5,C   4,C   3,H  24)    179.8879         0.024722   
    117. D(C   5,C   4,C   3,C   2)      0.4404         0.024722   
    118. D(H  25,C   4,C   3,C   2)   -179.2316         0.024722   
    119. D(H  25,C   4,C   3,H  24)      0.2159         0.024722   
    120. D(P   8,C   5,C   4,H  25)     -0.3625         0.024882   
    121. D(P   8,C   5,C   4,C   3)    179.9771         0.024882   
    122. D(C   6,C   5,C   4,H  25)   -179.8135         0.024882   
    123. D(C   6,C   5,C   4,C   3)      0.5261         0.024882   
    124. D(H  26,C   6,C   5,P   8)     -0.1124         0.024075   
    125. D(C   7,C   6,C   5,P   8)    179.9283         0.024075   
    126. D(H  26,C   6,C   5,C   4)    179.3746         0.024075   
    127. D(C   7,C   6,C   5,C   4)     -0.5847         0.024075   
    128. D(C   2,C   7,C   6,H  26)    179.7167         0.024896   
    129. D(C   2,C   7,C   6,C   5)     -0.3232         0.024896   
    130. D(H  27,C   7,C   2,C   3)   -178.0315         0.025515   
    131. D(H  27,C   7,C   2,C   1)     -0.7157         0.025515   
    132. D(H  27,C   7,C   6,C   5)    178.9991         0.024896   
    133. D(C   6,C   7,C   2,C   3)      1.2763         0.025515   
    134. D(C   6,C   7,C   2,C   1)    178.5921         0.025515   
    135. D(H  27,C   7,C   6,H  26)     -0.9610         0.024896   
    136. D(C  15,P   8,C   5,C   6)    -82.7751         0.003798   
    137. D(C  15,P   8,C   5,C   4)     97.7754         0.003798   
    138. D(C   9,P   8,C   5,C   6)    168.5360         0.003798   
    139. D(C   9,P   8,C   5,C   4)    -10.9135         0.003798   
    140. D(C  14,C   9,P   8,C  15)    -12.6739         0.003785   
    141. D(C  14,C   9,P   8,C   5)     96.0509         0.003785   
    142. D(C  10,C   9,P   8,C  15)    167.0872         0.003785   
    143. D(C  10,C   9,P   8,C   5)    -84.1880         0.003785   
    144. D(H  28,C  10,C   9,C  14)    179.9538         0.023740   
    145. D(H  28,C  10,C   9,P   8)      0.1771         0.023740   
    146. D(C  11,C  10,C   9,C  14)     -0.2428         0.023740   
    147. D(C  11,C  10,C   9,P   8)    179.9804         0.023740   
    148. D(H  29,C  11,C  10,H  28)     -0.1156         0.025463   
    149. D(H  29,C  11,C  10,C   9)   -179.9226         0.025463   
    150. D(C  12,C  11,C  10,H  28)    179.9381         0.025463   
    151. D(C  12,C  11,C  10,C   9)      0.1310         0.025463   
    152. D(H  30,C  12,C  11,H  29)     -0.0208         0.026771   
    153. D(H  30,C  12,C  11,C  10)    179.9254         0.026771   
    154. D(C  13,C  12,C  11,H  29)   -179.9369         0.026771   
    155. D(C  13,C  12,C  11,C  10)      0.0093         0.026771   
    156. D(H  31,C  13,C  12,H  30)      0.0123         0.026637   
    157. D(H  31,C  13,C  12,C  11)    179.9284         0.026637   
    158. D(C  14,C  13,C  12,H  30)   -179.9465         0.026637   
    159. D(C  14,C  13,C  12,C  11)     -0.0304         0.026637   
    160. D(C   9,C  14,C  13,H  31)    179.9526         0.025243   
    161. D(C   9,C  14,C  13,C  12)     -0.0885         0.025243   
    162. D(H  32,C  14,C   9,C  10)    179.8431         0.024491   
    163. D(H  32,C  14,C   9,P   8)     -0.3957         0.024491   
    164. D(C  13,C  14,C   9,C  10)      0.2211         0.024491   
    165. D(H  32,C  14,C  13,C  12)   -179.7229         0.025243   
    166. D(C  13,C  14,C   9,P   8)    179.9823         0.024491   
    167. D(H  32,C  14,C  13,H  31)      0.3182         0.025243   
    168. D(C  20,C  15,P   8,C   9)     97.1587         0.003779   
    169. D(C  20,C  15,P   8,C   5)    -11.5962         0.003779   
    170. D(C  16,C  15,P   8,C   9)    -83.1312         0.003779   
    171. D(C  16,C  15,P   8,C   5)    168.1139         0.003779   
    172. D(H  33,C  16,C  15,C  20)    179.9851         0.023736   
    173. D(H  33,C  16,C  15,P   8)      0.2559         0.023736   
    174. D(C  17,C  16,C  15,C  20)     -0.2357         0.023736   
    175. D(C  17,C  16,C  15,P   8)   -179.9649         0.023736   
    176. D(H  34,C  17,C  16,H  33)     -0.1214         0.025461   
    177. D(H  34,C  17,C  16,C  15)   -179.9047         0.025461   
    178. D(C  18,C  17,C  16,H  33)    179.9159         0.025461   
    179. D(C  18,C  17,C  16,C  15)      0.1326         0.025461   
    180. D(H  35,C  18,C  17,H  34)     -0.0258         0.026776   
    181. D(H  35,C  18,C  17,C  16)    179.9368         0.026776   
    182. D(C  19,C  18,C  17,H  34)   -179.9618         0.026776   
    183. D(C  19,C  18,C  17,C  16)      0.0008         0.026776   
    184. D(H  36,C  19,C  18,H  35)      0.0144         0.026641   
    185. D(H  36,C  19,C  18,C  17)    179.9504         0.026641   
    186. D(C  20,C  19,C  18,H  35)   -179.9597         0.026641   
    187. D(C  20,C  19,C  18,C  17)     -0.0237         0.026641   
    188. D(H  37,C  20,C  19,H  36)      0.3318         0.025237   
    189. D(H  37,C  20,C  19,C  18)   -179.6942         0.025237   
    190. D(C  15,C  20,C  19,H  36)    179.9395         0.025237   
    191. D(C  15,C  20,C  19,C  18)     -0.0864         0.025237   
    192. D(H  37,C  20,C  15,C  16)    179.8064         0.024480   
    193. D(H  37,C  20,C  15,P   8)     -0.4833         0.024480   
    194. D(C  19,C  20,C  15,C  16)      0.2122         0.024480   
    195. D(C  19,C  20,C  15,P   8)    179.9224         0.024480   
    -----------------------------------------------------------------

Number of atoms                         .... 38
Number of degrees of freedom            .... 195


         *************************************************************
         *                GEOMETRY OPTIMIZATION CYCLE   1            *
         *************************************************************
---------------------------------
CARTESIAN COORDINATES (ANGSTROEM)
---------------------------------
  C      5.934957    0.164368   -0.123062
  C      4.980476   -0.744676    0.114453
  C      3.561166   -0.573550   -0.222576
  C      2.595104   -1.177100    0.588396
  C      1.230431   -1.062461    0.290432
  C      0.793658   -0.348330   -0.832589
  C      1.771390    0.237873   -1.653742
  C      3.135240    0.124588   -1.355738
  P     -0.953950   -0.142425   -1.304907
  C     -1.846228   -1.309279   -0.225769
  C     -1.932869   -2.651584   -0.637734
  C     -2.600322   -3.604780    0.136556
  C     -3.196485   -3.232261    1.337164
  C     -3.125019   -1.908656    1.761890
  C     -2.456482   -0.955344    0.986661
  C     -1.400575    1.497822   -0.646445
  C     -2.617963    2.065285   -1.064796
  C     -3.028316    3.319480   -0.604118
  C     -2.226621    4.031520    0.282370
  C     -1.016879    3.489591    0.706892
  C     -0.607072    2.234106    0.245780
  H      5.727411    1.122936   -0.586767
  H      6.963040   -0.032903    0.164636
  H      5.247310   -1.676379    0.608510
  H      2.890554   -1.739408    1.471657
  H      0.524090   -1.541803    0.963388
  H      1.481519    0.794345   -2.543760
  H      3.855110    0.581322   -2.030082
  H     -1.474618   -2.971207   -1.572310
  H     -2.653338   -4.636391   -0.201317
  H     -3.717033   -3.971208    1.940365
  H     -3.590157   -1.612195    2.698620
  H     -2.420769    0.065659    1.357878
  H     -3.265795    1.529623   -1.756884
  H     -3.973780    3.737124   -0.940044
  H     -2.542933    5.007248    0.641190
  H     -0.386399    4.042234    1.398857
  H      0.342147    1.846817    0.606946

----------------------------
CARTESIAN COORDINATES (A.U.)
----------------------------
  NO LB      ZA    FRAG     MASS         X           Y           Z
   0 C     6.0000    0    12.011   11.215443    0.310611   -0.232553
   1 C     6.0000    0    12.011    9.411736   -1.407234    0.216285
   2 C     6.0000    0    12.011    6.729628   -1.083852   -0.420608
   3 C     6.0000    0    12.011    4.904036   -2.224397    1.111907
   4 C     6.0000    0    12.011    2.325178   -2.007760    0.548837
   5 C     6.0000    0    12.011    1.499796   -0.658248   -1.573365
   6 C     6.0000    0    12.011    3.347442    0.449515   -3.125119
   7 C     6.0000    0    12.011    5.924745    0.235437   -2.561974
   8 P    15.0000    0    30.974   -1.802704   -0.269144   -2.465917
   9 C     6.0000    0    12.011   -3.488865   -2.474179   -0.426642
  10 C     6.0000    0    12.011   -3.652593   -5.010768   -1.205143
  11 C     6.0000    0    12.011   -4.913896   -6.812047    0.258053
  12 C     6.0000    0    12.011   -6.040481   -6.108088    2.526874
  13 C     6.0000    0    12.011   -5.905430   -3.606837    3.329490
  14 C     6.0000    0    12.011   -4.642078   -1.805339    1.864519
  15 C     6.0000    0    12.011   -2.646703    2.830473   -1.221604
  16 C     6.0000    0    12.011   -4.947233    3.902823   -2.012173
  17 C     6.0000    0    12.011   -5.722688    6.272908   -1.141618
  18 C     6.0000    0    12.011   -4.207704    7.618469    0.533602
  19 C     6.0000    0    12.011   -1.921623    6.594371    1.335832
  20 C     6.0000    0    12.011   -1.147200    4.221848    0.464457
  21 H     1.0000    0     1.008   10.823238    2.122042   -1.108829
  22 H     1.0000    0     1.008   13.158239   -0.062178    0.311117
  23 H     1.0000    0     1.008    9.915979   -3.167897    1.149917
  24 H     1.0000    0     1.008    5.462355   -3.287005    2.781029
  25 H     1.0000    0     1.008    0.990387   -2.913585    1.820539
  26 H     1.0000    0     1.008    2.799665    1.501095   -4.807010
  27 H     1.0000    0     1.008    7.285102    1.098539   -3.836299
  28 H     1.0000    0     1.008   -2.786624   -5.614768   -2.971235
  29 H     1.0000    0     1.008   -5.014082   -8.761509   -0.380434
  30 H     1.0000    0     1.008   -7.024174   -7.504496    3.666758
  31 H     1.0000    0     1.008   -6.784414   -3.046607    5.099653
  32 H     1.0000    0     1.008   -4.574590    0.124078    2.566018
  33 H     1.0000    0     1.008   -6.171458    2.890569   -3.320030
  34 H     1.0000    0     1.008   -7.509356    7.062141   -1.776426
  35 H     1.0000    0     1.008   -4.805447    9.462327    1.211673
  36 H     1.0000    0     1.008   -0.730188    7.638715    2.643457
  37 H     1.0000    0     1.008    0.646564    3.489978    1.146962

--------------------------------
INTERNAL COORDINATES (ANGSTROEM)
--------------------------------
 C      0   0   0     0.000000000000     0.00000000     0.00000000
 C      1   0   0     1.339331306482     0.00000000     0.00000000
 C      2   1   0     1.468779605937   124.67227269     0.00000000
 C      3   2   1     1.398293236459   118.96309393   211.62590982
 C      4   3   2     1.401519547686   120.93827036   181.24724684
 C      5   4   3     1.400689082249   121.05012470     0.44043175
 C      6   5   4     1.404950558006   117.66674973     0.52610648
 C      3   2   1     1.397449728171   122.60157104    34.32501101
 P      6   5   4     1.821981032781   124.37176172   179.97708192
 C      9   6   5     1.822703242342   104.10651466   349.08649143
 C     10   9   6     1.406770961149   117.87936341   275.81199993
 C     11  10   9     1.397712819475   121.19153307   179.98042343
 C     12  11  10     1.391272905506   120.00496541     0.13102721
 C     13  12  11     1.391915859618   119.73131049     0.00000000
 C     14  13  12     1.398830044056   120.23130958   359.96962950
 C      9   6   5     1.823034919325   104.06587596    97.77540066
 C     16   9   6     1.406792578213   117.87369758   168.11394214
 C     17  16   9     1.397719178633   121.19815922   180.03511950
 C     18  17  16     1.391250088506   120.00531150     0.13256256
 C     19  18  17     1.391898586855   119.72920668     0.00000000
 C     20  19  18     1.398859763886   120.23326240   359.97634833
 H      1   2   3     1.084873393427   122.62724944     0.48962438
 H      1   2   3     1.085652173366   120.30080902   179.43208304
 H      2   1   3     1.087824978116   119.14712112   181.24624055
 H      4   3   2     1.087948061024   120.41937773     1.80957667
 H      5   4   3     1.086994084244   117.71257278   180.76841830
 H      7   6   5     1.088952856532   120.37554416   179.37455224
 H      8   3   2     1.086995213417   120.73806227   359.28434019
 H     11  10   9     1.088845783803   120.36619006     0.17706199
 H     12  11  10     1.086825706222   119.89406558   180.07736104
 H     13  12  11     1.086675818961   120.14610473   179.92542861
 H     14  13  12     1.087062820846   120.02008490   179.92841666
 H     15  14  13     1.086979579140   117.81239473   180.27708504
 H     17  16   9     1.088855306371   120.36058681     0.25588893
 H     18  17  16     1.086818735350   119.89089912   180.09528648
 H     19  18  17     1.086669316641   120.14657058   179.93681796
 H     20  19  18     1.087076297724   120.01877059   179.95035177
 H     21  20  19     1.086945425970   117.78128415   180.30583496

---------------------------
INTERNAL COORDINATES (A.U.)
---------------------------
 C      0   0   0     0.000000000000     0.00000000     0.00000000
 C      1   0   0     2.530969371837     0.00000000     0.00000000
 C      2   1   0     2.775591206310   124.67227269     0.00000000
 C      3   2   1     2.642391271823   118.96309393   211.62590982
 C      4   3   2     2.648488116464   120.93827036   181.24724684
 C      5   4   3     2.646918764224   121.05012470     0.44043175
 C      6   5   4     2.654971786332   117.66674973     0.52610648
 C      3   2   1     2.640797272165   122.60157104    34.32501101
 P      6   5   4     3.443045173155   124.37176172   179.97708192
 C      9   6   5     3.444409951437   104.10651466   349.08649143
 C     10   9   6     2.658411849724   117.87936341   275.81199993
 C     11  10   9     2.641294442679   121.19153307   179.98042343
 C     12  11  10     2.629124768950   120.00496541     0.13102721
 C     13  12  11     2.630339776140   119.73131049     0.00000000
 C     14  13  12     2.643405691167   120.23130958   359.96962950
 C      9   6   5     3.445036730099   104.06587596    97.77540066
 C     16   9   6     2.658452700055   117.87369758   168.11394214
 C     17  16   9     2.641306459745   121.19815922   180.03511950
 C     18  17  16     2.629081651071   120.00531150     0.13256256
 C     19  18  17     2.630307135348   119.72920668     0.00000000
 C     20  19  18     2.643461853505   120.23326240   359.97634833
 H      1   2   3     2.050113603554   122.62724944     0.48962438
 H      1   2   3     2.051585284358   120.30080902   179.43208304
 H      2   1   3     2.055691290279   119.14712112   181.24624055
 H      4   3   2     2.055923883265   120.41937773     1.80957667
 H      5   4   3     2.054121128413   117.71257278   180.76841830
 H      7   6   5     2.057822671597   120.37554416   179.37455224
 H      8   3   2     2.054123262242   120.73806227   359.28434019
 H     11  10   9     2.057620333463   120.36619006     0.17706199
 H     12  11  10     2.053802940066   119.89406558   180.07736104
 H     13  12  11     2.053519694190   120.14610473   179.92542861
 H     14  13  12     2.054251021766   120.02008490   179.92841666
 H     15  14  13     2.054093717739   117.81239473   180.27708504
 H     17  16   9     2.057638328508   120.36058681     0.25588893
 H     18  17  16     2.053789767026   119.89089912   180.09528648
 H     19  18  17     2.053507406586   120.14657058   179.93681796
 H     20  19  18     2.054276489376   120.01877059   179.95035177
 H     21  20  19     2.054029177602   117.78128415   180.30583496

---------------------
BASIS SET INFORMATION
---------------------
There are 3 groups of distinct atoms

 Group   1 Type C   : 7s4p1d contracted to 3s2p1d pattern {511/31/1}
 Group   2 Type P   : 10s7p1d contracted to 4s3p1d pattern {5311/511/1}
 Group   3 Type H   : 4s1p contracted to 2s1p pattern {31/1}

Atom   0C    basis set group =>   1
Atom   1C    basis set group =>   1
Atom   2C    basis set group =>   1
Atom   3C    basis set group =>   1
Atom   4C    basis set group =>   1
Atom   5C    basis set group =>   1
Atom   6C    basis set group =>   1
Atom   7C    basis set group =>   1
Atom   8P    basis set group =>   2
Atom   9C    basis set group =>   1
Atom  10C    basis set group =>   1
Atom  11C    basis set group =>   1
Atom  12C    basis set group =>   1
Atom  13C    basis set group =>   1
Atom  14C    basis set group =>   1
Atom  15C    basis set group =>   1
Atom  16C    basis set group =>   1
Atom  17C    basis set group =>   1
Atom  18C    basis set group =>   1
Atom  19C    basis set group =>   1
Atom  20C    basis set group =>   1
Atom  21H    basis set group =>   3
Atom  22H    basis set group =>   3
Atom  23H    basis set group =>   3
Atom  24H    basis set group =>   3
Atom  25H    basis set group =>   3
Atom  26H    basis set group =>   3
Atom  27H    basis set group =>   3
Atom  28H    basis set group =>   3
Atom  29H    basis set group =>   3
Atom  30H    basis set group =>   3
Atom  31H    basis set group =>   3
Atom  32H    basis set group =>   3
Atom  33H    basis set group =>   3
Atom  34H    basis set group =>   3
Atom  35H    basis set group =>   3
Atom  36H    basis set group =>   3
Atom  37H    basis set group =>   3
---------------------------------
AUXILIARY/J BASIS SET INFORMATION
---------------------------------
There are 3 groups of distinct atoms

 Group   1 Type C   : 12s5p4d2f1g contracted to 6s4p3d1f1g pattern {711111/2111/211/2/1}
 Group   2 Type P   : 14s5p5d2f1g contracted to 8s4p3d1f1g pattern {71111111/2111/311/2/1}
 Group   3 Type H   : 5s2p1d contracted to 3s1p1d pattern {311/2/1}

Atom   0C    basis set group =>   1
Atom   1C    basis set group =>   1
Atom   2C    basis set group =>   1
Atom   3C    basis set group =>   1
Atom   4C    basis set group =>   1
Atom   5C    basis set group =>   1
Atom   6C    basis set group =>   1
Atom   7C    basis set group =>   1
Atom   8P    basis set group =>   2
Atom   9C    basis set group =>   1
Atom  10C    basis set group =>   1
Atom  11C    basis set group =>   1
Atom  12C    basis set group =>   1
Atom  13C    basis set group =>   1
Atom  14C    basis set group =>   1
Atom  15C    basis set group =>   1
Atom  16C    basis set group =>   1
Atom  17C    basis set group =>   1
Atom  18C    basis set group =>   1
Atom  19C    basis set group =>   1
Atom  20C    basis set group =>   1
Atom  21H    basis set group =>   3
Atom  22H    basis set group =>   3
Atom  23H    basis set group =>   3
Atom  24H    basis set group =>   3
Atom  25H    basis set group =>   3
Atom  26H    basis set group =>   3
Atom  27H    basis set group =>   3
Atom  28H    basis set group =>   3
Atom  29H    basis set group =>   3
Atom  30H    basis set group =>   3
Atom  31H    basis set group =>   3
Atom  32H    basis set group =>   3
Atom  33H    basis set group =>   3
Atom  34H    basis set group =>   3
Atom  35H    basis set group =>   3
Atom  36H    basis set group =>   3
Atom  37H    basis set group =>   3


           ************************************************************
           *        Program running with 6 parallel MPI-processes     *
           *              working on a common directory               *
           ************************************************************
------------------------------------------------------------------------------
                             ORCA STARTUP CALCULATIONS
                           -- RI-GTO INTEGRALS CHOSEN --
------------------------------------------------------------------------------
------------------------------------------------------------------------------
                   ___                                                        
                  /   \      - P O W E R E D   B Y -                         
                 /     \                                                     
                 |  |  |   _    _      __       _____    __    __             
                 |  |  |  | |  | |    /  \     |  _  \  |  |  /  |          
                  \  \/   | |  | |   /    \    | | | |  |  | /  /          
                 / \  \   | |__| |  /  /\  \   | |_| |  |  |/  /          
                |  |  |   |  __  | /  /__\  \  |    /   |      \           
                |  |  |   | |  | | |   __   |  |    \   |  |\   \          
                \     /   | |  | | |  |  |  |  | |\  \  |  | \   \       
                 \___/    |_|  |_| |__|  |__|  |_| \__\ |__|  \__/        
                                                                              
                      - O R C A' S   B I G   F R I E N D -                    
                                      &                                       
                       - I N T E G R A L  F E E D E R -                       
                                                                              
 v1 FN, 2020, v2 2021, v3 2022-2024                                           
------------------------------------------------------------------------------


----------------------
SHARK INTEGRAL PACKAGE
----------------------

Number of atoms                             ...     38
Number of basis functions                   ...    383
Number of shells                            ...    179
Maximum angular momentum                    ...      2
Integral batch strategy                     ... SHARK/LIBINT Hybrid
RI-J (if used) integral strategy            ... SPLIT-RIJ (Revised 2003 algorithm where possible)
Printlevel                                  ...      1
Contraction scheme used                     ... SEGMENTED contraction
Prescreening option                         ... SCHWARTZ
   Thresh                                   ... 2.500e-11
   Tcut                                     ... 2.500e-12
   Tpresel                                  ... 2.500e-12 
Coulomb Range Separation                    ... NOT USED
Exchange Range Separation                   ... NOT USED
Multipole approximations                    ... NOT USED
Finite Nucleus Model                        ... NOT USED
CABS basis                                  ... NOT available
Auxiliary Coulomb fitting basis             ... AVAILABLE
   # of basis functions in Aux-J            ...   1218
   # of shells in Aux-J                     ...    402
   Maximum angular momentum in Aux-J        ...      4
Auxiliary J/K fitting basis                 ... NOT available
Auxiliary Correlation fitting basis         ... NOT available
Auxiliary 'external' fitting basis          ... NOT available

Checking pre-screening integrals            ... done (  0.0 sec) Dimension = 179
Check shell pair data                       ... done (  0.0 sec)
Shell pair information
Shell pair cut-off parameter TPreSel        ...   2.5e-12
Total number of shell pairs                 ...     16110
Shell pairs after pre-screening             ...     11820
Total number of primitive shell pairs       ...     59330
Primitive shell pairs kept                  ...     27765
          la=0 lb=0:   3651 shell pairs
          la=1 lb=0:   4418 shell pairs
          la=1 lb=1:   1374 shell pairs
          la=2 lb=0:   1390 shell pairs
          la=2 lb=1:    856 shell pairs
          la=2 lb=2:    131 shell pairs

Calculating one electron integrals          ... done (  0.0 sec)
Calculating RI/J V-Matrix + Cholesky decomp.... done (  0.1 sec)
Calculating Nuclear repulsion               ... done (  0.0 sec) ENN=   1610.084415286479 Eh

Diagonalization of the overlap matrix:
Smallest eigenvalue                        ... 2.611e-04
Time for diagonalization                   ...    0.021 sec
Threshold for overlap eigenvalues          ... 1.000e-07
Number of eigenvalues below threshold      ... 0
Time for construction of square roots      ...    0.011 sec
Total time needed                          ...    0.034 sec

-------------------
DFT GRID GENERATION
-------------------

General Integration Accuracy     IntAcc      ... 4.388
Radial Grid Type                 RadialGrid  ... OptM3 with GC (2021)
Angular Grid (max. ang.)         AngularGrid ... 4 (Lebedev-302)
Angular grid pruning method      GridPruning ... 4 (adaptive)
Weight generation scheme         WeightScheme... mBecke (2022)
Basis function cutoff            BFCut       ... 1.0000e-11
Integration weight cutoff        WCut        ... 1.0000e-14
Partially contracted basis set               ... off
Rotationally invariant grid construction     ... off
Angular grids for H and He will be reduced by one unit

Total number of grid points                  ...   181053
Total number of batches                      ...     2849
Average number of points per batch           ...       63
Average number of grid points per atom       ...     4765
Initializing property integral containers    ... done (  0.0 sec)

SHARK setup successfully completed in   1.4 seconds

Maximum memory used throughout the entire STARTUP-calculation: 47.6 MB


           ************************************************************
           *        Program running with 6 parallel MPI-processes     *
           *              working on a common directory               *
           ************************************************************
-------------------------------------------------------------------------------
                                 ORCA GUESS
                   Start orbitals & Density for SCF / CASSCF
-------------------------------------------------------------------------------

------------
SCF SETTINGS
------------
Hamiltonian:
 Density Functional     Method          .... DFT(GTOs)
 Exchange Functional    Exchange        .... B88
   X-Alpha parameter    XAlpha          ....  0.666667
   Becke's b parameter  XBeta           ....  0.004200
 Correlation Functional Correlation     .... P86
 LDA part of GGA corr.  LDAOpt          .... PW91-LDA
 Gradients option       PostSCFGGA      .... off
   NL short-range parameter             ....  4.400000
 RI-approximation to the Coulomb term is turned on
   Number of AuxJ basis functions       .... 1218


General Settings:
 Integral files         IntName         .... data/geom_opt_P_BP86/11437688/11437688
 Hartree-Fock type      HFTyp           .... RHF
 Total Charge           Charge          ....    0
 Multiplicity           Mult            ....    1
 Number of Electrons    NEL             ....  152
 Basis Dimension        Dim             ....  383
 Nuclear Repulsion      ENuc            ....   1610.0844152865 Eh

Convergence Acceleration:
 AO-DIIS                CNVDIIS         .... on
   Start iteration      DIISMaxIt       ....    12
   Startup error        DIISStart       ....  0.200000
   # of expansion vecs  DIISMaxEq       ....     5
   Bias factor          DIISBfac        ....   1.050
   Max. coefficient     DIISMaxC        ....  10.000
 MO-DIIS                CNVKDIIS        .... off
 Trust-Rad. Augm. Hess. CNVTRAH         .... auto
   Auto Start mean grad. ratio tolernc. ....  1.125000
   Auto Start start iteration           ....    50
   Auto Start num. interpolation iter.  ....    10
   Max. Number of Micro iterations      ....    24
   Max. Number of Macro iterations      .... Maxiter - #DIIS iter
   Number of Davidson start vectors     ....     2
   Converg. threshold    (grad. norm)   ....   1.000e-05
   Grad. Scal. Fac. for Micro threshold ....   0.100
   Minimum threshold for Micro iter.    ....   1.000e-02
   NR start threshold (gradient norm)   ....   1.000e-04
   Initial trust radius                 ....   0.400
   Minimum AH scaling param. (alpha)    ....   1.000
   Maximum AH scaling param. (alpha)    .... 1000.000
   Quad. conv. algorithm                .... NR
   White noise on init. David. guess    .... on
   Maximum white noise                  ....   0.010
   Pseudo random numbers                .... off
   Inactive MOs                         .... canonical
   Orbital update algorithm             .... Taylor
   Preconditioner                       .... Diag
   Full preconditioner red. dimension   ....   250
 SOSCF                  CNVSOSCF        .... on
   Start iteration      SOSCFMaxIt      ....   150
   Startup grad/error   SOSCFStart      ....  0.003300
   Hessian update       SOSCFHessUp     .... L-BFGS
 Level Shifting         CNVShift        .... on
   Level shift para.    LevelShift      ....    0.2500
   Turn off err/grad.   ShiftErr        ....    0.0010
 Zerner damping         CNVZerner       .... off
 Static damping         CNVDamp         .... on
   Fraction old density DampFac         ....    0.7000
   Max. Damping (<1)    DampMax         ....    0.9800
   Min. Damping (>=0)   DampMin         ....    0.0000
   Turn off err/grad.   DampErr         ....    0.1000

SCF Procedure:
 Maximum # iterations   MaxIter         ....   125
 SCF integral mode      SCFMode         .... Direct
   Integral package                     .... SHARK and LIBINT hybrid scheme
 Reset frequency        DirectResetFreq ....    20
 Integral Threshold     Thresh          ....  2.500e-11 Eh
 Primitive CutOff       TCut            ....  2.500e-12 Eh

Convergence Tolerance:
 Convergence Check Mode ConvCheckMode   .... Total+1el-Energy
 Convergence forced     ConvForced      .... 0
 Energy Change          TolE            ....  1.000e-08 Eh
 1-El. energy change                    ....  1.000e-05 Eh
 Orbital Gradient       TolG            ....  1.000e-05
 Orbital Rotation angle TolX            ....  1.000e-05
 DIIS Error             TolErr          ....  5.000e-07

------------------------------
INITIAL GUESS: MODEL POTENTIAL
------------------------------
Loading Hartree-Fock densities                     ... done
Calculating cut-offs                               ... done
Initializing the effective Hamiltonian             ... done
Setting up the integral package (SHARK)            ... done
Starting the Coulomb interaction                   ... done (   0.2 sec)
Making the grid                                    ... done (   0.3 sec)
Mapping shells                                     ... done
Starting the XC term evaluation                    ... done (   0.2 sec)
  promolecular density results
     # of electrons  =    151.997460059
     EX              =   -130.480291726
     EC              =     -5.598986044
     EX+EC           =   -136.079277769
Transforming the Hamiltonian                       ... done (   0.0 sec)
Diagonalizing the Hamiltonian                      ... done (   0.0 sec)
Back transforming the eigenvectors                 ... done (   0.0 sec)
Now organizing SCF variables                       ... done
                      ------------------
                      INITIAL GUESS DONE (   0.6 sec)
                      ------------------
             **** ENERGY FILE WAS UPDATED (data/geom_opt_P_BP86/11437688/11437688.en.tmp) ****
Finished Guess after   0.7 sec
Maximum memory used throughout the entire GUESS-calculation: 27.0 MB


           ************************************************************
           *        Program running with 6 parallel MPI-processes     *
           *              working on a common directory               *
           ************************************************************

-------------------------------------------------------------------------------------------
                                      ORCA LEAN-SCF
                              memory conserving SCF solver
-------------------------------------------------------------------------------------------

----------------------------------------D-I-I-S--------------------------------------------
Iteration    Energy (Eh)           Delta-E    RMSDP     MaxDP     DIISErr   Damp  Time(sec)
-------------------------------------------------------------------------------------------
               ***  Starting incremental Fock matrix formation  ***
    1    -1112.7150645619547049     0.00e+00  1.98e-03  6.09e-02  1.15e-01  0.700   1.0
    2    -1112.8809200999824043    -1.66e-01  1.41e-03  6.16e-02  5.93e-02  0.700   1.0
                               ***Turning on AO-DIIS***
    3    -1112.9445220122067894    -6.36e-02  6.11e-04  3.64e-02  2.08e-02  0.700   1.1
    4    -1112.9814877063238328    -3.70e-02  1.12e-03  6.39e-02  9.12e-03  0.000   1.0
    5    -1113.0625491837615755    -8.11e-02  2.21e-04  1.52e-02  4.41e-03  0.000   1.0
                              *** Initializing SOSCF ***
---------------------------------------S-O-S-C-F--------------------------------------
Iteration    Energy (Eh)           Delta-E    RMSDP     MaxDP     MaxGrad    Time(sec)
--------------------------------------------------------------------------------------
    6    -1113.0631330449307370    -5.84e-04  7.73e-05  4.80e-03  8.56e-04     1.0
               *** Restarting incremental Fock matrix formation ***
    7    -1113.0631642063428899    -3.12e-05  5.26e-05  2.31e-03  1.87e-04     0.9
    8    -1113.0631613372304400     2.87e-06  2.24e-05  9.13e-04  4.32e-04     0.8
    9    -1113.0631672622901078    -5.93e-06  2.23e-05  1.51e-03  1.47e-04     0.8
   10    -1113.0631669980436982     2.64e-07  8.73e-06  3.98e-04  9.84e-05     0.8
   11    -1113.0631681150127861    -1.12e-06  1.10e-05  7.01e-04  5.35e-05     0.9
   12    -1113.0631677239123292     3.91e-07  6.72e-06  4.21e-04  8.94e-05     0.7
   13    -1113.0631682727091629    -5.49e-07  2.85e-06  2.19e-04  1.21e-05     0.8
   14    -1113.0631682256305339     4.71e-08  1.69e-06  1.26e-04  2.10e-05     0.8
   15    -1113.0631682848841137    -5.93e-08  9.39e-07  5.17e-05  4.31e-06     0.8
   16    -1113.0631682813275347     3.56e-09  6.02e-07  3.04e-05  8.87e-06     0.7
                 **** Energy Check signals convergence ****

               *****************************************************
               *                     SUCCESS                       *
               *           SCF CONVERGED AFTER  16 CYCLES          *
               *****************************************************

             **** ENERGY FILE WAS UPDATED (data/geom_opt_P_BP86/11437688/11437688.en.tmp) ****

----------------
TOTAL SCF ENERGY
----------------

Total Energy       :      -1113.06316828132753 Eh          -30287.98862 eV

Components:
Nuclear Repulsion  :       1610.08441528647859 Eh           43812.62433 eV
Electronic Energy  :      -2723.14758356780658 Eh          -74100.61295 eV
One Electron Energy:      -4713.05036705284147 Eh         -128248.62052 eV
Two Electron Energy:       1989.90278348503512 Eh           54148.00757 eV

Virial components:
Potential Energy   :      -2216.16091066486752 Eh          -60304.80422 eV
Kinetic Energy     :       1103.09774238353975 Eh           30016.81560 eV
Virial Ratio       :          2.00903403707114

DFT components:
N(Alpha)           :       75.999939571621 electrons
N(Beta)            :       75.999939571621 electrons
N(Total)           :      151.999879143242 electrons
E(X)               :     -132.383514015472 Eh       
E(C)               :       -5.606923587603 Eh       
E(XC)              :     -137.990437603075 Eh       

---------------
SCF CONVERGENCE
---------------

  Last Energy change         ...   -3.5566e-09  Tolerance :   1.0000e-08
  Last MAX-Density change    ...    3.0384e-05  Tolerance :   1.0000e-07
  Last RMS-Density change    ...    6.0212e-07  Tolerance :   5.0000e-09
  Last DIIS Error            ...    8.5585e-04  Tolerance :   5.0000e-07
  Last Orbital Gradient      ...    8.8709e-06  Tolerance :   1.0000e-05
  Last Orbital Rotation      ...    1.2943e-05  Tolerance :   1.0000e-05


----------------
ORBITAL ENERGIES
----------------

  NO   OCC          E(Eh)            E(eV) 
   0   2.0000     -76.341864     -2077.3677 
   1   2.0000      -9.925569      -270.0885 
   2   2.0000      -9.924642      -270.0633 
   3   2.0000      -9.924560      -270.0610 
   4   2.0000      -9.923993      -270.0456 
   5   2.0000      -9.922003      -269.9914 
   6   2.0000      -9.921869      -269.9878 
   7   2.0000      -9.921178      -269.9690 
   8   2.0000      -9.920976      -269.9635 
   9   2.0000      -9.919769      -269.9306 
  10   2.0000      -9.919470      -269.9225 
  11   2.0000      -9.919321      -269.9185 
  12   2.0000      -9.919207      -269.9154 
  13   2.0000      -9.919044      -269.9109 
  14   2.0000      -9.918863      -269.9060 
  15   2.0000      -9.918712      -269.9019 
  16   2.0000      -9.918505      -269.8962 
  17   2.0000      -9.918494      -269.8959 
  18   2.0000      -9.918422      -269.8940 
  19   2.0000      -9.918293      -269.8905 
  20   2.0000      -9.913865      -269.7700 
  21   2.0000      -6.311298      -171.7392 
  22   2.0000      -4.532668      -123.3402 
  23   2.0000      -4.532643      -123.3395 
  24   2.0000      -4.528955      -123.2391 
  25   2.0000      -0.785344       -21.3703 
  26   2.0000      -0.778386       -21.1809 
  27   2.0000      -0.775042       -21.0900 
  28   2.0000      -0.721146       -19.6234 
  29   2.0000      -0.693617       -18.8743 
  30   2.0000      -0.674783       -18.3618 
  31   2.0000      -0.673069       -18.3151 
  32   2.0000      -0.672444       -18.2981 
  33   2.0000      -0.670006       -18.2318 
  34   2.0000      -0.656207       -17.8563 
  35   2.0000      -0.591505       -16.0957 
  36   2.0000      -0.557928       -15.1820 
  37   2.0000      -0.547689       -14.9034 
  38   2.0000      -0.545167       -14.8347 
  39   2.0000      -0.540977       -14.7207 
  40   2.0000      -0.537049       -14.6138 
  41   2.0000      -0.508964       -13.8496 
  42   2.0000      -0.503295       -13.6953 
  43   2.0000      -0.470149       -12.7934 
  44   2.0000      -0.464170       -12.6307 
  45   2.0000      -0.443510       -12.0685 
  46   2.0000      -0.422702       -11.5023 
  47   2.0000      -0.411953       -11.2098 
  48   2.0000      -0.410774       -11.1777 
  49   2.0000      -0.404134       -10.9970 
  50   2.0000      -0.402317       -10.9476 
  51   2.0000      -0.397095       -10.8055 
  52   2.0000      -0.392583       -10.6827 
  53   2.0000      -0.377415       -10.2700 
  54   2.0000      -0.376921       -10.2565 
  55   2.0000      -0.375962       -10.2305 
  56   2.0000      -0.370138       -10.0720 
  57   2.0000      -0.368012       -10.0141 
  58   2.0000      -0.344921        -9.3858 
  59   2.0000      -0.336035        -9.1440 
  60   2.0000      -0.335554        -9.1309 
  61   2.0000      -0.331475        -9.0199 
  62   2.0000      -0.317371        -8.6361 
  63   2.0000      -0.307160        -8.3583 
  64   2.0000      -0.306870        -8.3504 
  65   2.0000      -0.306309        -8.3351 
  66   2.0000      -0.291053        -7.9200 
  67   2.0000      -0.290532        -7.9058 
  68   2.0000      -0.272100        -7.4042 
  69   2.0000      -0.247864        -6.7447 
  70   2.0000      -0.240012        -6.5311 
  71   2.0000      -0.237609        -6.4657 
  72   2.0000      -0.232738        -6.3331 
  73   2.0000      -0.231741        -6.3060 
  74   2.0000      -0.219971        -5.9857 
  75   2.0000      -0.184715        -5.0264 
  76   0.0000      -0.072862        -1.9827 
  77   0.0000      -0.058388        -1.5888 
  78   0.0000      -0.054547        -1.4843 
  79   0.0000      -0.045502        -1.2382 
  80   0.0000      -0.040464        -1.1011 
  81   0.0000      -0.039247        -1.0680 
  82   0.0000      -0.006304        -0.1715 
  83   0.0000       0.035032         0.9533 
  84   0.0000       0.036637         0.9969 
  85   0.0000       0.046888         1.2759 
  86   0.0000       0.058586         1.5942 
*Only the first 10 virtual orbitals were printed.

                    ********************************
                    * MULLIKEN POPULATION ANALYSIS *
                    ********************************

-----------------------
MULLIKEN ATOMIC CHARGES
-----------------------
   0 C :   -0.048583
   1 C :   -0.032544
   2 C :    0.089126
   3 C :   -0.024768
   4 C :    0.002889
   5 C :   -0.121828
   6 C :    0.010445
   7 C :   -0.020441
   8 P :    0.286157
   9 C :   -0.127642
  10 C :    0.010793
  11 C :    0.009309
  12 C :    0.009847
  13 C :    0.012602
  14 C :    0.000742
  15 C :   -0.126355
  16 C :    0.011141
  17 C :    0.009223
  18 C :    0.009848
  19 C :    0.012452
  20 C :   -0.000728
  21 H :    0.033035
  22 H :    0.036327
  23 H :    0.011452
  24 H :   -0.017764
  25 H :    0.004467
  26 H :   -0.004540
  27 H :   -0.014377
  28 H :   -0.003155
  29 H :   -0.003073
  30 H :   -0.004086
  31 H :   -0.005595
  32 H :    0.005638
  33 H :   -0.003307
  34 H :   -0.003138
  35 H :   -0.004187
  36 H :   -0.005521
  37 H :    0.006135
Sum of atomic charges:   -0.0000000

--------------------------------
MULLIKEN REDUCED ORBITAL CHARGES
--------------------------------
  0 C s       :     3.126940  s :     3.126940
      pz      :     0.982044  p :     2.897589
      px      :     0.959997
      py      :     0.955549
      dz2     :     0.001454  d :     0.024054
      dxz     :     0.003381
      dyz     :     0.003576
      dx2y2   :     0.009858
      dxy     :     0.005785

  1 C s       :     3.155913  s :     3.155913
      pz      :     0.971113  p :     2.843634
      px      :     0.947860
      py      :     0.924662
      dz2     :     0.002389  d :     0.032997
      dxz     :     0.006188
      dyz     :     0.004152
      dx2y2   :     0.011513
      dxy     :     0.008754

  2 C s       :     3.033894  s :     3.033894
      pz      :     0.941395  p :     2.835760
      px      :     0.918135
      py      :     0.976230
      dz2     :     0.008713  d :     0.041220
      dxz     :     0.011111
      dyz     :     0.005396
      dx2y2   :     0.007887
      dxy     :     0.008113

  3 C s       :     3.235399  s :     3.235399
      pz      :     0.869245  p :     2.757210
      px      :     0.944161
      py      :     0.943804
      dz2     :     0.005692  d :     0.032160
      dxz     :     0.008857
      dyz     :     0.003797
      dx2y2   :     0.006435
      dxy     :     0.007378

  4 C s       :     3.237477  s :     3.237477
      pz      :     0.921896  p :     2.726883
      px      :     0.847888
      py      :     0.957100
      dz2     :     0.006198  d :     0.032751
      dxz     :     0.009935
      dyz     :     0.004170
      dx2y2   :     0.005560
      dxy     :     0.006889

  5 C s       :     3.070763  s :     3.070763
      pz      :     0.999034  p :     3.015915
      px      :     0.989679
      py      :     1.027203
      dz2     :     0.008063  d :     0.035150
      dxz     :     0.010097
      dyz     :     0.005207
      dx2y2   :     0.006639
      dxy     :     0.005144

  6 C s       :     3.223992  s :     3.223992
      pz      :     0.890196  p :     2.732903
      px      :     0.905397
      py      :     0.937310
      dz2     :     0.005745  d :     0.032660
      dxz     :     0.009045
      dyz     :     0.003922
      dx2y2   :     0.006714
      dxy     :     0.007233

  7 C s       :     3.232047  s :     3.232047
      pz      :     0.930390  p :     2.756256
      px      :     0.869759
      py      :     0.956107
      dz2     :     0.006159  d :     0.032137
      dxz     :     0.009824
      dyz     :     0.004175
      dx2y2   :     0.005422
      dxy     :     0.006557

  8 P s       :     5.654500  s :     5.654500
      pz      :     3.319433  p :     8.883457
      px      :     2.787510
      py      :     2.776514
      dz2     :     0.018252  d :     0.175886
      dxz     :     0.029107
      dyz     :     0.038755
      dx2y2   :     0.052146
      dxy     :     0.037627

  9 C s       :     3.075529  s :     3.075529
      pz      :     0.988438  p :     3.017174
      px      :     1.017807
      py      :     1.010928
      dz2     :     0.008372  d :     0.034939
      dxz     :     0.004938
      dyz     :     0.009852
      dx2y2   :     0.005307
      dxy     :     0.006469

 10 C s       :     3.219641  s :     3.219641
      pz      :     0.868952  p :     2.737035
      px      :     0.937222
      py      :     0.930861
      dz2     :     0.006376  d :     0.032532
      dxz     :     0.003769
      dyz     :     0.008926
      dx2y2   :     0.006453
      dxy     :     0.007008

 11 C s       :     3.168603  s :     3.168603
      pz      :     0.956641  p :     2.789200
      px      :     0.981960
      py      :     0.850598
      dz2     :     0.008227  d :     0.032888
      dxz     :     0.005529
      dyz     :     0.008593
      dx2y2   :     0.006328
      dxy     :     0.004211

 12 C s       :     3.168512  s :     3.168512
      pz      :     0.927127  p :     2.788478
      px      :     0.947999
      py      :     0.913352
      dz2     :     0.006880  d :     0.033164
      dxz     :     0.004652
      dyz     :     0.010256
      dx2y2   :     0.004968
      dxy     :     0.006407

 13 C s       :     3.168484  s :     3.168484
      pz      :     0.873234  p :     2.786017
      px      :     0.959593
      py      :     0.953190
      dz2     :     0.006567  d :     0.032898
      dxz     :     0.003822
      dyz     :     0.008893
      dx2y2   :     0.006673
      dxy     :     0.006943

 14 C s       :     3.234302  s :     3.234302
      pz      :     0.933109  p :     2.732295
      px      :     0.963722
      py      :     0.835464
      dz2     :     0.007944  d :     0.032661
      dxz     :     0.005489
      dyz     :     0.008754
      dx2y2   :     0.006270
      dxy     :     0.004205

 15 C s       :     3.075240  s :     3.075240
      pz      :     0.996470  p :     3.016185
      px      :     1.021326
      py      :     0.998389
      dz2     :     0.006031  d :     0.034929
      dxz     :     0.006194
      dyz     :     0.006581
      dx2y2   :     0.008337
      dxy     :     0.007786

 16 C s       :     3.219360  s :     3.219360
      pz      :     0.919205  p :     2.736974
      px      :     0.923534
      py      :     0.894234
      dz2     :     0.003502  d :     0.032524
      dxz     :     0.005806
      dyz     :     0.005987
      dx2y2   :     0.008164
      dxy     :     0.009066

 17 C s       :     3.168536  s :     3.168536
      pz      :     0.964393  p :     2.789344
      px      :     0.874164
      py      :     0.950787
      dz2     :     0.005396  d :     0.032898
      dxz     :     0.004626
      dyz     :     0.006601
      dx2y2   :     0.008081
      dxy     :     0.008193

 18 C s       :     3.168469  s :     3.168469
      pz      :     0.958076  p :     2.788521
      px      :     0.962052
      py      :     0.868392
      dz2     :     0.005288  d :     0.033162
      dxz     :     0.006507
      dyz     :     0.004857
      dx2y2   :     0.008680
      dxy     :     0.007830

 19 C s       :     3.168529  s :     3.168529
      pz      :     0.923697  p :     2.786118
      px      :     0.921422
      py      :     0.940999
      dz2     :     0.003599  d :     0.032902
      dxz     :     0.005876
      dyz     :     0.005897
      dx2y2   :     0.008308
      dxy     :     0.009222

 20 C s       :     3.234468  s :     3.234468
      pz      :     0.944542  p :     2.733600
      px      :     0.885454
      py      :     0.903603
      dz2     :     0.005231  d :     0.032661
      dxz     :     0.004692
      dyz     :     0.006533
      dx2y2   :     0.008294
      dxy     :     0.007910

 21 H s       :     0.943462  s :     0.943462
      pz      :     0.006827  p :     0.023503
      px      :     0.004936
      py      :     0.011739

 22 H s       :     0.940297  s :     0.940297
      pz      :     0.005773  p :     0.023376
      px      :     0.012613
      py      :     0.004990

 23 H s       :     0.965978  s :     0.965978
      pz      :     0.006657  p :     0.022569
      px      :     0.004524
      py      :     0.011388

 24 H s       :     0.995359  s :     0.995359
      pz      :     0.010701  p :     0.022405
      px      :     0.004435
      py      :     0.007268

 25 H s       :     0.972350  s :     0.972350
      pz      :     0.007816  p :     0.023183
      px      :     0.008802
      py      :     0.006565

 26 H s       :     0.982062  s :     0.982062
      pz      :     0.010768  p :     0.022478
      px      :     0.004580
      py      :     0.007131

 27 H s       :     0.991811  s :     0.991811
      pz      :     0.007907  p :     0.022566
      px      :     0.008282
      py      :     0.006378

 28 H s       :     0.980666  s :     0.980666
      pz      :     0.011509  p :     0.022488
      px      :     0.006478
      py      :     0.004501

 29 H s       :     0.980678  s :     0.980678
      pz      :     0.005009  p :     0.022395
      px      :     0.004696
      py      :     0.012690

 30 H s       :     0.981717  s :     0.981717
      pz      :     0.007069  p :     0.022369
      px      :     0.006947
      py      :     0.008352

 31 H s       :     0.983249  s :     0.983249
      pz      :     0.011370  p :     0.022346
      px      :     0.006486
      py      :     0.004490

 32 H s       :     0.971196  s :     0.971196
      pz      :     0.005071  p :     0.023166
      px      :     0.004684
      py      :     0.013411

 33 H s       :     0.980815  s :     0.980815
      pz      :     0.008556  p :     0.022492
      px      :     0.007341
      py      :     0.006594

 34 H s       :     0.980742  s :     0.980742
      pz      :     0.005474  p :     0.022396
      px      :     0.011501
      py      :     0.005421

 35 H s       :     0.981816  s :     0.981816
      pz      :     0.005569  p :     0.022371
      px      :     0.004844
      py      :     0.011958

 36 H s       :     0.983176  s :     0.983176
      pz      :     0.008495  p :     0.022345
      px      :     0.007328
      py      :     0.006522

 37 H s       :     0.970703  s :     0.970703
      pz      :     0.005498  p :     0.023162
      px      :     0.011989
      py      :     0.005675



                     *******************************
                     * LOEWDIN POPULATION ANALYSIS *
                     *******************************

----------------------
LOEWDIN ATOMIC CHARGES
----------------------
   0 C :   -0.047890
   1 C :   -0.024473
   2 C :   -0.029257
   3 C :   -0.021817
   4 C :   -0.030320
   5 C :   -0.178697
   6 C :   -0.026024
   7 C :   -0.018848
   8 P :    0.509205
   9 C :   -0.176769
  10 C :   -0.028241
  11 C :   -0.028786
  12 C :   -0.026815
  13 C :   -0.028377
  14 C :   -0.031621
  15 C :   -0.176534
  16 C :   -0.028091
  17 C :   -0.028662
  18 C :   -0.026998
  19 C :   -0.028384
  20 C :   -0.032204
  21 H :    0.024747
  22 H :    0.028293
  23 H :    0.032703
  24 H :    0.029358
  25 H :    0.031747
  26 H :    0.029307
  27 H :    0.030303
  28 H :    0.028601
  29 H :    0.031175
  30 H :    0.029899
  31 H :    0.030507
  32 H :    0.031413
  33 H :    0.028594
  34 H :    0.031162
  35 H :    0.029861
  36 H :    0.030535
  37 H :    0.031396

-------------------------------
LOEWDIN REDUCED ORBITAL CHARGES
-------------------------------
  0 C s       :     2.886822  s :     2.886822
      pz      :     0.989511  p :     3.094573
      px      :     1.053837
      py      :     1.051226
      dz2     :     0.004198  d :     0.066494
      dxz     :     0.008102
      dyz     :     0.008999
      dx2y2   :     0.027293
      dxy     :     0.017903

  1 C s       :     2.871245  s :     2.871245
      pz      :     0.972276  p :     3.063939
      px      :     1.041371
      py      :     1.050292
      dz2     :     0.006199  d :     0.089289
      dxz     :     0.014756
      dyz     :     0.010358
      dx2y2   :     0.032374
      dxy     :     0.025600

  2 C s       :     2.849211  s :     2.849211
      pz      :     1.041191  p :     3.070347
      px      :     1.039571
      py      :     0.989585
      dz2     :     0.022641  d :     0.109699
      dxz     :     0.030748
      dyz     :     0.015157
      dx2y2   :     0.021269
      dxy     :     0.019883

  3 C s       :     2.864829  s :     2.864829
      pz      :     1.017881  p :     3.069031
      px      :     1.057013
      py      :     0.994137
      dz2     :     0.015193  d :     0.087957
      dxz     :     0.025022
      dyz     :     0.009682
      dx2y2   :     0.019321
      dxy     :     0.018739

  4 C s       :     2.868148  s :     2.868148
      pz      :     1.020609  p :     3.072502
      px      :     1.057466
      py      :     0.994427
      dz2     :     0.016492  d :     0.089671
      dxz     :     0.028201
      dyz     :     0.011412
      dx2y2   :     0.016154
      dxy     :     0.017411

  5 C s       :     2.913368  s :     2.913368
      pz      :     1.065058  p :     3.173648
      px      :     1.080722
      py      :     1.027868
      dz2     :     0.019727  d :     0.091681
      dxz     :     0.027949
      dyz     :     0.014697
      dx2y2   :     0.016280
      dxy     :     0.013029

  6 C s       :     2.869071  s :     2.869071
      pz      :     1.020122  p :     3.067750
      px      :     1.063190
      py      :     0.984439
      dz2     :     0.015406  d :     0.089203
      dxz     :     0.025695
      dyz     :     0.009864
      dx2y2   :     0.019940
      dxy     :     0.018298

  7 C s       :     2.863115  s :     2.863115
      pz      :     1.028478  p :     3.067982
      px      :     1.049793
      py      :     0.989711
      dz2     :     0.016375  d :     0.087751
      dxz     :     0.027895
      dyz     :     0.011203
      dx2y2   :     0.015909
      dxy     :     0.016368

  8 P s       :     5.234227  s :     5.234227
      pz      :     3.379421  p :     9.011815
      px      :     2.822041
      py      :     2.810354
      dz2     :     0.025745  d :     0.244752
      dxz     :     0.038356
      dyz     :     0.053758
      dx2y2   :     0.074892
      dxy     :     0.052002

  9 C s       :     2.914707  s :     2.914707
      pz      :     1.069922  p :     3.170932
      px      :     1.025269
      py      :     1.075741
      dz2     :     0.021668  d :     0.091129
      dxz     :     0.012919
      dyz     :     0.026967
      dx2y2   :     0.014714
      dxy     :     0.014862

 10 C s       :     2.869425  s :     2.869425
      pz      :     1.026816  p :     3.069846
      px      :     0.984837
      py      :     1.058193
      dz2     :     0.017273  d :     0.088970
      dxz     :     0.009512
      dyz     :     0.025484
      dx2y2   :     0.018408
      dxy     :     0.018293

 11 C s       :     2.863670  s :     2.863670
      pz      :     1.042773  p :     3.075952
      px      :     0.995469
      py      :     1.037709
      dz2     :     0.021929  d :     0.089165
      dxz     :     0.015338
      dyz     :     0.024828
      dx2y2   :     0.015996
      dxy     :     0.011074

 12 C s       :     2.863162  s :     2.863162
      pz      :     1.035663  p :     3.073782
      px      :     0.985344
      py      :     1.052775
      dz2     :     0.018766  d :     0.089871
      dxz     :     0.012252
      dyz     :     0.028918
      dx2y2   :     0.014242
      dxy     :     0.015694

 13 C s       :     2.864292  s :     2.864292
      pz      :     1.023215  p :     3.074917
      px      :     0.988853
      py      :     1.062848
      dz2     :     0.017221  d :     0.089168
      dxz     :     0.009632
      dyz     :     0.025663
      dx2y2   :     0.018749
      dxy     :     0.017904

 14 C s       :     2.868503  s :     2.868503
      pz      :     1.032929  p :     3.073703
      px      :     0.994035
      py      :     1.046739
      dz2     :     0.021482  d :     0.089416
[...]

 15 C s       :     2.924106  s :     2.924106
      pz      :     1.035102  p :     3.160467
      px      :     1.062601
      py      :     1.062764
      dz2     :     0.013276  d :     0.087981
      dxz     :     0.017385
      dyz     :     0.016219
      dx2y2   :     0.020778
      dxy     :     0.020323

 16 C s       :     2.876427  s :     2.876427
      pz      :     1.000522  p :     3.070344
      px      :     1.034524
      py      :     1.035298
      dz2     :     0.009549  d :     0.087124
      dxz     :     0.015372
      dyz     :     0.015434
      dx2y2   :     0.021637
      dxy     :     0.025132

 17 C s       :     2.872876  s :     2.872876
      pz      :     1.009609  p :     3.071838
      px      :     1.023531
      py      :     1.038698
      dz2     :     0.013228  d :     0.086095
      dxz     :     0.013115
      dyz     :     0.018078
      dx2y2   :     0.020327
      dxy     :     0.021346

 18 C s       :     2.873848  s :     2.873848
      pz      :     1.005610  p :     3.069826
      px      :     1.042514
      py      :     1.021702
      dz2     :     0.012098  d :     0.085664
      dxz     :     0.018155
      dyz     :     0.012956
      dx2y2   :     0.021660
      dxy     :     0.020795

 19 C s       :     2.873116  s :     2.873116
      pz      :     0.998847  p :     3.071066
      px      :     1.035315
      py      :     1.036904
      dz2     :     0.009144  d :     0.086245
      dxz     :     0.015354
      dyz     :     0.014930
      dx2y2   :     0.022219
      dxy     :     0.024598

 20 C s       :     2.876553  s :     2.876553
      pz      :     1.000769  p :     3.071714
      px      :     1.032129
      py      :     1.038816
      dz2     :     0.013054  d :     0.086996
      dxz     :     0.013087
      dyz     :     0.018546
      dx2y2   :     0.020830
      dxy     :     0.021479

 21 H s       :     0.906392  s :     0.906392
      pz      :     0.032855  p :     0.067635
      px      :     0.011565
      py      :     0.023214

 22 H s       :     0.899940  s :     0.899940
      pz      :     0.017064  p :     0.067313
      px      :     0.035784
      py      :     0.014464

 23 H s       :     0.902096  s :     0.902096
      pz      :     0.031814  p :     0.064687
      px      :     0.011091
      py      :     0.021782

 24 H s       :     0.902050  s :     0.902050
      pz      :     0.031852  p :     0.066494
      px      :     0.012872
      py      :     0.021770

 25 H s       :     0.894466  s :     0.894466
      pz      :     0.021298  p :     0.069089
      px      :     0.028018
      py      :     0.019774

 26 H s       :     0.901478  s :     0.901478
      pz      :     0.032157  p :     0.066454
      px      :     0.012920
      py      :     0.021377

 27 H s       :     0.901356  s :     0.901356
      pz      :     0.021398  p :     0.067136
      px      :     0.025909
      py      :     0.019830

 28 H s       :     0.901967  s :     0.901967
      pz      :     0.034960  p :     0.066668
      px      :     0.018516
      py      :     0.013192

 29 H s       :     0.900215  s :     0.900215
      pz      :     0.013850  p :     0.065834
      px      :     0.013102
      py      :     0.038881

 30 H s       :     0.900981  s :     0.900981
      pz      :     0.021963  p :     0.065922
      px      :     0.019266
      py      :     0.024693

 31 H s       :     0.900651  s :     0.900651
      pz      :     0.034009  p :     0.065851
      px      :     0.018346
      py      :     0.013497

 32 H s       :     0.895154  s :     0.895154
      pz      :     0.013730  p :     0.069132
      px      :     0.013324
      py      :     0.042079

 33 H s       :     0.902053  s :     0.902053
      pz      :     0.026427  p :     0.066648
      px      :     0.021491
      py      :     0.018731

 34 H s       :     0.900240  s :     0.900240
      pz      :     0.015026  p :     0.065831
      px      :     0.034426
      py      :     0.016379

 35 H s       :     0.900955  s :     0.900955
      pz      :     0.016819  p :     0.065924
      px      :     0.014143
      py      :     0.034962

 36 H s       :     0.900488  s :     0.900488
      pz      :     0.025837  p :     0.065863
      px      :     0.021680
      py      :     0.018346

 37 H s       :     0.895037  s :     0.895037
      pz      :     0.015006  p :     0.069086
      px      :     0.036189
      py      :     0.017891



                      *****************************
                      * MAYER POPULATION ANALYSIS *
                      *****************************

  NA   - Mulliken gross atomic population
  ZA   - Total nuclear charge
  QA   - Mulliken gross atomic charge
  VA   - Mayer's total valence
  BVA  - Mayer's bonded valence
  FA   - Mayer's free valence

  ATOM       NA         ZA         QA         VA         BVA        FA
  0 C      6.0616     6.0000    -0.0616     3.9068     3.9068    -0.0000
  1 C      6.0211     6.0000    -0.0211     3.9950     3.9950    -0.0000
  2 C      5.9085     6.0000     0.0915     3.8404     3.8404    -0.0000
  3 C      6.0372     6.0000    -0.0372     3.8010     3.8010    -0.0000
  4 C      5.9856     6.0000     0.0144     3.8644     3.8644    -0.0000
  5 C      6.1603     6.0000    -0.1603     3.8204     3.8204    -0.0000
  6 C      5.9802     6.0000     0.0198     3.8637     3.8637    -0.0000
  7 C      6.0302     6.0000    -0.0302     3.8494     3.8494     0.0000
  8 P     14.6958    15.0000     0.3042     2.9910     2.9910    -0.0000
  9 C      6.1636     6.0000    -0.1636     3.8441     3.8441    -0.0000
 10 C      5.9863     6.0000     0.0137     3.8660     3.8660    -0.0000
 11 C      6.0006     6.0000    -0.0006     3.8569     3.8569    -0.0000
 12 C      5.9968     6.0000     0.0032     3.8253     3.8253    -0.0000
 13 C      5.9965     6.0000     0.0035     3.8349     3.8349    -0.0000
 14 C      5.9925     6.0000     0.0075     3.8796     3.8796    -0.0000
 15 C      6.1639     6.0000    -0.1639     3.8451     3.8451    -0.0000
 16 C      5.9837     6.0000     0.0163     3.8638     3.8638    -0.0000
 17 C      6.0009     6.0000    -0.0009     3.8571     3.8571    -0.0000
 18 C      5.9967     6.0000     0.0033     3.8254     3.8254    -0.0000
 19 C      5.9968     6.0000     0.0032     3.8351     3.8351    -0.0000
 20 C      5.9937     6.0000     0.0063     3.8788     3.8788    -0.0000
 21 H      0.9652     1.0000     0.0348     0.9818     0.9818    -0.0000
 22 H      0.9577     1.0000     0.0423     0.9749     0.9749    -0.0000
 23 H      0.9981     1.0000     0.0019     0.9836     0.9836     0.0000
 24 H      1.0089     1.0000    -0.0089     0.9862     0.9862     0.0000
 25 H      0.9838     1.0000     0.0162     0.9900     0.9900     0.0000
 26 H      0.9980     1.0000     0.0020     0.9897     0.9897    -0.0000
 27 H      1.0109     1.0000    -0.0109     0.9878     0.9878     0.0000
 28 H      0.9949     1.0000     0.0051     0.9904     0.9904    -0.0000
 29 H      0.9942     1.0000     0.0058     0.9790     0.9790    -0.0000
 30 H      0.9947     1.0000     0.0053     0.9788     0.9788     0.0000
 31 H      0.9966     1.0000     0.0034     0.9788     0.9788    -0.0000
 32 H      0.9826     1.0000     0.0174     0.9910     0.9910    -0.0000
 33 H      0.9953     1.0000     0.0047     0.9904     0.9904    -0.0000
 34 H      0.9943     1.0000     0.0057     0.9790     0.9790    -0.0000
 35 H      0.9946     1.0000     0.0054     0.9788     0.9788    -0.0000
 36 H      0.9963     1.0000     0.0037     0.9788     0.9788     0.0000
 37 H      0.9813     1.0000     0.0187     0.9905     0.9905     0.0000

  Mayer bond orders larger than 0.100000
B(  0-C ,  1-C ) :   1.9028 B(  0-C , 21-H ) :   0.9378 B(  0-C , 22-H ) :   0.9399 
B(  1-C ,  2-C ) :   1.1021 B(  1-C , 23-H ) :   0.9517 B(  2-C ,  3-C ) :   1.3266 
B(  2-C ,  7-C ) :   1.3227 B(  3-C ,  4-C ) :   1.3678 B(  3-C , 24-H ) :   0.9776 
B(  4-C ,  5-C ) :   1.3789 B(  4-C , 25-H ) :   0.9657 B(  5-C ,  6-C ) :   1.3278 
B(  5-C ,  8-P ) :   0.9368 B(  6-C ,  7-C ) :   1.4307 B(  6-C , 26-H ) :   0.9684 
B(  7-C , 27-H ) :   0.9717 B(  8-P ,  9-C ) :   0.9351 B(  8-P , 15-C ) :   0.9352 
B(  9-C , 10-C ) :   1.3619 B(  9-C , 14-C ) :   1.3836 B( 10-C , 11-C ) :   1.4032 
B( 10-C , 28-H ) :   0.9716 B( 11-C , 12-C ) :   1.3748 B( 11-C , 29-H ) :   0.9759 
B( 12-C , 13-C ) :   1.3792 B( 12-C , 30-H ) :   0.9756 B( 13-C , 14-C ) :   1.3821 
B( 13-C , 31-H ) :   0.9747 B( 14-C , 32-H ) :   0.9667 B( 15-C , 16-C ) :   1.3618 
B( 15-C , 20-C ) :   1.3822 B( 16-C , 17-C ) :   1.4034 B( 16-C , 33-H ) :   0.9716 
B( 17-C , 18-C ) :   1.3748 B( 17-C , 34-H ) :   0.9758 B( 18-C , 19-C ) :   1.3791 
B( 18-C , 35-H ) :   0.9757 B( 19-C , 20-C ) :   1.3818 B( 19-C , 36-H ) :   0.9748 
B( 20-C , 37-H ) :   0.9667 

-------
TIMINGS
-------

Total SCF time: 0 days 0 hours 0 min 6 sec 

Total time                  ....       6.852 sec
Sum of individual times     ....       6.753 sec  ( 98.6%)

SCF preparation             ....       0.124 sec  (  1.8%)
Fock matrix formation       ....       5.893 sec  ( 86.0%)
  Startup                   ....       0.027 sec  (  0.5% of F)
  Split-RI-J                ....       2.072 sec  ( 35.2% of F)
  XC integration            ....       3.573 sec  ( 60.6% of F)
    Basis function eval.    ....       1.065 sec  ( 29.8% of XC)
    Density eval.           ....       1.067 sec  ( 29.9% of XC)
    XC-Functional eval.     ....       0.093 sec  (  2.6% of XC)
    XC-Potential eval.      ....       0.726 sec  ( 20.3% of XC)
Diagonalization             ....       0.000 sec  (  0.0%)
Density matrix formation    ....       0.070 sec  (  1.0%)
Total Energy calculation    ....       0.120 sec  (  1.8%)
Population analysis         ....       0.097 sec  (  1.4%)
Orbital Transformation      ....       0.046 sec  (  0.7%)
Orbital Orthonormalization  ....       0.000 sec  (  0.0%)
DIIS solution               ....       0.056 sec  (  0.8%)
SOSCF solution              ....       0.347 sec  (  5.1%)
Finished LeanSCF after   6.9 sec

Maximum memory used throughout the entire LEANSCF-calculation: 40.6 MB


-------------------------------------------------------------------------------
                          DFT DISPERSION CORRECTION                            
                                                                               
                              DFTD3 V3.1  Rev 1                                
                          USING Becke-Johnson damping                          
-------------------------------------------------------------------------------
The BP86 functional is recognized
Active option DFTDOPT                   ...         4   

molecular C6(AA) [au] = 20303.864827 


            DFT-D V3
 parameters
 s6 scaling factor         :     1.0000 
 a1 scaling factor         :     0.3946 
 s8 scaling factor         :     3.2822 
 a2 scaling factor         :     4.8516 
 ad hoc parameters k1-k3   :    16.0000     1.3333    -4.0000 

 Edisp/kcal,au: -56.483539420809  -0.090012240022 
 E6   /kcal   : -20.461946767 
 E8   /kcal   : -36.021592654 
 % E8         :  63.773610902 

-------------------------   ----------------
Dispersion correction           -0.090012240
-------------------------   ----------------


-------------------------   --------------------
FINAL SINGLE POINT ENERGY     -1113.160987089864
-------------------------   --------------------

                                *** OPTIMIZATION RUN DONE ***



           ************************************************************
           *        Program running with 6 parallel MPI-processes     *
           *              working on a common directory               *
           ************************************************************

------------------------------------------------------------------------------
                              ORCA PROPERTY CALCULATIONS
------------------------------------------------------------------------------

GBWName                                 ... data/geom_opt_P_BP86/11437688/11437688.gbw
Number of atoms                         ...     38
Number of basis functions               ...    383
Max core memory                         ...   1024 MB

Electric properties:
Dipole moment                           ... YES
Quadrupole moment                       ...  NO
Static polarizability (Dipole/Dipole)   ...  NO
Static polarizability (Dipole/Quad.)    ...  NO
Static polarizability (Quad./Quad.)     ...  NO
Static polarizability (Velocity)        ...  NO

Atomic electric properties:
Dipole moment                           ...  NO
Quadrupole moment                       ...  NO
Static polarizability                   ...  NO

Choice of electric origin               ... Center of mass
Position of electric origin             ...    -0.346651    -0.046849    -0.345626

General magnetic properties:
Magnetizability                         ...  NO

EPR properties:
g-Tensor (aka g-matrix)                 ...  NO
Zero-Field splitting spin-orbit         ...  NO
Zero-field splitting spin-spin          ...  NO
Hyperfine couplings                     ...  NO (   0 nuclei)
Quadrupole couplings                    ...  NO (   0 nuclei)
Contact density                         ...  NO (   0 nuclei)

NMR properties:
Chemical shifts                         ...  NO (   0 nuclei)
Spin-rotation constants                 ...  NO (   0 nuclei)
Spin-spin couplings                     ...  NO (   0 nuclei,    0 pairs)

Choice of magnetic origin               ... GIAO
Position of magnetic origin             ...     0.000000     0.000000     0.000000

Properties with geometric perturbations:
SCF Hessian                             ...  NO
IR spectrum                             ...  NO
VCD spectrum                            ...  NO
X-ray spectroscopy properties:
SCF XES/XAS/RIXS spectra                ...  NO


-------------
DIPOLE MOMENT
-------------

Method             : SCF
Type of density    : Electron Density
Multiplicity       :   1
Irrep              :   0
Energy             : -1113.0709748498416047 Eh
Relativity type    : 
Basis              : AO
                                X                 Y                 Z
Electronic contribution:     -6.559293650      -0.806420590      -5.678278220
Nuclear contribution   :      6.562539520       0.879402477       6.204123181
                        -----------------------------------------
Total Dipole Moment    :      0.003245870       0.072981887       0.525844961
                        -----------------------------------------
Magnitude (a.u.)       :      0.530895295
Magnitude (Debye)      :      1.349428600



--------------------
Rotational spectrum 
--------------------
 
Rotational constants in cm-1:             0.011622             0.007082             0.005051 
Rotational constants in MHz :           348.414691           212.302982           151.411133 

Dipole components along the rotational axes: 
x,y,z [a.u.] :    -0.038369    -0.004210     0.529490 
x,y,z [Debye]:    -0.097527    -0.010700     1.345857 

 

Dipole moment calculation done in   0.0 sec 

Maximum memory used throughout the entire PROP-calculation: 20.5 MB

--------------------------------
SUGGESTED CITATIONS FOR THIS RUN
--------------------------------

Below you find a list of papers that are relevant to this ORCA run
We neither can nor want to force you to cite these papers, but we appreciate if you do
You receive ORCA, which is the product of decades of hard work by many enthusiastic individuals, for free
The only thing we kindly ask in return is that you cite our papers,
We deeply appreciate it, if you show your appreciation for ORCA by not just citing the generic ORCA reference.

Please note that relegating all ORCA citations to the supporting information does *not* help us.
SI sections are not indexed - citations you put there will not count into any citation statistics
But we need these citations in order to attract the funding resources that allow us to do what we are doing

Therefore, if you are a happy ORCA user, please consider citing a few of the papers listed below in the main body of your paper

In addition to the list printed below, the program has created the file data/geom_opt_P_BP86/11437688/11437688.bibtex that contains the list in bibtex format
You can import this file easily into all common literature databanks and citation aid programs


List of essential papers. We consider these as the minimum necessary citations

  1. Neese,F.
     Software update: the ORCA program system, version 5.0
     WIRES Comput. Molec. Sci., 2022 12(1)e1606
     doi.org/10.1002/wcms.1606

List of papers to cite with high priority. The work reported in these papers was absolutely
necessary for this run to complete.
Our perspective: the developers of density functionals and basis sets usually get cited in chemistry papers
Good! But without the algorithms to do something with them, the functionals or basis sets would not do anything.
Hence, in our opinion, the algorithm design and method developments papers are equally worthy of getting cited

  1. Neese,F.
     An improvement of the resolution of the identity approximation for the formation of the Coulomb matrix
     J. Comp. Chem., 2003 24(14)1740-1747
     doi.org/10.1002/jcc.10318
  2. Neese,F.
     The SHARK Integral Generation and Digestion System
     J. Comp. Chem., 2022  1-16
     doi.org/10.1002/jcc.26942
  3. Grimme,S.; Antony,J.; Ehrlich,S.; Krieg,H.
     A consistent and accurate ab initio parametrization of density functional dispersion correction (DFT-D) for the 94 elements H-Pu
     J. Chem. Phys., 2010 132 154104-XXXX
     doi.org/10.1063/1.3382344
  4. Grimme,S.; Ehrlich,S.; Goerigk,L.
     Effect of the damping function in dispersion corrected density functional theory
     J. Comput. Chem., 2011 32(7)1456-1465
     doi.org/10.1002/jcc.21759

List of suggested additional citations. These are papers that are important in the 'surrounding' of 
of this run, or papers that preceded the highly important papers. If you like your results we are grateful for a citation.

  1. Neese,F.
     The ORCA program system
     WIRES Comput. Molec. Sci., 2012 2(1)73-78
     doi.org/10.1002/wcms.81
  2. Neese,F.
     Software update: the ORCA program system, version 4.0
     WIRES Comput. Molec. Sci., 2018 8(1)1-6
     doi.org/10.1002/wcms.1327
  3. Neese,F.; Wennmohs,F.; Becker,U.; Riplinger,C.
     The ORCA quantum chemistry program package
     J. Chem. Phys., 2020 152 Art. No. L224108
     doi.org/10.1063/5.0004608

List of optional additional citations

  1. Neese,F.
     Approximate second-order SCF convergence for spin unrestricted wavefunctions
     Chem. Phys. Lett., 2000 325(1-3)93-98
     doi.org/10.1016/s0009-2614(00)00662-x

Timings for individual modules:

Sum of individual times          ...      198.769 sec (=   3.313 min)
Startup calculation              ...       16.841 sec (=   0.281 min)   8.5 %
SCF iterations                   ...      119.939 sec (=   1.999 min)  60.3 %
Property calculations            ...        0.180 sec (=   0.003 min)   0.1 %
SCF Gradient evaluation          ...       61.624 sec (=   1.027 min)  31.0 %
Geometry relaxation              ...        0.185 sec (=   0.003 min)   0.1 %
                             ****ORCA TERMINATED NORMALLY****
TOTAL RUN TIME: 0 days 0 hours 3 minutes 20 seconds 875 msec
