
                                 *****************
                                 * O   R   C   A *
                                 *****************

                                            #,                                       
                                            ###                                      
                                            ####                                     
                                            #####                                    
                                            ######                                   
                                           ########,                                 
                                     ,,################,,,,,                         
                               ,,#################################,,                 
                          ,,##########################################,,             
                       ,#########################################, ''#####,          
                    ,#############################################,,   '####,        
                  ,##################################################,,,,####,       
                ,###########''''           ''''###############################       
              ,#####''   ,,,,##########,,,,          '''####'''          '####       
            ,##' ,,,,###########################,,,                        '##       
           ' ,,###''''                  '''############,,,                           
         ,,##''                                '''############,,,,        ,,,,,,###''
      ,#''                                            '''#######################'''  
     '                                                          ''''####''''         
             ,#######,   #######,   ,#######,      ##                                
            ,#'     '#,  ##    ##  ,#'     '#,    #''#        ,####,   ,####,        
            ##       ##  ##   ,#'  ##            #'  '#       #'       #'  '#        
            ##       ##  #######   ##           ,######,      #####,   #    #        
            '#,     ,#'  ##    ##  '#,     ,#' ,#      #,     #,   #   #,  ,#        
             '#######'   ##     ##  '#######'  #'      '#     '####' # '####'        



                #########################################################
                #                        -***-                          #
                #          Department of theory and spectroscopy        #
                #                                                       #
                #                      Frank Neese                      #
                #                                                       #
                #     Directorship, Architecture, Infrastructure        #
                #                    SHARK, DRIVERS                     #
                #        Core code/Algorithms in most modules           #
                #                                                       #
                #        Max Planck Institute fuer Kohlenforschung      #
                #                Kaiser Wilhelm Platz 1                 #
                #                 D-45470 Muelheim/Ruhr                 #
                #                      Germany                          #
                #                                                       #
                #                  All rights reserved                  #
                #                        -***-                          #
                #########################################################


                         Program Version 6.0.0  -   RELEASE   -


 With contributions from (in alphabetic order):
   Daniel Aravena         : Magnetic Suceptibility
   Michael Atanasov       : Ab Initio Ligand Field Theory (pilot matlab implementation)
   Alexander A. Auer      : GIAO ZORA, VPT2 properties, NMR spectrum
   Ute Becker             : All parallelization in ORCA, NUMFREQ, NUMCALC
   Giovanni Bistoni       : ED, misc. LED, open-shell LED, HFLD
   Martin Brehm           : Molecular dynamics
   Dmytro Bykov           : pre 5.0 version of the SCF Hessian
   Marcos Casanova-Páez   : Triplet and SCS-CIS(D). UHF-(DLPNO)-IP/EA/STEOM-CCSD. UHF-CVS-IP/STEOM-CCSD
   Vijay G. Chilkuri      : MRCI spin determinant printing, contributions to CSF-ICE
   Pauline Colinet        : FMM embedding
   Dipayan Datta          : RHF DLPNO-CCSD density
   Achintya Kumar Dutta   : EOM-CC, STEOM-CC
   Nicolas Foglia         : Exact transition moments, OPA infrastructure, MCD improvements
   Dmitry Ganyushin       : Spin-Orbit,Spin-Spin,Magnetic field MRCI
   Miquel Garcia          : C-PCM and meta-GGA Hessian, CCSD/C-PCM, Gaussian charge scheme
   Tiago L. C. Gouveia    : GS-ROHF, GS-ROCIS
   Yang Guo               : DLPNO-NEVPT2, F12-NEVPT2, CIM, IAO-localization
   Andreas Hansen         : Spin unrestricted coupled pair/coupled cluster methods
   Ingolf Harden          : AUTO-CI MPn and infrastructure 
   Benjamin Helmich-Paris : MC-RPA, TRAH-(SCF,CASSCF), AVAS, COSX integrals, SCF dyn. polar.
   Lee Huntington         : MR-EOM, pCC
   Robert Izsak           : Overlap fitted RIJCOSX, COSX-SCS-MP3, EOM
   Riya Kayal             : Wick's Theorem for AUTO-CI, AUTO-CI UHF-CCSDT
   Emily Kempfer          : AUTO-CI, RHF CISDT and CCSDT
   Christian Kollmar      : KDIIS, OOCD, Brueckner-CCSD(T), CCSD density, CASPT2, CASPT2-K, improved NEVPT2
   Axel Koslowski         : Symmetry handling
   Simone Kossmann        : Meta GGA functionals, TD-DFT gradient, OOMP2, (MP2 Hessian; deprecated post 5.0)
   Lucas Lang             : DCDCAS
   Marvin Lechner         : AUTO-CI (C++ implementation), FIC-MRCC
   Spencer Leger          : CASSCF response
   Dagmar Lenk            : GEPOL surface, SMD, ORCA-2-JSON
   Dimitrios Liakos       : Extrapolation schemes; Compound Job, initial MDCI parallelization
   Dimitrios Manganas     : Further ROCIS development; embedding schemes. LFT, Crystal Embedding
   Dimitrios Pantazis     : SARC Basis sets
   Anastasios Papadopoulos: AUTO-CI, single reference methods and gradients
   Taras Petrenko         : pre 6.0 DFT Hessian and TD-DFT gradient, (ASA, deprecated), ECA, 1-Electron XAS/XES, NRVS
   Peter Pinski           : DLPNO-MP2, DLPNO-MP2 Gradient
   Christoph Reimann      : Effective Core Potentials
   Marius Retegan         : Local ZFS, SOC
   Christoph Riplinger    : Optimizer, TS searches, QM/MM, DLPNO-CCSD(T), (RO)-DLPNO pert. Triples
   Michael Roemelt        : Original ROCIS implementation
   Masaaki Saitow         : Open-shell DLPNO-CCSD energy and density
   Barbara Sandhoefer     : DKH picture change effects
   Kantharuban Sivalingam : CASSCF convergence/infrastructure, NEVPT2 and variants, FIC-MRCI
   Bernardo de Souza      : ESD, SOC TD-DFT
   Georgi Stoychev        : AutoAux, RI-MP2 NMR, DLPNO-MP2 response, X2C
   Van Anh Tran           : RI-MP2 g-tensors
   Willem Van den Heuvel  : Paramagnetic NMR
   Zikuan Wang            : NOTCH, Electric field optimization 
   Frank Wennmohs         : Technical directorship and infrastructure
   Hang Xu                : AUTO-CI-Response properties 


 We gratefully acknowledge several colleagues who have allowed us to
 interface, adapt or use parts of their codes:
   Stefan Grimme, W. Hujo, H. Kruse, P. Pracht,  : VdW corrections, initial TS optimization,
                  C. Bannwarth, S. Ehlert,         DFT functionals, gCP, sTDA/sTD-DF
                  L. Wittmann, M. Mueller
   Ed Valeev, F. Pavosevic, A. Kumar             : LibInt (2-el integral package), F12 methods
   Garnet Chan, S. Sharma, J. Yang, R. Olivares  : DMRG
   Ulf Ekstrom                                   : XCFun DFT Library
   Mihaly Kallay                                 : mrcc  (arbitrary order and MRCC methods)
   Frank Weinhold                                : gennbo (NPA and NBO analysis)
   Simon Mueller                                 : openCOSMO-RS
   Christopher J. Cramer and Donald G. Truhlar   : smd solvation model
   Lars Goerigk                                  : TD-DFT with DH, B97 family of functionals
   V. Asgeirsson, H. Jonsson                     : NEB implementation
   FAccTs GmbH                                   : IRC, NEB, NEB-TS, DLPNO-Multilevel, CI-OPT
                                                   MM, QMMM, 2- and 3-layer-ONIOM, Crystal-QMMM,
                                                   LR-CPCM, SF, NACMEs, symmetry and pop. for TD-DFT,
                                                   nearIR, NL-DFT gradient (VV10), updates on ESD,
                                                   ML-optimized integration grids, MBIS, APM,
                                                   GOAT, DOCKER, SOLVATOR, interface openCOSMO-RS
   S Lehtola, MJT Oliveira, MAL Marques          : LibXC Library
   Liviu Ungur et al                             : ANISO software


 Your calculation uses the libint2 library for the computation of 2-el integrals
 For citations please refer to: http://libint.valeyev.net

 Your ORCA version has been built with support for libXC version: 6.2.2
 For citations please refer to: https://libxc.gitlab.io

 This ORCA versions uses:
   CBLAS   interface :  Fast vector & matrix operations
   LAPACKE interface :  Fast linear algebra routines
   Shared memory     :  Shared parallel matrices


Your calculation utilizes the atom-pairwise dispersion correction
with the Becke-Johnson damping scheme (D3BJ)


Warning: RI is on but no J-basis has been assigned. Assigning Def2/J (nothing to worry about!)
================================================================================

----- Orbital basis set information -----
Your calculation utilizes the basis: def2-SVP
   F. Weigend and R. Ahlrichs, Phys. Chem. Chem. Phys. 7, 3297 (2005).

----- AuxJ basis set information -----
Your calculation utilizes the auxiliary basis: def2/J
   F. Weigend, Phys. Chem. Chem. Phys. 8, 1057 (2006).

================================================================================
                                        WARNINGS
                       Please study these warnings very carefully!
================================================================================


WARNING: Geometry Optimization
  ===> : Switching off AutoStart
         For restart on a previous wavefunction, please use MOREAD

================================================================================
                                       INPUT FILE
================================================================================
NAME = data/geom_opt_P_BP86/120481/120481.inp
|  1> ! RI BP86 def2-SVP D3BJ TIGHTSCF Opt
|  2> %pal
|  3> nprocs 6
|  4> end
|  5> 
|  6> * xyz 0 1
|  7> C      4.586660   -1.223055    0.850284
|  8> N      3.307638   -0.557506    0.587904
|  9> C      3.190267    0.635078    1.431106
| 10> C      3.193232   -0.233499   -0.843983
| 11> C      1.814418    0.291121   -1.272147
| 12> C      0.682804   -0.682737   -0.928467
| 13> P     -0.955876   -0.103563   -1.574306
| 14> C     -2.153549   -1.282760   -0.850162
| 15> C     -3.497273   -0.897906   -0.697293
| 16> C     -4.446929   -1.775166   -0.165727
| 17> C     -4.072818   -3.060871    0.210774
| 18> C     -2.752331   -3.469397    0.048795
| 19> C     -1.802929   -2.589869   -0.483088
| 20> C     -1.237388    1.382231   -0.548916
| 21> C     -1.434751    2.615051   -1.188411
| 22> C     -1.643134    3.780188   -0.445797
| 23> C     -1.656624    3.727660    0.945883
| 24> C     -1.462602    2.511116    1.595465
| 25> C     -1.253826    1.346103    0.853059
| 26> H      4.661925   -1.511676    1.904731
| 27> H      4.666385   -2.148338    0.268734
| 28> H      5.443181   -0.584825    0.604365
| 29> H      2.196345    1.085266    1.346747
| 30> H      3.940058    1.393966    1.180198
| 31> H      3.311173    0.370918    2.488072
| 32> H      3.389899   -1.140712   -1.430726
| 33> H      3.958280    0.498158   -1.135699
| 34> H      1.840293    0.457608   -2.357433
| 35> H      1.634588    1.274776   -0.823335
| 36> H      0.908553   -1.650700   -1.390037
| 37> H      0.628758   -0.840759    0.153515
| 38> H     -3.822126    0.098884   -0.990570
| 39> H     -5.477644   -1.450771   -0.050604
| 40> H     -4.809526   -3.745018    0.622696
| 41> H     -2.457005   -4.476516    0.331534
| 42> H     -0.787874   -2.955993   -0.605893
| 43> H     -1.428166    2.680020   -2.274526
| 44> H     -1.795557    4.727453   -0.956190
| 45> H     -1.820452    4.633323    1.523651
| 46> H     -1.476078    2.464856    2.681168
| 47> H     -1.110002    0.407861    1.384630
| 48> **                         ****END OF INPUT****
================================================================================

                       *****************************
                       * Geometry Optimization Run *
                       *****************************

Geometry optimization settings:
Update method            Update   .... BFGS
Choice of coordinates    CoordSys .... (2022) Redundant Internals
Initial Hessian          InHess   .... Almloef's Model
Max. no of cycles        MaxIter  .... 123

Convergence Tolerances:
Energy Change            TolE     ....  5.0000e-06 Eh
Max. Gradient            TolMAXG  ....  3.0000e-04 Eh/bohr
RMS Gradient             TolRMSG  ....  1.0000e-04 Eh/bohr
Max. Displacement        TolMAXD  ....  4.0000e-03 bohr
RMS Displacement         TolRMSD  ....  2.0000e-03 bohr
Strict Convergence                .... False

------------------------------------------------------------------------------
                        ORCA OPTIMIZATION COORDINATE SETUP
------------------------------------------------------------------------------

The optimization will be done in redundant internal coordinates (2022)
Making redundant internal coordinates   ...  (2022 redundants) done
Evaluating the initial hessian          ...  (Almloef) done
Evaluating the coordinates              ...  done
Calculating the B-matrix                .... done
Calculating the G-matrix                .... done
Diagonalizing the G-matrix              .... done
Small eigenvalue found = 2.334e-03
Small eigenvalue found = 3.593e-03
Small eigenvalue found = 6.525e-03
Small eigenvalue found = 1.209e-02
Small eigenvalue found = 1.885e-02
Small eigenvalue found = 2.311e-02
The first mode is                       ....   85
The number of degrees of freedom        ....  117

    -----------------------------------------------------------------
                    Redundant Internal Coordinates


    -----------------------------------------------------------------
         Definition                    Initial Value    Approx d2E/dq
    -----------------------------------------------------------------
      1. B(N   1,C   0)                  1.4655         0.424050   
      2. B(C   2,N   1)                  1.4653         0.424408   
      3. B(C   3,N   1)                  1.4725         0.413229   
      4. B(C   4,C   3)                  1.5361         0.365263   
      5. B(C   5,C   4)                  1.5320         0.370822   
      6. B(P   6,C   5)                  1.8541         0.381709   
      7. B(C   7,P   6)                  1.8301         0.416928   
      8. B(C   8,C   7)                  1.4061         0.588946   
      9. B(C   9,C   8)                  1.3979         0.607028   
     10. B(C  10,C   9)                  1.3910         0.622614   
     11. B(C  11,C  10)                  1.3917         0.620917   
     12. B(C  12,C  11)                  1.3992         0.603975   
     13. B(C  12,C   7)                  1.4022         0.597376   
     14. B(C  13,P   6)                  1.8271         0.421583   
     15. B(C  14,C  13)                  1.4028         0.596173   
     16. B(C  15,C  14)                  1.3973         0.608267   
     17. B(C  16,C  15)                  1.3927         0.618547   
     18. B(C  17,C  16)                  1.3927         0.618657   
     19. B(C  18,C  17)                  1.3971         0.608614   
     20. B(C  18,C  13)                  1.4025         0.596674   
     21. B(H  19,C   0)                  1.0958         0.352480   
     22. B(H  20,C   0)                  1.0958         0.352551   
     23. B(H  21,C   0)                  1.0961         0.352116   
     24. B(H  22,C   2)                  1.0944         0.354353   
     25. B(H  23,C   2)                  1.0959         0.352346   
     26. B(H  24,C   2)                  1.0962         0.352037   
     27. B(H  25,C   3)                  1.0982         0.349451   
     28. B(H  26,C   3)                  1.0981         0.349604   
     29. B(H  27,C   4)                  1.0983         0.349303   
     30. B(H  28,C   4)                  1.0961         0.352172   
     31. B(H  29,C   5)                  1.0959         0.352400   
     32. B(H  30,C   5)                  1.0948         0.353812   
     33. B(H  31,C   8)                  1.0886         0.361907   
     34. B(H  32,C   9)                  1.0867         0.364528   
     35. B(H  33,C  10)                  1.0865         0.364764   
     36. B(H  34,C  11)                  1.0869         0.364165   
     37. B(H  35,C  12)                  1.0860         0.365388   
     38. B(H  36,C  14)                  1.0881         0.362654   
     39. B(H  37,C  15)                  1.0868         0.364413   
     40. B(H  38,C  16)                  1.0867         0.364514   
     41. B(H  39,C  17)                  1.0868         0.364396   
     42. B(H  40,C  18)                  1.0879         0.362874   
     43. A(N   1,C   0,H  19)          110.5996         0.328014   
     44. A(H  19,C   0,H  20)          106.4563         0.288904   
     45. A(H  20,C   0,H  21)          108.4063         0.288857   
     46. A(N   1,C   0,H  21)          112.1719         0.327958   
     47. A(H  19,C   0,H  21)          108.3956         0.288848   
     48. A(N   1,C   0,H  20)          110.6076         0.328025   
     49. A(C   2,N   1,C   3)          111.9788         0.373176   
     50. A(C   0,N   1,C   2)          109.6643         0.374844   
     51. A(C   0,N   1,C   3)          109.9883         0.373122   
     52. A(N   1,C   2,H  24)          110.4816         0.327992   
     53. A(H  22,C   2,H  24)          105.8807         0.289078   
     54. A(H  23,C   2,H  24)          108.1901         0.288821   
     55. A(H  22,C   2,H  23)          108.5939         0.289117   
     56. A(N   1,C   2,H  23)          112.1507         0.328039   
     57. A(N   1,C   2,H  22)          111.2968         0.328347   
     58. A(C   4,C   3,H  25)          107.0951         0.321538   
     59. A(C   4,C   3,H  26)          108.8910         0.321561   
     60. A(H  25,C   3,H  26)          106.4835         0.288135   
     61. A(N   1,C   3,H  26)          110.5371         0.326179   
     62. A(N   1,C   3,H  25)          108.8962         0.326156   
     63. A(N   1,C   3,C   4)          114.5771         0.365964   
     64. A(H  27,C   4,H  28)          105.8103         0.288446   
     65. A(C   5,C   4,H  28)          110.9426         0.322744   
     66. A(C   5,C   4,H  27)          109.5992         0.322312   
     67. A(C   3,C   4,H  27)          107.8216         0.321516   
     68. A(C   3,C   4,C   5)          112.5431         0.361501   
     69. A(C   3,C   4,H  28)          109.8544         0.321947   
     70. A(P   6,C   5,H  30)          110.2248         0.344539   
     71. A(H  29,C   5,H  30)          107.3936         0.289055   
     72. A(C   4,C   5,H  30)          110.4826         0.322990   
     73. A(C   4,C   5,P   6)          112.0928         0.387615   
     74. A(C   4,C   5,H  29)          108.3504         0.322779   
     75. A(P   6,C   5,H  29)          108.1350         0.344308   
     76. A(C   5,P   6,C   7)          103.8444         0.421695   
     77. A(C   7,P   6,C  13)          101.5999         0.429262   
     78. A(C   5,P   6,C  13)          101.2276         0.422533   
     79. A(C   8,C   7,C  12)          117.7515         0.427218   
     80. A(P   6,C   7,C  12)          122.7226         0.428358   
     81. A(P   6,C   7,C   8)          119.4763         0.427268   
     82. A(C   9,C   8,H  31)          118.3169         0.351947   
     83. A(C   7,C   8,H  31)          120.4306         0.350153   
     84. A(C   7,C   8,C   9)          121.2524         0.428448   
     85. A(C   8,C   9,H  32)          119.8232         0.352376   
     86. A(C  10,C   9,H  32)          120.1568         0.353892   
     87. A(C   8,C   9,C  10)          120.0198         0.432746   
     88. A(C   9,C  10,H  33)          120.1514         0.353931   
     89. A(C   9,C  10,C  11)          119.6716         0.434510   
     90. A(C  11,C  10,H  33)          120.1755         0.353767   
     91. A(C  12,C  11,H  34)          119.7979         0.352017   
     92. A(C  10,C  11,H  34)          119.9678         0.353669   
     93. A(C  10,C  11,C  12)          120.2336         0.432142   
     94. A(C  11,C  12,H  35)          117.7265         0.352216   
     95. A(C   7,C  12,C  11)          121.0506         0.429153   
     96. A(C   7,C  12,H  35)          121.2223         0.351563   
     97. A(C  14,C  13,C  18)          118.4693         0.428063   
     98. A(P   6,C  13,C  18)          122.8096         0.429121   
     99. A(P   6,C  13,C  14)          118.7189         0.429057   
    100. A(C  13,C  14,H  36)          120.4432         0.350997   
    101. A(C  13,C  14,C  15)          120.7655         0.429543   
    102. A(C  15,C  14,H  36)          118.7912         0.352191   
    103. A(C  14,C  15,C  16)          120.0699         0.432395   
    104. A(C  16,C  15,H  37)          120.0534         0.353481   
    105. A(C  14,C  15,H  37)          119.8767         0.352479   
    106. A(C  15,C  16,C  17)          119.8457         0.433714   
    107. A(C  17,C  16,H  38)          120.0679         0.353508   
    108. A(C  15,C  16,H  38)          120.0863         0.353497   
    109. A(C  16,C  17,C  18)          120.0902         0.432453   
    110. A(C  18,C  17,H  39)          119.8156         0.352510   
    111. A(C  16,C  17,H  39)          120.0940         0.353488   
    112. A(C  13,C  18,C  17)          120.7594         0.429652   
    113. A(C  17,C  18,H  40)          118.6366         0.352261   
    114. A(C  13,C  18,H  40)          120.6030         0.351083   
    115. D(C   2,N   1,C   0,H  21)    -62.0148         0.015332   
    116. D(C   3,N   1,C   0,H  19)   -177.3024         0.015332   
    117. D(C   3,N   1,C   0,H  20)    -59.6143         0.015332   
    118. D(C   2,N   1,C   0,H  20)    176.8196         0.015332   
    119. D(C   2,N   1,C   0,H  19)     59.1314         0.015332   
    120. D(H  22,C   2,N   1,C   3)     64.4998         0.015357   
    121. D(H  23,C   2,N   1,C   0)     65.0061         0.015357   
    122. D(H  24,C   2,N   1,C   0)    -55.7808         0.015357   
    123. D(H  23,C   2,N   1,C   3)    -57.3834         0.015357   
    124. D(H  22,C   2,N   1,C   0)   -173.1107         0.015357   
    125. D(H  25,C   3,N   1,C   2)    174.2764         0.014564   
    126. D(H  26,C   3,N   1,C   0)    -64.5752         0.014564   
    127. D(C   4,C   3,N   1,C   0)    171.9534         0.014564   
    128. D(C   4,C   3,N   1,C   2)    -65.8419         0.014564   
    129. D(H  25,C   3,N   1,C   0)     52.0717         0.014564   
    130. D(H  27,C   4,C   3,H  25)    -56.9002         0.010683   
    131. D(H  27,C   4,C   3,N   1)   -177.7799         0.010683   
    132. D(H  27,C   4,C   3,H  26)     57.8711         0.010683   
    133. D(C   5,C   4,C   3,H  26)    178.8647         0.010683   
    134. D(C   5,C   4,C   3,H  25)     64.0934         0.010683   
    135. D(C   5,C   4,C   3,N   1)    -56.7864         0.010683   
    136. D(H  29,C   5,C   4,H  27)     63.9435         0.010990   
    137. D(H  29,C   5,C   4,C   3)    -56.0271         0.010990   
    138. D(P   6,C   5,C   4,H  28)     61.1813         0.010990   
    139. D(P   6,C   5,C   4,H  27)    -55.3023         0.010990   
    140. D(H  29,C   5,C   4,H  28)   -179.5729         0.010990   
    141. D(P   6,C   5,C   4,C   3)   -175.2730         0.010990   
    142. D(C  13,P   6,C   5,C   4)    -67.3187         0.003467   
    143. D(C   7,P   6,C   5,H  30)    -48.8868         0.003467   
    144. D(C   7,P   6,C   5,H  29)     68.2358         0.003467   
    145. D(C   7,P   6,C   5,C   4)   -172.3920         0.003467   
    146. D(C  13,P   6,C   5,H  29)    173.3091         0.003467   
    147. D(C  12,C   7,P   6,C  13)   -131.0270         0.003660   
    148. D(C  12,C   7,P   6,C   5)    -26.2355         0.003660   
    149. D(C   8,C   7,P   6,C  13)     51.5934         0.003660   
    150. D(C   8,C   7,P   6,C   5)    156.3848         0.003660   
    151. D(H  31,C   8,C   7,C  12)   -178.5569         0.023866   
    152. D(H  31,C   8,C   7,P   6)     -1.0478         0.023866   
    153. D(C   9,C   8,C   7,C  12)      1.6014         0.023866   
    154. D(C   9,C   8,C   7,P   6)    179.1105         0.023866   
    155. D(H  32,C   9,C   8,H  31)     -0.3265         0.025435   
    156. D(H  32,C   9,C   8,C   7)    179.5185         0.025435   
    157. D(C  10,C   9,C   8,H  31)    179.4875         0.025435   
    158. D(C  10,C   9,C   8,C   7)     -0.6675         0.025435   
    159. D(H  33,C  10,C   9,H  32)     -0.0890         0.026838   
    160. D(H  33,C  10,C   9,C   8)   -179.9023         0.026838   
    161. D(C  11,C  10,C   9,H  32)    179.4780         0.026838   
    162. D(C  11,C  10,C   9,C   8)     -0.3353         0.026838   
    163. D(H  34,C  11,C  10,H  33)      0.2179         0.026683   
    164. D(H  34,C  11,C  10,C   9)   -179.3490         0.026683   
    165. D(C  12,C  11,C  10,H  33)    179.9219         0.026683   
    166. D(C  12,C  11,C  10,C   9)      0.3550         0.026683   
    167. D(H  35,C  12,C  11,H  34)      0.6230         0.025166   
    168. D(C   7,C  12,C  11,H  34)   -179.6662         0.025166   
    169. D(C   7,C  12,C  11,C  10)      0.6293         0.025166   
    170. D(H  35,C  12,C   7,C   8)    178.1217         0.024589   
    171. D(H  35,C  12,C   7,P   6)      0.6993         0.024589   
    172. D(H  35,C  12,C  11,C  10)   -179.0814         0.025166   
    173. D(C  11,C  12,C   7,C   8)     -1.5789         0.024589   
    174. D(C  11,C  12,C   7,P   6)   -179.0013         0.024589   
    175. D(C  18,C  13,P   6,C   5)    -56.8027         0.003710   
    176. D(C  14,C  13,P   6,C   7)   -130.5030         0.003710   
    177. D(C  14,C  13,P   6,C   5)    122.6517         0.003710   
    178. D(C  18,C  13,P   6,C   7)     50.0426         0.003710   
    179. D(H  36,C  14,C  13,C  18)    179.9953         0.024485   
    180. D(H  36,C  14,C  13,P   6)      0.5169         0.024485   
    181. D(C  15,C  14,C  13,C  18)     -0.0102         0.024485   
    182. D(C  15,C  14,C  13,P   6)   -179.4885         0.024485   
    183. D(H  37,C  15,C  14,H  36)      0.0596         0.025545   
    184. D(H  37,C  15,C  14,C  13)   -179.9351         0.025545   
    185. D(C  16,C  15,C  14,H  36)   -179.9941         0.025545   
    186. D(C  16,C  15,C  14,C  13)      0.0112         0.025545   
    187. D(H  38,C  16,C  15,H  37)      0.0569         0.026467   
    188. D(H  38,C  16,C  15,C  14)   -179.8893         0.026467   
    189. D(C  17,C  16,C  15,H  37)    179.9147         0.026467   
    190. D(C  17,C  16,C  15,C  14)     -0.0315         0.026467   
    191. D(H  39,C  17,C  16,H  38)      0.0885         0.026477   
    192. D(H  39,C  17,C  16,C  15)   -179.7693         0.026477   
    193. D(C  18,C  17,C  16,H  38)    179.9088         0.026477   
    194. D(C  18,C  17,C  16,C  15)      0.0510         0.026477   
    195. D(H  40,C  18,C  17,H  39)      0.1343         0.025576   
    196. D(H  40,C  18,C  17,C  16)   -179.6866         0.025576   
    197. D(C  13,C  18,C  17,H  39)    179.7702         0.025576   
    198. D(C  13,C  18,C  17,C  16)     -0.0506         0.025576   
    199. D(H  40,C  18,C  13,C  14)    179.6586         0.024529   
    200. D(H  40,C  18,C  13,P   6)     -0.8857         0.024529   
    201. D(C  17,C  18,C  13,C  14)      0.0298         0.024529   
    202. D(C  17,C  18,C  13,P   6)    179.4855         0.024529   
    -----------------------------------------------------------------

Number of atoms                         .... 41
Number of degrees of freedom            .... 202


         *************************************************************
         *                GEOMETRY OPTIMIZATION CYCLE   1            *
         *************************************************************
---------------------------------
CARTESIAN COORDINATES (ANGSTROEM)
---------------------------------
  C      4.586660   -1.223055    0.850284
  N      3.307638   -0.557506    0.587904
  C      3.190267    0.635078    1.431106
  C      3.193232   -0.233499   -0.843983
  C      1.814418    0.291121   -1.272147
  C      0.682804   -0.682737   -0.928467
  P     -0.955876   -0.103563   -1.574306
  C     -2.153549   -1.282760   -0.850162
  C     -3.497273   -0.897906   -0.697293
  C     -4.446929   -1.775166   -0.165727
  C     -4.072818   -3.060871    0.210774
  C     -2.752331   -3.469397    0.048795
  C     -1.802929   -2.589869   -0.483088
  C     -1.237388    1.382231   -0.548916
  C     -1.434751    2.615051   -1.188411
  C     -1.643134    3.780188   -0.445797
  C     -1.656624    3.727660    0.945883
  C     -1.462602    2.511116    1.595465
  C     -1.253826    1.346103    0.853059
  H      4.661925   -1.511676    1.904731
  H      4.666385   -2.148338    0.268734
  H      5.443181   -0.584825    0.604365
  H      2.196345    1.085266    1.346747
  H      3.940058    1.393966    1.180198
  H      3.311173    0.370918    2.488072
  H      3.389899   -1.140712   -1.430726
  H      3.958280    0.498158   -1.135699
  H      1.840293    0.457608   -2.357433
  H      1.634588    1.274776   -0.823335
  H      0.908553   -1.650700   -1.390037
  H      0.628758   -0.840759    0.153515
  H     -3.822126    0.098884   -0.990570
  H     -5.477644   -1.450771   -0.050604
  H     -4.809526   -3.745018    0.622696
  H     -2.457005   -4.476516    0.331534
  H     -0.787874   -2.955993   -0.605893
  H     -1.428166    2.680020   -2.274526
  H     -1.795557    4.727453   -0.956190
  H     -1.820452    4.633323    1.523651
  H     -1.476078    2.464856    2.681168
  H     -1.110002    0.407861    1.384630

----------------------------
CARTESIAN COORDINATES (A.U.)
----------------------------
  NO LB      ZA    FRAG     MASS         X           Y           Z
   0 C     6.0000    0    12.011    8.667531   -2.311239    1.606804
   1 N     7.0000    0    14.007    6.250530   -1.053534    1.110978
   2 C     6.0000    0    12.011    6.028731    1.200123    2.704398
   3 C     6.0000    0    12.011    6.034334   -0.441249   -1.594897
   4 C     6.0000    0    12.011    3.428753    0.550139   -2.404009
   5 C     6.0000    0    12.011    1.290313   -1.290186   -1.754548
   6 P    15.0000    0    30.974   -1.806344   -0.195706   -2.975007
   7 C     6.0000    0    12.011   -4.069618   -2.424065   -1.606573
   8 C     6.0000    0    12.011   -6.608888   -1.696796   -1.317693
   9 C     6.0000    0    12.011   -8.403478   -3.354578   -0.313179
  10 C     6.0000    0    12.011   -7.696511   -5.784208    0.398305
  11 C     6.0000    0    12.011   -5.201152   -6.556210    0.092209
  12 C     6.0000    0    12.011   -3.407042   -4.894143   -0.912904
  13 C     6.0000    0    12.011   -2.338324    2.612038   -1.037301
  14 C     6.0000    0    12.011   -2.711286    4.941730   -2.245771
  15 C     6.0000    0    12.011   -3.105073    7.143520   -0.842434
  16 C     6.0000    0    12.011   -3.130566    7.044257    1.787460
  17 C     6.0000    0    12.011   -2.763917    4.745322    3.014992
  18 C     6.0000    0    12.011   -2.369388    2.543766    1.612048
  19 H     1.0000    0     1.008    8.809762   -2.856654    3.599420
  20 H     1.0000    0     1.008    8.818190   -4.059770    0.507834
  21 H     1.0000    0     1.008   10.286121   -1.105159    1.142084
  22 H     1.0000    0     1.008    4.150491    2.050856    2.544983
  23 H     1.0000    0     1.008    7.445631    2.634214    2.230251
  24 H     1.0000    0     1.008    6.257210    0.700933    4.701775
  25 H     1.0000    0     1.008    6.405981   -2.155633   -2.703680
  26 H     1.0000    0     1.008    7.480065    0.941382   -2.146160
  27 H     1.0000    0     1.008    3.477650    0.864754   -4.454903
  28 H     1.0000    0     1.008    3.088924    2.408978   -1.555878
  29 H     1.0000    0     1.008    1.716916   -3.119371   -2.626789
  30 H     1.0000    0     1.008    1.188180   -1.588804    0.290101
  31 H     1.0000    0     1.008   -7.222771    0.186864   -1.871906
  32 H     1.0000    0     1.008  -10.351247   -2.741560   -0.095628
  33 H     1.0000    0     1.008   -9.088687   -7.077058    1.176725
  34 H     1.0000    0     1.008   -4.643067   -8.459389    0.626508
  35 H     1.0000    0     1.008   -1.488866   -5.586017   -1.144972
  36 H     1.0000    0     1.008   -2.698843    5.064504   -4.298231
  37 H     1.0000    0     1.008   -3.393111    8.933591   -1.806937
  38 H     1.0000    0     1.008   -3.440156    8.755712    2.879283
  39 H     1.0000    0     1.008   -2.789383    4.657903    5.066673
  40 H     1.0000    0     1.008   -2.097600    0.770746    2.616571

--------------------------------
INTERNAL COORDINATES (ANGSTROEM)
--------------------------------
 C      0   0   0     0.000000000000     0.00000000     0.00000000
 N      1   0   0     1.465501965978     0.00000000     0.00000000
 C      2   1   0     1.465272043513   109.66427429     0.00000000
 C      2   1   3     1.472538505321   109.98832029   123.56613676
 C      4   2   1     1.536124539838   114.57714181   171.95338569
 C      5   4   2     1.532013574209   112.54309693   303.21363367
 P      6   5   4     1.854136639678   112.09280551   184.72704987
 C      7   6   5     1.830112213083   103.84437145   187.60804334
 C      8   7   6     1.406085246581   119.47626144   156.38483471
 C      9   8   7     1.397853367951   121.25235774   179.11046544
 C     10   9   8     1.390952691628   120.01980512   359.33248149
 C     11  10   9     1.391695586788   119.67162150   359.66466775
 C     12  11  10     1.399225923887   120.23363482     0.35498430
 C      7   6   5     1.827089890695   101.22761793   292.68131196
 C     14   7   6     1.402765540350   118.71891812   122.65170803
 C     15  14   7     1.397298556664   120.76553993   180.51149803
 C     16  15  14     1.392736297109   120.06990824     0.00000000
 C     17  16  15     1.392688269192   119.84566712   359.96849437
 C     18  17  16     1.397143291571   120.09016523     0.05101230
 H      1   2   3     1.095821781895   110.59962322    59.13144902
 H      1   2   3     1.095766904142   110.60761260   176.81955573
 H      1   2   3     1.096103056698   112.17189626   297.98515959
 H      3   2   1     1.094379558613   111.29679528   186.88932880
 H      3   2   1     1.095925346312   112.15069082    65.00607368
 H      3   2   1     1.096164171825   110.48158205   304.21924002
 H      4   2   1     1.098171518619   108.89624076    52.07171724
 H      4   2   1     1.098052199401   110.53713488   295.42483611
 H      5   4   2     1.098286455616   107.82161582   182.22008447
 H      5   4   2     1.096060308226   109.85440867    67.36286254
 H      6   5   4     1.095884047365   108.35035036   303.97285725
 H      6   5   4     1.094795401399   110.48262102    61.36676942
 H      9   8   7     1.088637301601   120.43055732   358.95220814
 H     10   9   8     1.086673286862   119.82317169   179.51849069
 H     11  10   9     1.086496907017   120.15144579   180.09768366
 H     12  11  10     1.086944096335   119.96777208   180.65103671
 H     13  12  11     1.086031539333   117.72645856   180.91859186
 H     15  14   7     1.088076342180   120.44323288     0.51690299
 H     16  15  14     1.086758835070   119.87667393   180.06494578
 H     17  16  15     1.086683461260   120.08631990   180.11072505
 H     18  17  16     1.086771638563   120.09397072   180.23068876
 H     19  18  17     1.087911357410   118.63664180   180.31343104

---------------------------
INTERNAL COORDINATES (A.U.)
---------------------------
 C      0   0   0     0.000000000000     0.00000000     0.00000000
 N      1   0   0     2.769397364421     0.00000000     0.00000000
 C      2   1   0     2.768962873931   109.66427429     0.00000000
 C      2   1   3     2.782694496711   109.98832029   123.56613676
 C      4   2   1     2.902854687889   114.57714181   171.95338569
 C      5   4   2     2.895086088704   112.54309693   303.21363367
 P      6   5   4     3.503810463861   112.09280551   184.72704987
 C      7   6   5     3.458410877071   103.84437145   187.60804334
 C      8   7   6     2.657116036985   119.47626144   156.38483471
 C      9   8   7     2.641560040807   121.25235774   179.11046544
 C     10   9   8     2.628519652417   120.01980512   359.33248149
 C     11  10   9     2.629923520817   119.67162150   359.66466775
 C     12  11  10     2.644153795629   120.23363482     0.35498430
 C      7   6   5     3.452699515470   101.22761793   292.68131196
 C     14   7   6     2.650842701364   118.71891812   122.65170803
 C     15  14   7     2.640511599418   120.76553993   180.51149803
 C     16  15  14     2.631890178307   120.06990824     0.00000000
 C     17  16  15     2.631799418697   119.84566712   359.96849437
 C     18  17  16     2.640218190914   120.09016523     0.05101230
 H      1   2   3     2.070803059367   110.59962322    59.13144902
 H      1   2   3     2.070699355444   110.60761260   176.81955573
 H      1   2   3     2.071334591713   112.17189626   297.98515959
 H      3   2   1     2.068077652339   111.29679528   186.88932880
 H      3   2   1     2.070998767752   112.15069082    65.00607368
 H      3   2   1     2.071450082565   110.48158205   304.21924002
 H      4   2   1     2.075243418263   108.89624076    52.07171724
 H      4   2   1     2.075017937617   110.53713488   295.42483611
 H      5   4   2     2.075460617710   107.82161582   182.22008447
 H      5   4   2     2.071253808809   109.85440867    67.36286254
 H      6   5   4     2.070920724054   108.35035036   303.97285725
 H      6   5   4     2.068863481320   110.48262102    61.36676942
 H      9   8   7     2.057226359198   120.43055732   358.95220814
 H     10   9   8     2.053514909217   119.82317169   179.51849069
 H     11  10   9     2.053181599614   120.15144579   180.09768366
 H     12  11  10     2.054026664956   119.96777208   180.65103671
 H     13  12  11     2.052302182140   117.72645856   180.91859186
 H     15  14   7     2.056166299518   120.44323288     0.51690299
 H     16  15  14     2.053676571902   119.87667393   180.06494578
 H     17  16  15     2.053534136044   120.08631990   180.11072505
 H     18  17  16     2.053700766997   120.09397072   180.23068876
 H     19  18  17     2.055854523487   118.63664180   180.31343104

---------------------
BASIS SET INFORMATION
---------------------
There are 4 groups of distinct atoms

 Group   1 Type C   : 7s4p1d contracted to 3s2p1d pattern {511/31/1}
 Group   2 Type N   : 7s4p1d contracted to 3s2p1d pattern {511/31/1}
 Group   3 Type P   : 10s7p1d contracted to 4s3p1d pattern {5311/511/1}
 Group   4 Type H   : 4s1p contracted to 2s1p pattern {31/1}

Atom   0C    basis set group =>   1
Atom   1N    basis set group =>   2
Atom   2C    basis set group =>   1
Atom   3C    basis set group =>   1
Atom   4C    basis set group =>   1
Atom   5C    basis set group =>   1
Atom   6P    basis set group =>   3
Atom   7C    basis set group =>   1
Atom   8C    basis set group =>   1
Atom   9C    basis set group =>   1
Atom  10C    basis set group =>   1
Atom  11C    basis set group =>   1
Atom  12C    basis set group =>   1
Atom  13C    basis set group =>   1
Atom  14C    basis set group =>   1
Atom  15C    basis set group =>   1
Atom  16C    basis set group =>   1
Atom  17C    basis set group =>   1
Atom  18C    basis set group =>   1
Atom  19H    basis set group =>   4
Atom  20H    basis set group =>   4
Atom  21H    basis set group =>   4
Atom  22H    basis set group =>   4
Atom  23H    basis set group =>   4
Atom  24H    basis set group =>   4
Atom  25H    basis set group =>   4
Atom  26H    basis set group =>   4
Atom  27H    basis set group =>   4
Atom  28H    basis set group =>   4
Atom  29H    basis set group =>   4
Atom  30H    basis set group =>   4
Atom  31H    basis set group =>   4
Atom  32H    basis set group =>   4
Atom  33H    basis set group =>   4
Atom  34H    basis set group =>   4
Atom  35H    basis set group =>   4
Atom  36H    basis set group =>   4
Atom  37H    basis set group =>   4
Atom  38H    basis set group =>   4
Atom  39H    basis set group =>   4
Atom  40H    basis set group =>   4
---------------------------------
AUXILIARY/J BASIS SET INFORMATION
---------------------------------
There are 4 groups of distinct atoms

 Group   1 Type C   : 12s5p4d2f1g contracted to 6s4p3d1f1g pattern {711111/2111/211/2/1}
 Group   2 Type N   : 12s5p4d2f1g contracted to 6s4p3d1f1g pattern {711111/2111/211/2/1}
 Group   3 Type P   : 14s5p5d2f1g contracted to 8s4p3d1f1g pattern {71111111/2111/311/2/1}
 Group   4 Type H   : 5s2p1d contracted to 3s1p1d pattern {311/2/1}

Atom   0C    basis set group =>   1
Atom   1N    basis set group =>   2
Atom   2C    basis set group =>   1
Atom   3C    basis set group =>   1
Atom   4C    basis set group =>   1
Atom   5C    basis set group =>   1
Atom   6P    basis set group =>   3
Atom   7C    basis set group =>   1
Atom   8C    basis set group =>   1
Atom   9C    basis set group =>   1
Atom  10C    basis set group =>   1
Atom  11C    basis set group =>   1
Atom  12C    basis set group =>   1
Atom  13C    basis set group =>   1
Atom  14C    basis set group =>   1
Atom  15C    basis set group =>   1
Atom  16C    basis set group =>   1
Atom  17C    basis set group =>   1
Atom  18C    basis set group =>   1
Atom  19H    basis set group =>   4
Atom  20H    basis set group =>   4
Atom  21H    basis set group =>   4
Atom  22H    basis set group =>   4
Atom  23H    basis set group =>   4
Atom  24H    basis set group =>   4
Atom  25H    basis set group =>   4
Atom  26H    basis set group =>   4
Atom  27H    basis set group =>   4
Atom  28H    basis set group =>   4
Atom  29H    basis set group =>   4
Atom  30H    basis set group =>   4
Atom  31H    basis set group =>   4
Atom  32H    basis set group =>   4
Atom  33H    basis set group =>   4
Atom  34H    basis set group =>   4
Atom  35H    basis set group =>   4
Atom  36H    basis set group =>   4
Atom  37H    basis set group =>   4
Atom  38H    basis set group =>   4
Atom  39H    basis set group =>   4
Atom  40H    basis set group =>   4


           ************************************************************
           *        Program running with 6 parallel MPI-processes     *
           *              working on a common directory               *
           ************************************************************
------------------------------------------------------------------------------
                             ORCA STARTUP CALCULATIONS
                           -- RI-GTO INTEGRALS CHOSEN --
------------------------------------------------------------------------------
------------------------------------------------------------------------------
                   ___                                                        
                  /   \      - P O W E R E D   B Y -                         
                 /     \                                                     
                 |  |  |   _    _      __       _____    __    __             
                 |  |  |  | |  | |    /  \     |  _  \  |  |  /  |          
                  \  \/   | |  | |   /    \    | | | |  |  | /  /          
                 / \  \   | |__| |  /  /\  \   | |_| |  |  |/  /          
                |  |  |   |  __  | /  /__\  \  |    /   |      \           
                |  |  |   | |  | | |   __   |  |    \   |  |\   \          
                \     /   | |  | | |  |  |  |  | |\  \  |  | \   \       
                 \___/    |_|  |_| |__|  |__|  |_| \__\ |__|  \__/        
                                                                              
                      - O R C A' S   B I G   F R I E N D -                    
                                      &                                       
                       - I N T E G R A L  F E E D E R -                       
                                                                              
 v1 FN, 2020, v2 2021, v3 2022-2024                                           
------------------------------------------------------------------------------


----------------------
SHARK INTEGRAL PACKAGE
----------------------

Number of atoms                             ...     41
Number of basis functions                   ...    380
Number of shells                            ...    182
Maximum angular momentum                    ...      2
Integral batch strategy                     ... SHARK/LIBINT Hybrid
RI-J (if used) integral strategy            ... SPLIT-RIJ (Revised 2003 algorithm where possible)
Printlevel                                  ...      1
Contraction scheme used                     ... SEGMENTED contraction
Prescreening option                         ... SCHWARTZ
   Thresh                                   ... 2.500e-11
   Tcut                                     ... 2.500e-12
   Tpresel                                  ... 2.500e-12 
Coulomb Range Separation                    ... NOT USED
Exchange Range Separation                   ... NOT USED
Multipole approximations                    ... NOT USED
Finite Nucleus Model                        ... NOT USED
CABS basis                                  ... NOT available
Auxiliary Coulomb fitting basis             ... AVAILABLE
   # of basis functions in Aux-J            ...   1175
   # of shells in Aux-J                     ...    397
   Maximum angular momentum in Aux-J        ...      4
Auxiliary J/K fitting basis                 ... NOT available
Auxiliary Correlation fitting basis         ... NOT available
Auxiliary 'external' fitting basis          ... NOT available

Checking pre-screening integrals            ... done (  0.0 sec) Dimension = 182
Check shell pair data                       ... done (  0.0 sec)
Shell pair information
Shell pair cut-off parameter TPreSel        ...   2.5e-12
Total number of shell pairs                 ...     16653
Shell pairs after pre-screening             ...     12574
Total number of primitive shell pairs       ...     59663
Primitive shell pairs kept                  ...     29001
          la=0 lb=0:   4126 shell pairs
          la=1 lb=0:   4778 shell pairs
          la=1 lb=1:   1407 shell pairs
          la=2 lb=0:   1380 shell pairs
          la=2 lb=1:    775 shell pairs
          la=2 lb=2:    108 shell pairs

Calculating one electron integrals          ... done (  0.0 sec)
Calculating RI/J V-Matrix + Cholesky decomp.... done (  0.1 sec)
Calculating Nuclear repulsion               ... done (  0.0 sec) ENN=   1501.706656991782 Eh

Diagonalization of the overlap matrix:
Smallest eigenvalue                        ... 2.673e-04
Time for diagonalization                   ...    0.019 sec
Threshold for overlap eigenvalues          ... 1.000e-07
Number of eigenvalues below threshold      ... 0
Time for construction of square roots      ...    0.010 sec
Total time needed                          ...    0.031 sec

-------------------
DFT GRID GENERATION
-------------------

General Integration Accuracy     IntAcc      ... 4.388
Radial Grid Type                 RadialGrid  ... OptM3 with GC (2021)
Angular Grid (max. ang.)         AngularGrid ... 4 (Lebedev-302)
Angular grid pruning method      GridPruning ... 4 (adaptive)
Weight generation scheme         WeightScheme... mBecke (2022)
Basis function cutoff            BFCut       ... 1.0000e-11
Integration weight cutoff        WCut        ... 1.0000e-14
Partially contracted basis set               ... off
Rotationally invariant grid construction     ... off
Angular grids for H and He will be reduced by one unit

Total number of grid points                  ...   184485
Total number of batches                      ...     2904
Average number of points per batch           ...       63
Average number of grid points per atom       ...     4500
Initializing property integral containers    ... done (  0.0 sec)

SHARK setup successfully completed in   1.4 seconds

Maximum memory used throughout the entire STARTUP-calculation: 50.4 MB


           ************************************************************
           *        Program running with 6 parallel MPI-processes     *
           *              working on a common directory               *
           ************************************************************
-------------------------------------------------------------------------------
                                 ORCA GUESS
                   Start orbitals & Density for SCF / CASSCF
-------------------------------------------------------------------------------

------------
SCF SETTINGS
------------
Hamiltonian:
 Density Functional     Method          .... DFT(GTOs)
 Exchange Functional    Exchange        .... B88
   X-Alpha parameter    XAlpha          ....  0.666667
   Becke's b parameter  XBeta           ....  0.004200
 Correlation Functional Correlation     .... P86
 LDA part of GGA corr.  LDAOpt          .... PW91-LDA
 Gradients option       PostSCFGGA      .... off
   NL short-range parameter             ....  4.400000
 RI-approximation to the Coulomb term is turned on
   Number of AuxJ basis functions       .... 1175


General Settings:
 Integral files         IntName         .... data/geom_opt_P_BP86/120481/120481
 Hartree-Fock type      HFTyp           .... RHF
 Total Charge           Charge          ....    0
 Multiplicity           Mult            ....    1
 Number of Electrons    NEL             ....  146
 Basis Dimension        Dim             ....  380
 Nuclear Repulsion      ENuc            ....   1501.7066569918 Eh

Convergence Acceleration:
 AO-DIIS                CNVDIIS         .... on
   Start iteration      DIISMaxIt       ....    12
   Startup error        DIISStart       ....  0.200000
   # of expansion vecs  DIISMaxEq       ....     5
   Bias factor          DIISBfac        ....   1.050
   Max. coefficient     DIISMaxC        ....  10.000
 MO-DIIS                CNVKDIIS        .... off
 Trust-Rad. Augm. Hess. CNVTRAH         .... auto
   Auto Start mean grad. ratio tolernc. ....  1.125000
   Auto Start start iteration           ....    50
   Auto Start num. interpolation iter.  ....    10
   Max. Number of Micro iterations      ....    24
   Max. Number of Macro iterations      .... Maxiter - #DIIS iter
   Number of Davidson start vectors     ....     2
   Converg. threshold    (grad. norm)   ....   1.000e-05
   Grad. Scal. Fac. for Micro threshold ....   0.100
   Minimum threshold for Micro iter.    ....   1.000e-02
   NR start threshold (gradient norm)   ....   1.000e-04
   Initial trust radius                 ....   0.400
   Minimum AH scaling param. (alpha)    ....   1.000
   Maximum AH scaling param. (alpha)    .... 1000.000
   Quad. conv. algorithm                .... NR
   White noise on init. David. guess    .... on
   Maximum white noise                  ....   0.010
   Pseudo random numbers                .... off
   Inactive MOs                         .... canonical
   Orbital update algorithm             .... Taylor
   Preconditioner                       .... Diag
   Full preconditioner red. dimension   ....   250
 SOSCF                  CNVSOSCF        .... on
   Start iteration      SOSCFMaxIt      ....   150
   Startup grad/error   SOSCFStart      ....  0.003300
   Hessian update       SOSCFHessUp     .... L-BFGS
 Level Shifting         CNVShift        .... on
   Level shift para.    LevelShift      ....    0.2500
   Turn off err/grad.   ShiftErr        ....    0.0010
 Zerner damping         CNVZerner       .... off
 Static damping         CNVDamp         .... on
   Fraction old density DampFac         ....    0.7000
   Max. Damping (<1)    DampMax         ....    0.9800
   Min. Damping (>=0)   DampMin         ....    0.0000
   Turn off err/grad.   DampErr         ....    0.1000

SCF Procedure:
 Maximum # iterations   MaxIter         ....   125
 SCF integral mode      SCFMode         .... Direct
   Integral package                     .... SHARK and LIBINT hybrid scheme
 Reset frequency        DirectResetFreq ....    20
 Integral Threshold     Thresh          ....  2.500e-11 Eh
 Primitive CutOff       TCut            ....  2.500e-12 Eh

Convergence Tolerance:
 Convergence Check Mode ConvCheckMode   .... Total+1el-Energy
 Convergence forced     ConvForced      .... 0
 Energy Change          TolE            ....  1.000e-08 Eh
 1-El. energy change                    ....  1.000e-05 Eh
 Orbital Gradient       TolG            ....  1.000e-05
 Orbital Rotation angle TolX            ....  1.000e-05
 DIIS Error             TolErr          ....  5.000e-07

------------------------------
INITIAL GUESS: MODEL POTENTIAL
------------------------------
Loading Hartree-Fock densities                     ... done
Calculating cut-offs                               ... done
Initializing the effective Hamiltonian             ... done
Setting up the integral package (SHARK)            ... done
Starting the Coulomb interaction                   ... done (   0.2 sec)
Making the grid                                    ... done (   0.3 sec)
Mapping shells                                     ... done
Starting the XC term evaluation                    ... done (   0.1 sec)
  promolecular density results
     # of electrons  =    145.991842105
     EX              =   -123.151994113
     EC              =     -5.378012678
     EX+EC           =   -128.530006791
Transforming the Hamiltonian                       ... done (   0.0 sec)
Diagonalizing the Hamiltonian                      ... done (   0.0 sec)
Back transforming the eigenvectors                 ... done (   0.0 sec)
Now organizing SCF variables                       ... done
                      ------------------
                      INITIAL GUESS DONE (   0.7 sec)
                      ------------------
             **** ENERGY FILE WAS UPDATED (data/geom_opt_P_BP86/120481/120481.en.tmp) ****
Finished Guess after   0.8 sec
Maximum memory used throughout the entire GUESS-calculation: 28.0 MB


           ************************************************************
           *        Program running with 6 parallel MPI-processes     *
           *              working on a common directory               *
           ************************************************************

-------------------------------------------------------------------------------------------
                                      ORCA LEAN-SCF
                              memory conserving SCF solver
-------------------------------------------------------------------------------------------

----------------------------------------D-I-I-S--------------------------------------------
Iteration    Energy (Eh)           Delta-E    RMSDP     MaxDP     DIISErr   Damp  Time(sec)
-------------------------------------------------------------------------------------------
               ***  Starting incremental Fock matrix formation  ***
    1    -1056.1633802872504475     0.00e+00  2.09e-03  6.94e-02  1.29e-01  0.700   1.0
    2    -1056.3494467314187659    -1.86e-01  1.50e-03  3.94e-02  6.28e-02  0.700   1.0
                               ***Turning on AO-DIIS***
    3    -1056.4166856245217332    -6.72e-02  6.57e-04  4.04e-02  1.96e-02  0.700   0.9
    4    -1056.4563212513955932    -3.96e-02  1.21e-03  9.15e-02  8.79e-03  0.000   0.9
    5    -1056.5448828892720030    -8.86e-02  2.46e-04  1.39e-02  5.33e-03  0.000   0.9
                              *** Initializing SOSCF ***
---------------------------------------S-O-S-C-F--------------------------------------
Iteration    Energy (Eh)           Delta-E    RMSDP     MaxDP     MaxGrad    Time(sec)
--------------------------------------------------------------------------------------
    6    -1056.5456529091422908    -7.70e-04  8.64e-05  3.30e-03  1.78e-03     0.9
               *** Restarting incremental Fock matrix formation ***
    7    -1056.5457085799764627    -5.57e-05  8.01e-05  3.00e-03  3.65e-04     1.0
    8    -1056.5457011592573053     7.42e-06  2.96e-05  1.84e-03  5.50e-04     0.8
    9    -1056.5457175468302466    -1.64e-05  1.59e-05  1.02e-03  5.00e-05     0.8
   10    -1056.5457173408301514     2.06e-07  6.47e-06  2.48e-04  1.00e-04     0.8
   11    -1056.5457179060506405    -5.65e-07  7.70e-06  4.90e-04  4.00e-05     0.8
   12    -1056.5457178817457589     2.43e-08  4.35e-06  3.09e-04  2.43e-05     0.8
   13    -1056.5457180105252064    -1.29e-07  1.40e-06  5.09e-05  4.22e-06     0.8
   14    -1056.5457180210594288    -1.05e-08  7.02e-07  2.71e-05  5.55e-06     0.8
   15    -1056.5457180209980379     6.14e-11  5.67e-07  1.69e-05  3.67e-06     0.7
                 **** Energy Check signals convergence ****

               *****************************************************
               *                     SUCCESS                       *
               *           SCF CONVERGED AFTER  15 CYCLES          *
               *****************************************************

             **** ENERGY FILE WAS UPDATED (data/geom_opt_P_BP86/120481/120481.en.tmp) ****

----------------
TOTAL SCF ENERGY
----------------

Total Energy       :      -1056.54571802099804 Eh          -28750.07061 eV

Components:
Nuclear Repulsion  :       1501.70665699178176 Eh           40863.51560 eV
Electronic Energy  :      -2558.25237501277979 Eh          -69613.58621 eV
One Electron Energy:      -4421.59688585163713 Eh         -120317.76810 eV
Two Electron Energy:       1863.34451083885733 Eh           50704.18189 eV

Virial components:
Potential Energy   :      -2103.60047558338965 Eh          -57241.87906 eV
Kinetic Energy     :       1047.05475756239161 Eh           28491.80845 eV
Virial Ratio       :          2.00906443563726

DFT components:
N(Alpha)           :       73.000006920663 electrons
N(Beta)            :       73.000006920663 electrons
N(Total)           :      146.000013841327 electrons
E(X)               :     -125.176091906706 Eh       
E(C)               :       -5.372503782474 Eh       
E(XC)              :     -130.548595689180 Eh       

---------------
SCF CONVERGENCE
---------------

  Last Energy change         ...   -6.1391e-11  Tolerance :   1.0000e-08
  Last MAX-Density change    ...    1.6908e-05  Tolerance :   1.0000e-07
  Last RMS-Density change    ...    5.6738e-07  Tolerance :   5.0000e-09
  Last DIIS Error            ...    1.7791e-03  Tolerance :   5.0000e-07
  Last Orbital Gradient      ...    3.6685e-06  Tolerance :   1.0000e-05
  Last Orbital Rotation      ...    1.4075e-05  Tolerance :   1.0000e-05


----------------
ORBITAL ENERGIES
----------------

  NO   OCC          E(Eh)            E(eV) 
   0   2.0000     -76.333024     -2077.1272 
   1   2.0000     -14.006001      -381.1227 
   2   2.0000      -9.932596      -270.2797 
   3   2.0000      -9.927842      -270.1503 
   4   2.0000      -9.926768      -270.1211 
   5   2.0000      -9.921427      -269.9758 
   6   2.0000      -9.921171      -269.9688 
   7   2.0000      -9.920928      -269.9622 
   8   2.0000      -9.920677      -269.9554 
   9   2.0000      -9.920045      -269.9381 
  10   2.0000      -9.919493      -269.9231 
  11   2.0000      -9.918610      -269.8991 
  12   2.0000      -9.914317      -269.7823 
  13   2.0000      -9.913770      -269.7674 
  14   2.0000      -9.913081      -269.7486 
  15   2.0000      -9.912878      -269.7431 
  16   2.0000      -9.912747      -269.7396 
  17   2.0000      -9.911453      -269.7043 
  18   2.0000      -9.910762      -269.6856 
  19   2.0000      -6.302980      -171.5128 
  20   2.0000      -4.524555      -123.1194 
  21   2.0000      -4.524140      -123.1081 
  22   2.0000      -4.520585      -123.0114 
  23   2.0000      -0.833343       -22.6764 
  24   2.0000      -0.779487       -21.2109 
  25   2.0000      -0.770605       -20.9692 
  26   2.0000      -0.714118       -19.4321 
  27   2.0000      -0.686496       -18.6805 
  28   2.0000      -0.674125       -18.3439 
  29   2.0000      -0.668783       -18.1985 
  30   2.0000      -0.665910       -18.1203 
  31   2.0000      -0.632888       -17.2218 
  32   2.0000      -0.628319       -17.0974 
  33   2.0000      -0.577129       -15.7045 
  34   2.0000      -0.553395       -15.0587 
  35   2.0000      -0.545320       -14.8389 
  36   2.0000      -0.537275       -14.6200 
  37   2.0000      -0.534943       -14.5565 
  38   2.0000      -0.508183       -13.8284 
  39   2.0000      -0.495591       -13.4857 
  40   2.0000      -0.467303       -12.7160 
  41   2.0000      -0.448737       -12.2107 
  42   2.0000      -0.436768       -11.8851 
  43   2.0000      -0.421502       -11.4697 
  44   2.0000      -0.411674       -11.2022 
  45   2.0000      -0.409585       -11.1454 
  46   2.0000      -0.404966       -11.0197 
  47   2.0000      -0.401079       -10.9139 
  48   2.0000      -0.394433       -10.7331 
  49   2.0000      -0.390332       -10.6215 
  50   2.0000      -0.377739       -10.2788 
  51   2.0000      -0.373757       -10.1704 
  52   2.0000      -0.367092        -9.9891 
  53   2.0000      -0.366645        -9.9769 
  54   2.0000      -0.351385        -9.5617 
  55   2.0000      -0.347796        -9.4640 
  56   2.0000      -0.335358        -9.1256 
  57   2.0000      -0.331135        -9.0106 
  58   2.0000      -0.327879        -8.9220 
  59   2.0000      -0.322367        -8.7721 
  60   2.0000      -0.318388        -8.6638 
  61   2.0000      -0.308311        -8.3896 
  62   2.0000      -0.307447        -8.3660 
  63   2.0000      -0.302361        -8.2277 
  64   2.0000      -0.295261        -8.0345 
  65   2.0000      -0.283694        -7.7197 
  66   2.0000      -0.277898        -7.5620 
  67   2.0000      -0.245342        -6.6761 
  68   2.0000      -0.236255        -6.4288 
  69   2.0000      -0.232819        -6.3353 
  70   2.0000      -0.226666        -6.1679 
  71   2.0000      -0.185849        -5.0572 
  72   2.0000      -0.176509        -4.8031 
  73   0.0000      -0.057068        -1.5529 
  74   0.0000      -0.048039        -1.3072 
  75   0.0000      -0.042370        -1.1530 
  76   0.0000      -0.035430        -0.9641 
  77   0.0000       0.027718         0.7543 
  78   0.0000       0.033736         0.9180 
  79   0.0000       0.041713         1.1351 
  80   0.0000       0.051421         1.3992 
  81   0.0000       0.057465         1.5637 
  82   0.0000       0.065618         1.7856 
  83   0.0000       0.069144         1.8815 
*Only the first 10 virtual orbitals were printed.

                    ********************************
                    * MULLIKEN POPULATION ANALYSIS *
                    ********************************

-----------------------
MULLIKEN ATOMIC CHARGES
-----------------------
   0 C :    0.087237
   1 N :   -0.343539
   2 C :    0.075057
   3 C :    0.097280
   4 C :    0.006692
   5 C :   -0.158140
   6 P :    0.213476
   7 C :   -0.080507
   8 C :   -0.002412
   9 C :    0.009197
  10 C :    0.005074
  11 C :    0.014018
  12 C :   -0.024895
  13 C :   -0.133830
  14 C :    0.014531
  15 C :    0.005145
  16 C :    0.012653
  17 C :    0.007945
  18 C :    0.022934
  19 H :    0.025076
  20 H :    0.024271
  21 H :   -0.010917
  22 H :    0.036321
  23 H :   -0.009286
  24 H :    0.024097
  25 H :    0.007181
  26 H :   -0.014155
  27 H :    0.021231
  28 H :    0.031281
  29 H :    0.052392
  30 H :    0.046560
  31 H :   -0.006545
  32 H :   -0.006904
  33 H :   -0.008272
  34 H :   -0.009272
  35 H :   -0.015026
  36 H :   -0.008432
  37 H :   -0.003232
  38 H :   -0.002701
  39 H :   -0.005111
  40 H :    0.003529
Sum of atomic charges:   -0.0000000

--------------------------------
MULLIKEN REDUCED ORBITAL CHARGES
--------------------------------
  0 C s       :     2.990545  s :     2.990545
      pz      :     1.018977  p :     2.882734
      px      :     0.879287
      py      :     0.984470
      dz2     :     0.008155  d :     0.039484
      dxz     :     0.004232
      dyz     :     0.005783
      dx2y2   :     0.010390
      dxy     :     0.010923

  1 N s       :     3.542070  s :     3.542070
      pz      :     1.100870  p :     3.773568
      px      :     1.377573
      py      :     1.295125
      dz2     :     0.007040  d :     0.027901
      dxz     :     0.003906
      dyz     :     0.006558
      dx2y2   :     0.006348
      dxy     :     0.004049

  2 C s       :     2.990532  s :     2.990532
      pz      :     0.962616  p :     2.895255
      px      :     1.032116
      py      :     0.900523
      dz2     :     0.010746  d :     0.039156
      dxz     :     0.002243
      dyz     :     0.007994
      dx2y2   :     0.006335
      dxy     :     0.011838

  3 C s       :     2.985041  s :     2.985041
      pz      :     0.855030  p :     2.870758
      px      :     1.014476
      py      :     1.001252
      dz2     :     0.012226  d :     0.046921
      dxz     :     0.010093
      dyz     :     0.011138
      dx2y2   :     0.005105
      dxy     :     0.008359

  4 C s       :     2.979450  s :     2.979450
      pz      :     1.006876  p :     2.980283
      px      :     0.947562
      py      :     1.025846
      dz2     :     0.008368  d :     0.033574
      dxz     :     0.004031
      dyz     :     0.004423
      dx2y2   :     0.009027
      dxy     :     0.007725

  5 C s       :     3.086273  s :     3.086273
      pz      :     1.039357  p :     3.043715
      px      :     0.981324
      py      :     1.023034
      dz2     :     0.007470  d :     0.028152
      dxz     :     0.004420
      dyz     :     0.004685
      dx2y2   :     0.006749
      dxy     :     0.004829

  6 P s       :     5.743131  s :     5.743131
      pz      :     3.318103  p :     8.873916
      px      :     2.781239
      py      :     2.774573
      dz2     :     0.016511  d :     0.169476
      dxz     :     0.031630
      dyz     :     0.039840
      dx2y2   :     0.034848
      dxy     :     0.046647

  7 C s       :     3.048200  s :     3.048200
      pz      :     0.983600  p :     2.997505
      px      :     1.008573
      py      :     1.005333
      dz2     :     0.003656  d :     0.034802
      dxz     :     0.005725
      dyz     :     0.005620
      dx2y2   :     0.009396
      dxy     :     0.010406

  8 C s       :     3.220941  s :     3.220941
      pz      :     0.965900  p :     2.749028
      px      :     0.930728
      py      :     0.852400
      dz2     :     0.003169  d :     0.032443
      dxz     :     0.006172
      dyz     :     0.003126
      dx2y2   :     0.010404
      dxy     :     0.009572

  9 C s       :     3.167522  s :     3.167522
      pz      :     0.983232  p :     2.790168
      px      :     0.849609
      py      :     0.957326
      dz2     :     0.003824  d :     0.033114
      dxz     :     0.003278
      dyz     :     0.005951
      dx2y2   :     0.010558
      dxy     :     0.009501

 10 C s       :     3.166540  s :     3.166540
      pz      :     0.971056  p :     2.795296
      px      :     0.909334
      py      :     0.914906
      dz2     :     0.002588  d :     0.033090
      dxz     :     0.005277
      dyz     :     0.004791
      dx2y2   :     0.009129
      dxy     :     0.011306

 11 C s       :     3.165584  s :     3.165584
      pz      :     0.976828  p :     2.787345
      px      :     0.953977
      py      :     0.856540
      dz2     :     0.003214  d :     0.033053
      dxz     :     0.006527
      dyz     :     0.003146
      dx2y2   :     0.010639
      dxy     :     0.009527

 12 C s       :     3.225372  s :     3.225372
      pz      :     0.986986  p :     2.766924
      px      :     0.836129
      py      :     0.943809
      dz2     :     0.003690  d :     0.032600
      dxz     :     0.003127
      dyz     :     0.005773
      dx2y2   :     0.010202
      dxy     :     0.009808

 13 C s       :     3.082705  s :     3.082705
      pz      :     1.005035  p :     3.016029
      px      :     1.011189
      py      :     0.999806
      dz2     :     0.009550  d :     0.035096
      dxz     :     0.005309
      dyz     :     0.011728
      dx2y2   :     0.004411
      dxy     :     0.004099

 14 C s       :     3.231171  s :     3.231171
      pz      :     0.825444  p :     2.721535
      px      :     0.964735
      py      :     0.931356
      dz2     :     0.009425  d :     0.032763
      dxz     :     0.002267
      dyz     :     0.009575
      dx2y2   :     0.005377
      dxy     :     0.006120

 15 C s       :     3.171617  s :     3.171617
      pz      :     0.935993  p :     2.790523
      px      :     0.983477
      py      :     0.871054
      dz2     :     0.008833  d :     0.032715
      dxz     :     0.005379
      dyz     :     0.011507
      dx2y2   :     0.003951
      dxy     :     0.003045

 16 C s       :     3.167937  s :     3.167937
      pz      :     0.930633  p :     2.786315
      px      :     0.973511
      py      :     0.882171
      dz2     :     0.008450  d :     0.033095
      dxz     :     0.005276
      dyz     :     0.012007
      dx2y2   :     0.003939
      dxy     :     0.003423

 17 C s       :     3.172649  s :     3.172649
      pz      :     0.835112  p :     2.786534
      px      :     0.987348
      py      :     0.964075
      dz2     :     0.009631  d :     0.032872
      dxz     :     0.002353
      dyz     :     0.009469
      dx2y2   :     0.005432
      dxy     :     0.005987

 18 C s       :     3.217062  s :     3.217062
      pz      :     0.932491  p :     2.727116
      px      :     0.955736
      py      :     0.838890
      dz2     :     0.008567  d :     0.032887
      dxz     :     0.005383
      dyz     :     0.011918
      dx2y2   :     0.003867
      dxy     :     0.003153

 19 H s       :     0.953062  s :     0.953062
      pz      :     0.012536  p :     0.021862
      px      :     0.003598
      py      :     0.005727

 20 H s       :     0.953774  s :     0.953774
      pz      :     0.007535  p :     0.021955
      px      :     0.003605
      py      :     0.010815

 21 H s       :     0.988551  s :     0.988551
      pz      :     0.005870  p :     0.022366
      px      :     0.009247
      py      :     0.007248

 22 H s       :     0.941276  s :     0.941276
      pz      :     0.005030  p :     0.022404
      px      :     0.012087
      py      :     0.005287

 23 H s       :     0.987048  s :     0.987048
      pz      :     0.004918  p :     0.022237
      px      :     0.009068
      py      :     0.008252

 24 H s       :     0.953923  s :     0.953923
      pz      :     0.012037  p :     0.021981
      px      :     0.005792
      py      :     0.004152

 25 H s       :     0.971871  s :     0.971871
      pz      :     0.005504  p :     0.020948
      px      :     0.005085
      py      :     0.010359

 26 H s       :     0.993248  s :     0.993248
      pz      :     0.003739  p :     0.020906
      px      :     0.008366
      py      :     0.008801

 27 H s       :     0.957071  s :     0.957071
      pz      :     0.012688  p :     0.021698
      px      :     0.004064
      py      :     0.004946

 28 H s       :     0.946293  s :     0.946293
      pz      :     0.006919  p :     0.022426
      px      :     0.004420
      py      :     0.011088

 29 H s       :     0.925000  s :     0.925000
      pz      :     0.006704  p :     0.022608
      px      :     0.005078
      py      :     0.010827

 30 H s       :     0.930679  s :     0.930679
      pz      :     0.013212  p :     0.022761
      px      :     0.004756
      py      :     0.004793

 31 H s       :     0.983888  s :     0.983888
      pz      :     0.005557  p :     0.022658
      px      :     0.004602
      py      :     0.012498

 32 H s       :     0.984512  s :     0.984512
      pz      :     0.004977  p :     0.022392
      px      :     0.012649
      py      :     0.004767

 33 H s       :     0.985840  s :     0.985840
      pz      :     0.006343  p :     0.022432
      px      :     0.008306
      py      :     0.007782

 34 H s       :     0.986876  s :     0.986876
      pz      :     0.005558  p :     0.022396
      px      :     0.004511
      py      :     0.012327

 35 H s       :     0.992211  s :     0.992211
      pz      :     0.005176  p :     0.022815
      px      :     0.012625
      py      :     0.005014

 36 H s       :     0.985898  s :     0.985898
      pz      :     0.013938  p :     0.022534
      px      :     0.004869
      py      :     0.003726

 37 H s       :     0.980844  s :     0.980844
      pz      :     0.005909  p :     0.022388
      px      :     0.005203
      py      :     0.011277

 38 H s       :     0.980365  s :     0.980365
      pz      :     0.006514  p :     0.022335
      px      :     0.005176
      py      :     0.010646

 39 H s       :     0.982747  s :     0.982747
      pz      :     0.013616  p :     0.022364
      px      :     0.004975
      py      :     0.003773

 40 H s       :     0.973843  s :     0.973843
      pz      :     0.005923  p :     0.022627
      px      :     0.005173
      py      :     0.011531



                     *******************************
                     * LOEWDIN POPULATION ANALYSIS *
                     *******************************

----------------------
LOEWDIN ATOMIC CHARGES
----------------------
   0 C :    0.003726
   1 N :   -0.126883
   2 C :    0.001957
   3 C :    0.021814
   4 C :   -0.055453
   5 C :   -0.174487
   6 P :    0.483237
   7 C :   -0.173528
   8 C :   -0.032320
   9 C :   -0.028235
  10 C :   -0.034826
  11 C :   -0.028307
  12 C :   -0.043800
  13 C :   -0.176173
  14 C :   -0.031474
  15 C :   -0.029448
  16 C :   -0.023419
  17 C :   -0.028994
  18 C :   -0.023056
  19 H :    0.022706
  20 H :    0.022499
  21 H :   -0.002289
  22 H :    0.022662
  23 H :   -0.001500
  24 H :    0.024547
  25 H :    0.020389
  26 H :   -0.001640
  27 H :    0.030445
  28 H :    0.023886
  29 H :    0.027848
  30 H :    0.021477
  31 H :    0.027994
  32 H :    0.029777
  33 H :    0.028148
  34 H :    0.029013
  35 H :    0.024966
  36 H :    0.027152
  37 H :    0.030605
  38 H :    0.030346
  39 H :    0.030341
  40 H :    0.030296

-------------------------------
LOEWDIN REDUCED ORBITAL CHARGES
-------------------------------
  0 C s       :     2.843616  s :     2.843616
      pz      :     1.071436  p :     3.054887
      px      :     0.948226
      py      :     1.035225
      dz2     :     0.021825  d :     0.097771
      dxz     :     0.008713
      dyz     :     0.014599
      dx2y2   :     0.024832
      dxy     :     0.027802

  1 N s       :     3.155624  s :     3.155624
      pz      :     1.159181  p :     3.912064
      px      :     1.412185
      py      :     1.340699
      dz2     :     0.016644  d :     0.059194
      dxz     :     0.007556
      dyz     :     0.014754
      dx2y2   :     0.011864
      dxy     :     0.008377

  2 C s       :     2.841363  s :     2.841363
      pz      :     1.016618  p :     3.059590
      px      :     1.075411
      py      :     0.967560
      dz2     :     0.026664  d :     0.097091
      dxz     :     0.004158
      dyz     :     0.020426
      dx2y2   :     0.015799
      dxy     :     0.030044

  3 C s       :     2.844800  s :     2.844800
      pz      :     0.919156  p :     3.018832
      px      :     1.038763
      py      :     1.060913
      dz2     :     0.030483  d :     0.114554
      dxz     :     0.022091
      dyz     :     0.026584
      dx2y2   :     0.013635
      dxy     :     0.021761

  4 C s       :     2.842582  s :     2.842582
      pz      :     1.061845  p :     3.127039
      px      :     1.014099
      py      :     1.051096
      dz2     :     0.022560  d :     0.085832
      dxz     :     0.009514
      dyz     :     0.011007
      dx2y2   :     0.021951
      dxy     :     0.020800

  5 C s       :     2.893439  s :     2.893439
      pz      :     1.092283  p :     3.209201
      px      :     1.053933
      py      :     1.062986
      dz2     :     0.019833  d :     0.071847
      dxz     :     0.010106
      dyz     :     0.011302
      dx2y2   :     0.016412
      dxy     :     0.014193

  6 P s       :     5.266560  s :     5.266560
      pz      :     3.396916  p :     9.017704
      px      :     2.810117
      py      :     2.810671
      dz2     :     0.022160  d :     0.232500
      dxz     :     0.040359
      dyz     :     0.055764
      dx2y2   :     0.048692
      dxy     :     0.065525

  7 C s       :     2.915620  s :     2.915620
      pz      :     0.999207  p :     3.167321
      px      :     1.084914
      py      :     1.083200
      dz2     :     0.008241  d :     0.090587
      dxz     :     0.012809
      dyz     :     0.013162
      dx2y2   :     0.027767
      dxy     :     0.028608

  8 C s       :     2.866405  s :     2.866405
      pz      :     0.985056  p :     3.077166
      px      :     1.055838
      py      :     1.036271
      dz2     :     0.007396  d :     0.088749
      dxz     :     0.015123
      dyz     :     0.007384
      dx2y2   :     0.030735
      dxy     :     0.028112

[...]
      px      :     0.967834
      py      :     1.048643
      dz2     :     0.023426  d :     0.085775
      dxz     :     0.009589
      dyz     :     0.033585
      dx2y2   :     0.011044
      dxy     :     0.008129

 17 C s       :     2.873380  s :     2.873380
      pz      :     1.039435  p :     3.071106
      px      :     0.969594
      py      :     1.062077
      dz2     :     0.024693  d :     0.086249
      dxz     :     0.004731
      dyz     :     0.029053
      dx2y2   :     0.014900
      dxy     :     0.012873

 18 C s       :     2.876081  s :     2.876081
      pz      :     1.062208  p :     3.062881
      px      :     0.955244
      py      :     1.045430
      dz2     :     0.028712  d :     0.087321
      dxz     :     0.012238
      dyz     :     0.031127
      dx2y2   :     0.009840
      dxy     :     0.005404

 19 H s       :     0.914324  s :     0.914324
      pz      :     0.039126  p :     0.062032
      px      :     0.011175
      py      :     0.011731

 20 H s       :     0.914884  s :     0.914884
      pz      :     0.013692  p :     0.062045
      px      :     0.010786
      py      :     0.037567

 21 H s       :     0.938207  s :     0.938207
      pz      :     0.011351  p :     0.062947
      px      :     0.034401
      py      :     0.017195

 22 H s       :     0.906676  s :     0.906676
      pz      :     0.017861  p :     0.066049
      px      :     0.034550
      py      :     0.013637

 23 H s       :     0.937563  s :     0.937563
      pz      :     0.012206  p :     0.063013
      px      :     0.026648
      py      :     0.024159

 24 H s       :     0.912555  s :     0.912555
      pz      :     0.039553  p :     0.062364
      px      :     0.013281
      py      :     0.009529

 25 H s       :     0.916220  s :     0.916220
      pz      :     0.010801  p :     0.062466
      px      :     0.014962
      py      :     0.036702

 26 H s       :     0.934686  s :     0.934686
      pz      :     0.014100  p :     0.063593
      px      :     0.027318
      py      :     0.022175

 27 H s       :     0.902595  s :     0.902595
      pz      :     0.038356  p :     0.064667
      px      :     0.013350
      py      :     0.012961

 28 H s       :     0.909054  s :     0.909054
      pz      :     0.014416  p :     0.067807
      px      :     0.014996
      py      :     0.038395

 29 H s       :     0.903828  s :     0.903828
      pz      :     0.019276  p :     0.068347
      px      :     0.014779
      py      :     0.034293

 30 H s       :     0.904842  s :     0.904842
      pz      :     0.044603  p :     0.073697
      px      :     0.015565
      py      :     0.013529

 31 H s       :     0.902718  s :     0.902718
      pz      :     0.017819  p :     0.066433
      px      :     0.013744
      py      :     0.034870

 32 H s       :     0.901108  s :     0.901108
      pz      :     0.013166  p :     0.065750
      px      :     0.039257
      py      :     0.013327

 33 H s       :     0.901942  s :     0.901942
      pz      :     0.018656  p :     0.065948
      px      :     0.024041
      py      :     0.023251

 34 H s       :     0.902065  s :     0.902065
      pz      :     0.017834  p :     0.065797
      px      :     0.013904
      py      :     0.034060

 35 H s       :     0.902018  s :     0.902018
      pz      :     0.013841  p :     0.068332
      px      :     0.040925
      py      :     0.013565

 36 H s       :     0.904160  s :     0.904160
      pz      :     0.041326  p :     0.067088
      px      :     0.013946
      py      :     0.011816

 37 H s       :     0.900752  s :     0.900752
      pz      :     0.013843  p :     0.065911
      px      :     0.014635
      py      :     0.037432

 38 H s       :     0.901222  s :     0.901222
      pz      :     0.024335  p :     0.065899
      px      :     0.013922
      py      :     0.027641

 39 H s       :     0.901027  s :     0.901027
      pz      :     0.039806  p :     0.065895
      px      :     0.013992
      py      :     0.012097

 40 H s       :     0.896847  s :     0.896847
      pz      :     0.013563  p :     0.067976
      px      :     0.014344
      py      :     0.040068



                      *****************************
                      * MAYER POPULATION ANALYSIS *
                      *****************************

  NA   - Mulliken gross atomic population
  ZA   - Total nuclear charge
  QA   - Mulliken gross atomic charge
  VA   - Mayer's total valence
  BVA  - Mayer's bonded valence
  FA   - Mayer's free valence

  ATOM       NA         ZA         QA         VA         BVA        FA
  0 C      5.9308     6.0000     0.0692     3.9677     3.9677    -0.0000
  1 N      7.3338     7.0000    -0.3338     3.2439     3.2439    -0.0000
  2 C      5.9351     6.0000     0.0649     3.9504     3.9504    -0.0000
  3 C      5.9114     6.0000     0.0886     4.0512     4.0512    -0.0000
  4 C      5.9839     6.0000     0.0161     4.0157     4.0157    -0.0000
  5 C      6.1879     6.0000    -0.1879     3.9386     3.9386    -0.0000
  6 P     14.7809    15.0000     0.2191     3.0129     3.0129    -0.0000
  7 C      6.1353     6.0000    -0.1353     3.7983     3.7983    -0.0000
  8 C      5.9872     6.0000     0.0128     3.8776     3.8776    -0.0000
  9 C      6.0007     6.0000    -0.0007     3.8614     3.8614    -0.0000
 10 C      5.9992     6.0000     0.0008     3.8301     3.8301    -0.0000
 11 C      5.9949     6.0000     0.0051     3.8395     3.8395    -0.0000
 12 C      6.0189     6.0000    -0.0189     3.8931     3.8931    -0.0000
 13 C      6.1513     6.0000    -0.1513     3.8360     3.8360    -0.0000
 14 C      5.9885     6.0000     0.0115     3.8654     3.8654    -0.0000
 15 C      6.0058     6.0000    -0.0058     3.8534     3.8534    -0.0000
 16 C      5.9990     6.0000     0.0010     3.8245     3.8245    -0.0000
 17 C      5.9972     6.0000     0.0028     3.8406     3.8406    -0.0000
 18 C      5.9730     6.0000     0.0270     3.8749     3.8749    -0.0000
 19 H      0.9714     1.0000     0.0286     0.9885     0.9885    -0.0000
 20 H      0.9720     1.0000     0.0280     0.9903     0.9903     0.0000
 21 H      1.0059     1.0000    -0.0059     0.9884     0.9884    -0.0000
 22 H      0.9488     1.0000     0.0512     1.0022     1.0022    -0.0000
 23 H      1.0085     1.0000    -0.0085     0.9905     0.9905    -0.0000
 24 H      0.9737     1.0000     0.0263     0.9942     0.9942    -0.0000
 25 H      0.9913     1.0000     0.0087     0.9862     0.9862    -0.0000
 26 H      1.0082     1.0000    -0.0082     0.9853     0.9853    -0.0000
 27 H      0.9768     1.0000     0.0232     0.9820     0.9820    -0.0000
 28 H      0.9808     1.0000     0.0192     1.0168     1.0168    -0.0000
 29 H      0.9429     1.0000     0.0571     0.9714     0.9714    -0.0000
 30 H      0.9400     1.0000     0.0600     1.0258     1.0258    -0.0000
 31 H      0.9974     1.0000     0.0026     0.9903     0.9903    -0.0000
 32 H      0.9964     1.0000     0.0036     0.9787     0.9787     0.0000
 33 H      0.9971     1.0000     0.0029     0.9787     0.9787    -0.0000
 34 H      0.9999     1.0000     0.0001     0.9785     0.9785     0.0000
 35 H      1.0017     1.0000    -0.0017     0.9991     0.9991    -0.0000
 36 H      0.9977     1.0000     0.0023     0.9936     0.9936    -0.0000
 37 H      0.9957     1.0000     0.0043     0.9790     0.9790     0.0000
 38 H      0.9952     1.0000     0.0048     0.9787     0.9787     0.0000
 39 H      0.9970     1.0000     0.0030     0.9789     0.9789    -0.0000
 40 H      0.9865     1.0000     0.0135     0.9923     0.9923    -0.0000

  Mayer bond orders larger than 0.100000
B(  0-C ,  1-N ) :   1.0403 B(  0-C , 19-H ) :   0.9669 B(  0-C , 20-H ) :   0.9660 
B(  0-C , 21-H ) :   0.9366 B(  1-N ,  2-C ) :   1.0241 B(  1-N ,  3-C ) :   1.0296 
B(  2-C , 22-H ) :   0.9608 B(  2-C , 23-H ) :   0.9336 B(  2-C , 24-H ) :   0.9639 
B(  3-C ,  4-C ) :   1.0858 B(  3-C , 25-H ) :   0.9350 B(  3-C , 26-H ) :   0.9109 
B(  4-C ,  5-C ) :   1.0485 B(  4-C , 27-H ) :   0.9247 B(  4-C , 28-H ) :   0.9243 
B(  5-C ,  6-P ) :   0.9805 B(  5-C , 29-H ) :   0.9291 B(  5-C , 30-H ) :   0.9019 
B(  6-P ,  7-C ) :   0.9199 B(  6-P , 13-C ) :   0.9332 B(  7-C ,  8-C ) :   1.3605 
B(  7-C , 12-C ) :   1.3811 B(  8-C ,  9-C ) :   1.4171 B(  8-C , 31-H ) :   0.9703 
B(  9-C , 10-C ) :   1.3669 B(  9-C , 32-H ) :   0.9756 B( 10-C , 11-C ) :   1.3897 
B( 10-C , 33-H ) :   0.9757 B( 11-C , 12-C ) :   1.3773 B( 11-C , 34-H ) :   0.9733 
B( 12-C , 35-H ) :   0.9666 B( 13-C , 14-C ) :   1.3768 B( 13-C , 18-C ) :   1.3732 
B( 14-C , 15-C ) :   1.3815 B( 14-C , 36-H ) :   0.9679 B( 15-C , 16-C ) :   1.3852 
B( 15-C , 37-H ) :   0.9770 B( 16-C , 17-C ) :   1.3657 B( 16-C , 38-H ) :   0.9764 
B( 17-C , 18-C ) :   1.3968 B( 17-C , 39-H ) :   0.9747 B( 18-C , 40-H ) :   0.9640 


-------
TIMINGS
-------

Total SCF time: 0 days 0 hours 0 min 5 sec 

Total time                  ....       5.567 sec
Sum of individual times     ....       5.481 sec  ( 98.5%)

SCF preparation             ....       0.137 sec  (  2.5%)
Fock matrix formation       ....       4.848 sec  ( 87.1%)
  Startup                   ....       0.023 sec  (  0.5% of F)
  Split-RI-J                ....       1.658 sec  ( 34.2% of F)
  XC integration            ....       3.067 sec  ( 63.3% of F)
    Basis function eval.    ....       0.902 sec  ( 29.4% of XC)
    Density eval.           ....       0.897 sec  ( 29.2% of XC)
    XC-Functional eval.     ....       0.083 sec  (  2.7% of XC)
    XC-Potential eval.      ....       0.675 sec  ( 22.0% of XC)
Diagonalization             ....       0.000 sec  (  0.0%)
Density matrix formation    ....       0.052 sec  (  0.9%)
Total Energy calculation    ....       0.024 sec  (  0.4%)
Population analysis         ....       0.097 sec  (  1.7%)
Orbital Transformation      ....       0.043 sec  (  0.8%)
Orbital Orthonormalization  ....       0.000 sec  (  0.0%)
DIIS solution               ....       0.054 sec  (  1.0%)
SOSCF solution              ....       0.226 sec  (  4.1%)
Finished LeanSCF after   5.6 sec

Maximum memory used throughout the entire LEANSCF-calculation: 42.4 MB


-------------------------------------------------------------------------------
                          DFT DISPERSION CORRECTION                            
                                                                               
                              DFTD3 V3.1  Rev 1                                
                          USING Becke-Johnson damping                          
-------------------------------------------------------------------------------
The BP86 functional is recognized
Active option DFTDOPT                   ...         4   

molecular C6(AA) [au] = 18564.884704 


            DFT-D V3
 parameters
 s6 scaling factor         :     1.0000 
 a1 scaling factor         :     0.3946 
 s8 scaling factor         :     3.2822 
 a2 scaling factor         :     4.8516 
 ad hoc parameters k1-k3   :    16.0000     1.3333    -4.0000 

 Edisp/kcal,au: -55.408409291794  -0.088298911286 
 E6   /kcal   : -20.867570922 
 E8   /kcal   : -34.540838370 
 % E8         :  62.338621179 

-------------------------   ----------------
Dispersion correction           -0.088298911
-------------------------   ----------------


-------------------------   --------------------
FINAL SINGLE POINT ENERGY     -1056.639367516040
-------------------------   --------------------

                                *** OPTIMIZATION RUN DONE ***



           ************************************************************
           *        Program running with 6 parallel MPI-processes     *
           *              working on a common directory               *
           ************************************************************

------------------------------------------------------------------------------
                              ORCA PROPERTY CALCULATIONS
------------------------------------------------------------------------------

GBWName                                 ... data/geom_opt_P_BP86/120481/120481.gbw
Number of atoms                         ...     41
Number of basis functions               ...    380
Max core memory                         ...   1024 MB

Electric properties:
Dipole moment                           ... YES
Quadrupole moment                       ...  NO
Static polarizability (Dipole/Dipole)   ...  NO
Static polarizability (Dipole/Quad.)    ...  NO
Static polarizability (Quad./Quad.)     ...  NO
Static polarizability (Velocity)        ...  NO

Atomic electric properties:
Dipole moment                           ...  NO
Quadrupole moment                       ...  NO
Static polarizability                   ...  NO

Choice of electric origin               ... Center of mass
Position of electric origin             ...    -0.915275    -0.046152    -0.374954

General magnetic properties:
Magnetizability                         ...  NO

EPR properties:
g-Tensor (aka g-matrix)                 ...  NO
Zero-Field splitting spin-orbit         ...  NO
Zero-field splitting spin-spin          ...  NO
Hyperfine couplings                     ...  NO (   0 nuclei)
Quadrupole couplings                    ...  NO (   0 nuclei)
Contact density                         ...  NO (   0 nuclei)

NMR properties:
Chemical shifts                         ...  NO (   0 nuclei)
Spin-rotation constants                 ...  NO (   0 nuclei)
Spin-spin couplings                     ...  NO (   0 nuclei,    0 pairs)

Choice of magnetic origin               ... GIAO
Position of magnetic origin             ...     0.000000     0.000000     0.000000

Properties with geometric perturbations:
SCF Hessian                             ...  NO
IR spectrum                             ...  NO
VCD spectrum                            ...  NO
X-ray spectroscopy properties:
SCF XES/XAS/RIXS spectra                ...  NO


-------------
DIPOLE MOMENT
-------------

Method             : SCF
Type of density    : Electron Density
Multiplicity       :   1
Irrep              :   0
Energy             : -1056.5510686047539366 Eh
Relativity type    : 
Basis              : AO
                                X                 Y                 Z
Electronic contribution:    -20.163743807      -0.895155866      -6.822945878
Nuclear contribution   :     20.506090282       0.935772012       7.343063780
                        -----------------------------------------
Total Dipole Moment    :      0.342346475       0.040616146       0.520117901
                        -----------------------------------------
Magnitude (a.u.)       :      0.623997926
Magnitude (Debye)      :      1.586076680



--------------------
Rotational spectrum 
--------------------
 
Rotational constants in cm-1:             0.014740             0.008141             0.006544 
Rotational constants in MHz :           441.879531           244.054617           196.186732 

Dipole components along the rotational axes: 
x,y,z [a.u.] :     0.367897     0.038634     0.502526 
x,y,z [Debye]:     0.935120     0.098199     1.277320 

 

Dipole moment calculation done in   0.0 sec 

Maximum memory used throughout the entire PROP-calculation: 21.5 MB

--------------------------------
SUGGESTED CITATIONS FOR THIS RUN
--------------------------------

Below you find a list of papers that are relevant to this ORCA run
We neither can nor want to force you to cite these papers, but we appreciate if you do
You receive ORCA, which is the product of decades of hard work by many enthusiastic individuals, for free
The only thing we kindly ask in return is that you cite our papers,
We deeply appreciate it, if you show your appreciation for ORCA by not just citing the generic ORCA reference.

Please note that relegating all ORCA citations to the supporting information does *not* help us.
SI sections are not indexed - citations you put there will not count into any citation statistics
But we need these citations in order to attract the funding resources that allow us to do what we are doing

Therefore, if you are a happy ORCA user, please consider citing a few of the papers listed below in the main body of your paper

In addition to the list printed below, the program has created the file data/geom_opt_P_BP86/120481/120481.bibtex that contains the list in bibtex format
You can import this file easily into all common literature databanks and citation aid programs


List of essential papers. We consider these as the minimum necessary citations

  1. Neese,F.
     Software update: the ORCA program system, version 5.0
     WIRES Comput. Molec. Sci., 2022 12(1)e1606
     doi.org/10.1002/wcms.1606

List of papers to cite with high priority. The work reported in these papers was absolutely
necessary for this run to complete.
Our perspective: the developers of density functionals and basis sets usually get cited in chemistry papers
Good! But without the algorithms to do something with them, the functionals or basis sets would not do anything.
Hence, in our opinion, the algorithm design and method developments papers are equally worthy of getting cited

  1. Neese,F.
     An improvement of the resolution of the identity approximation for the formation of the Coulomb matrix
     J. Comp. Chem., 2003 24(14)1740-1747
     doi.org/10.1002/jcc.10318
  2. Neese,F.
     The SHARK Integral Generation and Digestion System
     J. Comp. Chem., 2022  1-16
     doi.org/10.1002/jcc.26942
  3. Grimme,S.; Antony,J.; Ehrlich,S.; Krieg,H.
     A consistent and accurate ab initio parametrization of density functional dispersion correction (DFT-D) for the 94 elements H-Pu
     J. Chem. Phys., 2010 132 154104-XXXX
     doi.org/10.1063/1.3382344
  4. Grimme,S.; Ehrlich,S.; Goerigk,L.
     Effect of the damping function in dispersion corrected density functional theory
     J. Comput. Chem., 2011 32(7)1456-1465
     doi.org/10.1002/jcc.21759

List of suggested additional citations. These are papers that are important in the 'surrounding' of 
of this run, or papers that preceded the highly important papers. If you like your results we are grateful for a citation.

  1. Neese,F.
     The ORCA program system
     WIRES Comput. Molec. Sci., 2012 2(1)73-78
     doi.org/10.1002/wcms.81
  2. Neese,F.
     Software update: the ORCA program system, version 4.0
     WIRES Comput. Molec. Sci., 2018 8(1)1-6
     doi.org/10.1002/wcms.1327
  3. Neese,F.; Wennmohs,F.; Becker,U.; Riplinger,C.
     The ORCA quantum chemistry program package
     J. Chem. Phys., 2020 152 Art. No. L224108
     doi.org/10.1063/5.0004608

List of optional additional citations

  1. Neese,F.
     Approximate second-order SCF convergence for spin unrestricted wavefunctions
     Chem. Phys. Lett., 2000 325(1-3)93-98
     doi.org/10.1016/s0009-2614(00)00662-x

Timings for individual modules:

Sum of individual times          ...      221.394 sec (=   3.690 min)
Startup calculation              ...       17.907 sec (=   0.298 min)   8.1 %
SCF iterations                   ...      129.739 sec (=   2.162 min)  58.6 %
Property calculations            ...        0.183 sec (=   0.003 min)   0.1 %
SCF Gradient evaluation          ...       73.313 sec (=   1.222 min)  33.1 %
Geometry relaxation              ...        0.252 sec (=   0.004 min)   0.1 %
                             ****ORCA TERMINATED NORMALLY****
TOTAL RUN TIME: 0 days 0 hours 3 minutes 43 seconds 860 msec
