
                                 *****************
                                 * O   R   C   A *
                                 *****************

                                            #,                                       
                                            ###                                      
                                            ####                                     
                                            #####                                    
                                            ######                                   
                                           ########,                                 
                                     ,,################,,,,,                         
                               ,,#################################,,                 
                          ,,##########################################,,             
                       ,#########################################, ''#####,          
                    ,#############################################,,   '####,        
                  ,##################################################,,,,####,       
                ,###########''''           ''''###############################       
              ,#####''   ,,,,##########,,,,          '''####'''          '####       
            ,##' ,,,,###########################,,,                        '##       
           ' ,,###''''                  '''############,,,                           
         ,,##''                                '''############,,,,        ,,,,,,###''
      ,#''                                            '''#######################'''  
     '                                                          ''''####''''         
             ,#######,   #######,   ,#######,      ##                                
            ,#'     '#,  ##    ##  ,#'     '#,    #''#        ,####,   ,####,        
            ##       ##  ##   ,#'  ##            #'  '#       #'       #'  '#        
            ##       ##  #######   ##           ,######,      #####,   #    #        
            '#,     ,#'  ##    ##  '#,     ,#' ,#      #,     #,   #   #,  ,#        
             '#######'   ##     ##  '#######'  #'      '#     '####' # '####'        



                #########################################################
                #                        -***-                          #
                #          Department of theory and spectroscopy        #
                #                                                       #
                #                      Frank Neese                      #
                #                                                       #
                #     Directorship, Architecture, Infrastructure        #
                #                    SHARK, DRIVERS                     #
                #        Core code/Algorithms in most modules           #
                #                                                       #
                #        Max Planck Institute fuer Kohlenforschung      #
                #                Kaiser Wilhelm Platz 1                 #
                #                 D-45470 Muelheim/Ruhr                 #
                #                      Germany                          #
                #                                                       #
                #                  All rights reserved                  #
                #                        -***-                          #
                #########################################################


                         Program Version 6.0.0  -   RELEASE   -


 With contributions from (in alphabetic order):
   Daniel Aravena         : Magnetic Suceptibility
   Michael Atanasov       : Ab Initio Ligand Field Theory (pilot matlab implementation)
   Alexander A. Auer      : GIAO ZORA, VPT2 properties, NMR spectrum
   Ute Becker             : All parallelization in ORCA, NUMFREQ, NUMCALC
   Giovanni Bistoni       : ED, misc. LED, open-shell LED, HFLD
   Martin Brehm           : Molecular dynamics
   Dmytro Bykov           : pre 5.0 version of the SCF Hessian
   Marcos Casanova-Páez   : Triplet and SCS-CIS(D). UHF-(DLPNO)-IP/EA/STEOM-CCSD. UHF-CVS-IP/STEOM-CCSD
   Vijay G. Chilkuri      : MRCI spin determinant printing, contributions to CSF-ICE
   Pauline Colinet        : FMM embedding
   Dipayan Datta          : RHF DLPNO-CCSD density
   Achintya Kumar Dutta   : EOM-CC, STEOM-CC
   Nicolas Foglia         : Exact transition moments, OPA infrastructure, MCD improvements
   Dmitry Ganyushin       : Spin-Orbit,Spin-Spin,Magnetic field MRCI
   Miquel Garcia          : C-PCM and meta-GGA Hessian, CCSD/C-PCM, Gaussian charge scheme
   Tiago L. C. Gouveia    : GS-ROHF, GS-ROCIS
   Yang Guo               : DLPNO-NEVPT2, F12-NEVPT2, CIM, IAO-localization
   Andreas Hansen         : Spin unrestricted coupled pair/coupled cluster methods
   Ingolf Harden          : AUTO-CI MPn and infrastructure 
   Benjamin Helmich-Paris : MC-RPA, TRAH-(SCF,CASSCF), AVAS, COSX integrals, SCF dyn. polar.
   Lee Huntington         : MR-EOM, pCC
   Robert Izsak           : Overlap fitted RIJCOSX, COSX-SCS-MP3, EOM
   Riya Kayal             : Wick's Theorem for AUTO-CI, AUTO-CI UHF-CCSDT
   Emily Kempfer          : AUTO-CI, RHF CISDT and CCSDT
   Christian Kollmar      : KDIIS, OOCD, Brueckner-CCSD(T), CCSD density, CASPT2, CASPT2-K, improved NEVPT2
   Axel Koslowski         : Symmetry handling
   Simone Kossmann        : Meta GGA functionals, TD-DFT gradient, OOMP2, (MP2 Hessian; deprecated post 5.0)
   Lucas Lang             : DCDCAS
   Marvin Lechner         : AUTO-CI (C++ implementation), FIC-MRCC
   Spencer Leger          : CASSCF response
   Dagmar Lenk            : GEPOL surface, SMD, ORCA-2-JSON
   Dimitrios Liakos       : Extrapolation schemes; Compound Job, initial MDCI parallelization
   Dimitrios Manganas     : Further ROCIS development; embedding schemes. LFT, Crystal Embedding
   Dimitrios Pantazis     : SARC Basis sets
   Anastasios Papadopoulos: AUTO-CI, single reference methods and gradients
   Taras Petrenko         : pre 6.0 DFT Hessian and TD-DFT gradient, (ASA, deprecated), ECA, 1-Electron XAS/XES, NRVS
   Peter Pinski           : DLPNO-MP2, DLPNO-MP2 Gradient
   Christoph Reimann      : Effective Core Potentials
   Marius Retegan         : Local ZFS, SOC
   Christoph Riplinger    : Optimizer, TS searches, QM/MM, DLPNO-CCSD(T), (RO)-DLPNO pert. Triples
   Michael Roemelt        : Original ROCIS implementation
   Masaaki Saitow         : Open-shell DLPNO-CCSD energy and density
   Barbara Sandhoefer     : DKH picture change effects
   Kantharuban Sivalingam : CASSCF convergence/infrastructure, NEVPT2 and variants, FIC-MRCI
   Bernardo de Souza      : ESD, SOC TD-DFT
   Georgi Stoychev        : AutoAux, RI-MP2 NMR, DLPNO-MP2 response, X2C
   Van Anh Tran           : RI-MP2 g-tensors
   Willem Van den Heuvel  : Paramagnetic NMR
   Zikuan Wang            : NOTCH, Electric field optimization 
   Frank Wennmohs         : Technical directorship and infrastructure
   Hang Xu                : AUTO-CI-Response properties 


 We gratefully acknowledge several colleagues who have allowed us to
 interface, adapt or use parts of their codes:
   Stefan Grimme, W. Hujo, H. Kruse, P. Pracht,  : VdW corrections, initial TS optimization,
                  C. Bannwarth, S. Ehlert,         DFT functionals, gCP, sTDA/sTD-DF
                  L. Wittmann, M. Mueller
   Ed Valeev, F. Pavosevic, A. Kumar             : LibInt (2-el integral package), F12 methods
   Garnet Chan, S. Sharma, J. Yang, R. Olivares  : DMRG
   Ulf Ekstrom                                   : XCFun DFT Library
   Mihaly Kallay                                 : mrcc  (arbitrary order and MRCC methods)
   Frank Weinhold                                : gennbo (NPA and NBO analysis)
   Simon Mueller                                 : openCOSMO-RS
   Christopher J. Cramer and Donald G. Truhlar   : smd solvation model
   Lars Goerigk                                  : TD-DFT with DH, B97 family of functionals
   V. Asgeirsson, H. Jonsson                     : NEB implementation
   FAccTs GmbH                                   : IRC, NEB, NEB-TS, DLPNO-Multilevel, CI-OPT
                                                   MM, QMMM, 2- and 3-layer-ONIOM, Crystal-QMMM,
                                                   LR-CPCM, SF, NACMEs, symmetry and pop. for TD-DFT,
                                                   nearIR, NL-DFT gradient (VV10), updates on ESD,
                                                   ML-optimized integration grids, MBIS, APM,
                                                   GOAT, DOCKER, SOLVATOR, interface openCOSMO-RS
   S Lehtola, MJT Oliveira, MAL Marques          : LibXC Library
   Liviu Ungur et al                             : ANISO software


 Your calculation uses the libint2 library for the computation of 2-el integrals
 For citations please refer to: http://libint.valeyev.net

 Your ORCA version has been built with support for libXC version: 6.2.2
 For citations please refer to: https://libxc.gitlab.io

 This ORCA versions uses:
   CBLAS   interface :  Fast vector & matrix operations
   LAPACKE interface :  Fast linear algebra routines
   Shared memory     :  Shared parallel matrices


Your calculation utilizes the atom-pairwise dispersion correction
with the zero-damping scheme (D30)


XCFun DFT library Copyright 2009-2010 Ulf Ekstrom and contributors.
See http://admol.org/xcfun for more information.
This is free software; see the source code for copying conditions.
There is ABSOLUTELY NO WARRANTY; not even for MERCHANTABILITY or FITNESS FOR A PARTICULAR PURPOSE.
For details see the documentation.
Scientific users of this library should cite U. Ekstrom, L. Visscher, R. Bast, A. J. Thorvaldsen and K. Ruud;
J.Chem.Theor.Comp. 2010, DOI: 10.1021/ct100117s
XCFun Version 0.99 

Warning: RI is on but no J-basis has been assigned. Assigning Def2/J (nothing to worry about!)
================================================================================

----- Orbital basis set information -----
Your calculation utilizes the basis: def2-TZVP
   F. Weigend and R. Ahlrichs, Phys. Chem. Chem. Phys. 7, 3297 (2005).

----- AuxJ basis set information -----
Your calculation utilizes the auxiliary basis: def2/J
   F. Weigend, Phys. Chem. Chem. Phys. 8, 1057 (2006).

================================================================================
                                        WARNINGS
                       Please study these warnings very carefully!
================================================================================

WARNING: Functional chosen is sensitive to the integration grid.
         DEFGRID3 seems to be a minimum grid for robust results!

================================================================================
                                       INPUT FILE
================================================================================
NAME = data/single_point_PO_M06-2x/521585/521585.inp
|  1> ! RIJCOSX M062X def2-TZVP D3ZERO NormalSCF
|  2> %pal
|  3> nprocs 6
|  4> end
|  5> 
|  6> * xyz 0 1
|  7>   C          -1.30177737909722      3.62053421195360     -0.58324364829551
|  8>   C          -1.37221793540226      3.10257314756922      0.69183220009230
|  9>   O          -0.87752743652798      1.83233493468242      0.72186670597696
| 10>   C          -0.48081466723545      1.52541393875688     -0.55677772514376
| 11>   C          -0.72054738846442      2.59307308204507     -1.39960762715719
| 12>   P           0.23997478883023     -0.08329496118399     -0.96175433035497
| 13>   O           0.60106489925951     -0.20868654809967     -2.42374872782733
| 14>   C          -0.96865499496837     -1.32081782177473     -0.43313491489213
| 15>   C          -1.56149349431298     -2.31559904472799     -1.18590727253230
| 16>   C          -2.43851911398364     -3.01917350968753     -0.29382523520501
| 17>   C          -2.31379884104962     -2.40179808326986      0.93189051755324
| 18>   O          -1.42544911681838     -1.36986155316439      0.86128921432185
| 19>   C           1.66926084256816     -0.28089388915688      0.12902482554539
| 20>   C           2.98473454821700     -0.52068870072148     -0.21710030367651
| 21>   C           3.71339517015198     -0.59172049277039      1.01741033407834
| 22>   C           2.78931717406519     -0.39019305611287      2.01968175356705
| 23>   O           1.54545598259753     -0.20040362244203      1.49460491369241
| 24>   H          -1.62688332543441      4.61765980961843     -0.90048026869022
| 25>   H          -1.73312792386575      3.49534934944472      1.64803635303047
| 26>   H          -0.49852968605442      2.61518599043985     -2.47175126382328
| 27>   H          -1.37553827472383     -2.50072746790616     -2.24912650555847
| 28>   H          -3.08065450868135     -3.87497806742425     -0.53014758695968
| 29>   H          -2.77029340752422     -2.57038720825592      1.91273192680186
| 30>   H           3.36053375133398     -0.62932638694510     -1.23997358803509
| 31>   H           4.78680343900769     -0.76959494743737      1.14680116917686
| 32>   H           2.85528589811305     -0.35397610342958      3.11201808431473
| 33> **                         ****END OF INPUT****
================================================================================

                       ****************************
                       * Single Point Calculation *
                       ****************************

---------------------------------
CARTESIAN COORDINATES (ANGSTROEM)
---------------------------------
  C     -1.301777    3.620534   -0.583244
  C     -1.372218    3.102573    0.691832
  O     -0.877527    1.832335    0.721867
  C     -0.480815    1.525414   -0.556778
  C     -0.720547    2.593073   -1.399608
  P      0.239975   -0.083295   -0.961754
  O      0.601065   -0.208687   -2.423749
  C     -0.968655   -1.320818   -0.433135
  C     -1.561493   -2.315599   -1.185907
  C     -2.438519   -3.019174   -0.293825
  C     -2.313799   -2.401798    0.931891
  O     -1.425449   -1.369862    0.861289
  C      1.669261   -0.280894    0.129025
  C      2.984735   -0.520689   -0.217100
  C      3.713395   -0.591720    1.017410
  C      2.789317   -0.390193    2.019682
  O      1.545456   -0.200404    1.494605
  H     -1.626883    4.617660   -0.900480
  H     -1.733128    3.495349    1.648036
  H     -0.498530    2.615186   -2.471751
  H     -1.375538   -2.500727   -2.249127
  H     -3.080655   -3.874978   -0.530148
  H     -2.770293   -2.570387    1.912732
  H      3.360534   -0.629326   -1.239974
  H      4.786803   -0.769595    1.146801
  H      2.855286   -0.353976    3.112018

----------------------------
CARTESIAN COORDINATES (A.U.)
----------------------------
  NO LB      ZA    FRAG     MASS         X           Y           Z
   0 C     6.0000    0    12.011   -2.460003    6.841818   -1.102171
   1 C     6.0000    0    12.011   -2.593116    5.863014    1.307373
   2 O     8.0000    0    15.999   -1.658287    3.462611    1.364130
   3 C     6.0000    0    12.011   -0.908608    2.882615   -1.052157
   4 C     6.0000    0    12.011   -1.361637    4.900198   -2.644875
   5 P    15.0000    0    30.974    0.453487   -0.157405   -1.817452
   6 O     8.0000    0    15.999    1.135848   -0.394360   -4.580221
   7 C     6.0000    0    12.011   -1.830493   -2.495984   -0.818506
   8 C     6.0000    0    12.011   -2.950795   -4.375848   -2.241040
   9 C     6.0000    0    12.011   -4.608133   -5.705411   -0.555249
  10 C     6.0000    0    12.011   -4.372446   -4.538741    1.761018
  11 O     8.0000    0    15.999   -2.693708   -2.588663    1.627601
  12 C     6.0000    0    12.011    3.154446   -0.530813    0.243822
  13 C     6.0000    0    12.011    5.640331   -0.983959   -0.410260
  14 C     6.0000    0    12.011    7.017300   -1.118190    1.922627
  15 C     6.0000    0    12.011    5.271046   -0.737358    3.816645
  16 O     8.0000    0    15.999    2.920489   -0.378708    2.824394
  17 H     1.0000    0     1.008   -3.074364    8.726112   -1.701661
  18 H     1.0000    0     1.008   -3.275137    6.605253    3.114337
  19 H     1.0000    0     1.008   -0.942085    4.941985   -4.670933
  20 H     1.0000    0     1.008   -2.599391   -4.725690   -4.250233
  21 H     1.0000    0     1.008   -5.821593   -7.322647   -1.001834
  22 H     1.0000    0     1.008   -5.235096   -4.857328    3.614540
  23 H     1.0000    0     1.008    6.350488   -1.189255   -2.343210
  24 H     1.0000    0     1.008    9.045748   -1.454324    2.167140
  25 H     1.0000    0     1.008    5.395708   -0.668918    5.880862

--------------------------------
INTERNAL COORDINATES (ANGSTROEM)
--------------------------------
 C      0   0   0     0.000000000000     0.00000000     0.00000000
 C      1   0   0     1.378065294292     0.00000000     0.00000000
 O      2   1   0     1.363497663620   110.60903731     0.00000000
 C      3   2   1     1.373503949865   107.00526506     0.00000000
 C      4   3   2     1.381206019246   110.19437793     0.00000000
 P      4   3   2     1.808725467143   121.48580616   180.04105039
 O      6   4   3     1.511137563612   112.68388835   179.86112954
 C      6   4   3     1.808780603383   106.06917462    56.12484990
 C      8   6   4     1.381199981999   128.33713327   123.85274418
 C      9   8   6     1.435270471592   106.05654165   179.98929540
 C     10   9   8     1.378073535841   106.13568934     0.00000000
 O     11  10   9     1.363467190190   110.60829571     0.00000000
 C      6   4   3     1.808784986308   106.08345090   303.60006039
 C     13   6   4     1.381222366958   128.34706859   236.29425204
 C     14  13   6     1.435272912087   106.05532213   179.97567993
 C     15  14  13     1.378071641426   106.13490234     0.00000000
 O     16  15  14     1.363420837653   110.61077411     0.00000000
 H      1   2   3     1.095715477294   126.49571806   179.99605286
 H      2   1   3     1.094922621297   133.63478268   179.99118324
 H      5   4   3     1.095113153306   125.29836511   180.01910129
 H      9   8   6     1.095119634669   125.31055876   359.97278233
 H     10   9   8     1.095713265460   127.36726173   180.00184308
 H     11  10   9     1.094924404871   133.63453037   179.99667834
 H     14  13   6     1.095124168205   125.31734391   359.96933985
 H     15  14  13     1.095712837142   127.36935620   179.99687460
 H     16  15  14     1.094925659433   133.63139984   180.00646084

---------------------------
INTERNAL COORDINATES (A.U.)
---------------------------
 C      0   0   0     0.000000000000     0.00000000     0.00000000
 C      1   0   0     2.604166000874     0.00000000     0.00000000
 O      2   1   0     2.576637168484   110.60903731     0.00000000
 C      3   2   1     2.595546309105   107.00526506     0.00000000
 C      4   3   2     2.610101110899   110.19437793     0.00000000
 P      4   3   2     3.417995784350   121.48580616   180.04105039
 O      6   4   3     2.855636145908   112.68388835   179.86112954
 C      6   4   3     3.418099976742   106.06917462    56.12484990
 C      8   6   4     2.610089702154   128.33713327   123.85274418
 C      9   8   6     2.712268119413   106.05654165   179.98929540
 C     10   9   8     2.604181575144   106.13568934     0.00000000
 O     11  10   9     2.576579582047   110.60829571     0.00000000
 C      6   4   3     3.418108259270   106.08345090   303.60006039
 C     13   6   4     2.610132003598   128.34706859   236.29425204
 C     14  13   6     2.712272731280   106.05532213   179.97567993
 C     15  14  13     2.604177995218   106.13490234     0.00000000
 O     16  15  14     2.576491988445   110.61077411     0.00000000
 H      1   2   3     2.070602172785   126.49571806   179.99605286
 H      2   1   3     2.069103892087   133.63478268   179.99118324
 H      5   4   3     2.069463945404   125.29836511   180.01910129
 H      9   8   6     2.069476193404   125.31055876   359.97278233
 H     10   9   8     2.070597993024   127.36726173   180.00184308
 H     11  10   9     2.069107262552   133.63453037   179.99667834
 H     14  13   6     2.069484760545   125.31734391   359.96933985
 H     15  14  13     2.070597183621   127.36935620   179.99687460
 H     16  15  14     2.069109633332   133.63139984   180.00646084

---------------------
BASIS SET INFORMATION
---------------------
There are 4 groups of distinct atoms

 Group   1 Type C   : 11s6p2d1f contracted to 5s3p2d1f pattern {62111/411/11/1}
 Group   2 Type O   : 11s6p2d1f contracted to 5s3p2d1f pattern {62111/411/11/1}
 Group   3 Type P   : 14s9p3d1f contracted to 5s5p2d1f pattern {73211/51111/21/1}
 Group   4 Type H   : 5s1p contracted to 3s1p pattern {311/1}

Atom   0C    basis set group =>   1
Atom   1C    basis set group =>   1
Atom   2O    basis set group =>   2
Atom   3C    basis set group =>   1
Atom   4C    basis set group =>   1
Atom   5P    basis set group =>   3
Atom   6O    basis set group =>   2
Atom   7C    basis set group =>   1
Atom   8C    basis set group =>   1
Atom   9C    basis set group =>   1
Atom  10C    basis set group =>   1
Atom  11O    basis set group =>   2
Atom  12C    basis set group =>   1
Atom  13C    basis set group =>   1
Atom  14C    basis set group =>   1
Atom  15C    basis set group =>   1
Atom  16O    basis set group =>   2
Atom  17H    basis set group =>   4
Atom  18H    basis set group =>   4
Atom  19H    basis set group =>   4
Atom  20H    basis set group =>   4
Atom  21H    basis set group =>   4
Atom  22H    basis set group =>   4
Atom  23H    basis set group =>   4
Atom  24H    basis set group =>   4
Atom  25H    basis set group =>   4
---------------------------------
AUXILIARY/J BASIS SET INFORMATION
---------------------------------
There are 4 groups of distinct atoms

 Group   1 Type C   : 12s5p4d2f1g contracted to 6s4p3d1f1g pattern {711111/2111/211/2/1}
 Group   2 Type O   : 12s5p4d2f1g contracted to 6s4p3d1f1g pattern {711111/2111/211/2/1}
 Group   3 Type P   : 14s5p5d2f1g contracted to 8s4p3d1f1g pattern {71111111/2111/311/2/1}
 Group   4 Type H   : 5s2p1d contracted to 3s1p1d pattern {311/2/1}

Atom   0C    basis set group =>   1
Atom   1C    basis set group =>   1
Atom   2O    basis set group =>   2
Atom   3C    basis set group =>   1
Atom   4C    basis set group =>   1
Atom   5P    basis set group =>   3
Atom   6O    basis set group =>   2
Atom   7C    basis set group =>   1
Atom   8C    basis set group =>   1
Atom   9C    basis set group =>   1
Atom  10C    basis set group =>   1
Atom  11O    basis set group =>   2
Atom  12C    basis set group =>   1
Atom  13C    basis set group =>   1
Atom  14C    basis set group =>   1
Atom  15C    basis set group =>   1
Atom  16O    basis set group =>   2
Atom  17H    basis set group =>   4
Atom  18H    basis set group =>   4
Atom  19H    basis set group =>   4
Atom  20H    basis set group =>   4
Atom  21H    basis set group =>   4
Atom  22H    basis set group =>   4
Atom  23H    basis set group =>   4
Atom  24H    basis set group =>   4
Atom  25H    basis set group =>   4


           ************************************************************
           *        Program running with 6 parallel MPI-processes     *
           *              working on a common directory               *
           ************************************************************
------------------------------------------------------------------------------
                             ORCA STARTUP CALCULATIONS
                           -- RI-GTO INTEGRALS CHOSEN --
------------------------------------------------------------------------------
------------------------------------------------------------------------------
                   ___                                                        
                  /   \      - P O W E R E D   B Y -                         
                 /     \                                                     
                 |  |  |   _    _      __       _____    __    __             
                 |  |  |  | |  | |    /  \     |  _  \  |  |  /  |          
                  \  \/   | |  | |   /    \    | | | |  |  | /  /          
                 / \  \   | |__| |  /  /\  \   | |_| |  |  |/  /          
                |  |  |   |  __  | /  /__\  \  |    /   |      \           
                |  |  |   | |  | | |   __   |  |    \   |  |\   \          
                \     /   | |  | | |  |  |  |  | |\  \  |  | \   \       
                 \___/    |_|  |_| |__|  |__|  |_| \__\ |__|  \__/        
                                                                              
                      - O R C A' S   B I G   F R I E N D -                    
                                      &                                       
                       - I N T E G R A L  F E E D E R -                       
                                                                              
 v1 FN, 2020, v2 2021, v3 2022-2024                                           
------------------------------------------------------------------------------


----------------------
SHARK INTEGRAL PACKAGE
----------------------

Number of atoms                             ...     26
Number of basis functions                   ...    587
Number of shells                            ...    225
Maximum angular momentum                    ...      3
Integral batch strategy                     ... SHARK/LIBINT Hybrid
RI-J (if used) integral strategy            ... SPLIT-RIJ (Revised 2003 algorithm where possible)
Printlevel                                  ...      1
Contraction scheme used                     ... SEGMENTED contraction
Prescreening option                         ... SCHWARTZ
   Thresh                                   ... 1.000e-10
   Tcut                                     ... 1.000e-11
   Tpresel                                  ... 1.000e-11 
Coulomb Range Separation                    ... NOT USED
Exchange Range Separation                   ... NOT USED
Multipole approximations                    ... NOT USED
Finite Nucleus Model                        ... NOT USED
CABS basis                                  ... NOT available
Auxiliary Coulomb fitting basis             ... AVAILABLE
   # of basis functions in Aux-J            ...    934
   # of shells in Aux-J                     ...    302
   Maximum angular momentum in Aux-J        ...      4
Auxiliary J/K fitting basis                 ... NOT available
Auxiliary Correlation fitting basis         ... NOT available
Auxiliary 'external' fitting basis          ... NOT available

Checking pre-screening integrals            ... done (  0.0 sec) Dimension = 225
Check shell pair data                       ... done (  0.0 sec)
Shell pair information
Shell pair cut-off parameter TPreSel        ...   1.0e-11
Total number of shell pairs                 ...     25425
Shell pairs after pre-screening             ...     19167
Total number of primitive shell pairs       ...     81016
Primitive shell pairs kept                  ...     40611
          la=0 lb=0:   4450 shell pairs
          la=1 lb=0:   5413 shell pairs
          la=1 lb=1:   1646 shell pairs
          la=2 lb=0:   2784 shell pairs
          la=2 lb=1:   1735 shell pairs
          la=2 lb=2:    487 shell pairs
          la=3 lb=0:   1289 shell pairs
          la=3 lb=1:    831 shell pairs
          la=3 lb=2:    430 shell pairs
          la=3 lb=3:    102 shell pairs

Calculating one electron integrals          ... done (  0.0 sec)
Calculating RI/J V-Matrix + Cholesky decomp.... done (  0.0 sec)
Calculating Nuclear repulsion               ... done (  0.0 sec) ENN=   1306.780986079916 Eh

Diagonalization of the overlap matrix:
Smallest eigenvalue                        ... 3.433e-05
Time for diagonalization                   ...    0.060 sec
Threshold for overlap eigenvalues          ... 1.000e-07
Number of eigenvalues below threshold      ... 0
Time for construction of square roots      ...    0.033 sec
Total time needed                          ...    0.096 sec

-------------------
DFT GRID GENERATION
-------------------

General Integration Accuracy     IntAcc      ... 4.388
Radial Grid Type                 RadialGrid  ... OptM3 with GC (2021)
Angular Grid (max. ang.)         AngularGrid ... 4 (Lebedev-302)
Angular grid pruning method      GridPruning ... 4 (adaptive)
Weight generation scheme         WeightScheme... mBecke (2022)
Basis function cutoff            BFCut       ... 1.0000e-10
Integration weight cutoff        WCut        ... 1.0000e-14
Partially contracted basis set               ... off
Rotationally invariant grid construction     ... off
Angular grids for H and He will be reduced by one unit

Total number of grid points                  ...   132561
Total number of batches                      ...     2085
Average number of points per batch           ...       63
Average number of grid points per atom       ...     5099

--------------------
COSX GRID GENERATION
--------------------

GRIDX 1
-------
General Integration Accuracy     IntAcc      ... 3.816
Radial Grid Type                 RadialGrid  ... OptM3 with GC (2021)
Angular Grid (max. ang.)         AngularGrid ... 1 (Lebedev-50)
Angular grid pruning method      GridPruning ... 4 (adaptive)
Weight generation scheme         WeightScheme... mBecke (2022)
Basis function cutoff            BFCut       ... 1.0000e-10
Integration weight cutoff        WCut        ... 1.0000e-14
Partially contracted basis set               ... on
Rotationally invariant grid construction     ... off
Angular grids for H and He will be reduced by one unit

Total number of grid points                  ...    17839
Total number of batches                      ...      152
Average number of points per batch           ...      117
Average number of grid points per atom       ...      686
UseSFitting                                  ... on

GRIDX 2
-------
General Integration Accuracy     IntAcc      ... 4.020
Radial Grid Type                 RadialGrid  ... OptM3 with GC (2021)
Angular Grid (max. ang.)         AngularGrid ... 2 (Lebedev-110)
Angular grid pruning method      GridPruning ... 4 (adaptive)
Weight generation scheme         WeightScheme... mBecke (2022)
Basis function cutoff            BFCut       ... 1.0000e-10
Integration weight cutoff        WCut        ... 1.0000e-14
Partially contracted basis set               ... on
Rotationally invariant grid construction     ... off
Angular grids for H and He will be reduced by one unit

Total number of grid points                  ...    37315
Total number of batches                      ...      309
Average number of points per batch           ...      120
Average number of grid points per atom       ...     1435
UseSFitting                                  ... on

GRIDX 3
-------
General Integration Accuracy     IntAcc      ... 4.338
Radial Grid Type                 RadialGrid  ... OptM3 with GC (2021)
Angular Grid (max. ang.)         AngularGrid ... 3 (Lebedev-194)
Angular grid pruning method      GridPruning ... 4 (adaptive)
Weight generation scheme         WeightScheme... mBecke (2022)
Basis function cutoff            BFCut       ... 1.0000e-10
Integration weight cutoff        WCut        ... 1.0000e-14
Partially contracted basis set               ... on
Rotationally invariant grid construction     ... off
Angular grids for H and He will be reduced by one unit

Total number of grid points                  ...    82536
Total number of batches                      ...      658
Average number of points per batch           ...      125
Average number of grid points per atom       ...     3174
UseSFitting                                  ... on
Initializing property integral containers    ... done (  0.0 sec)

SHARK setup successfully completed in   2.9 seconds

Maximum memory used throughout the entire STARTUP-calculation: 51.3 MB


           ************************************************************
           *        Program running with 6 parallel MPI-processes     *
           *              working on a common directory               *
           ************************************************************
-------------------------------------------------------------------------------
                                 ORCA GUESS
                   Start orbitals & Density for SCF / CASSCF
-------------------------------------------------------------------------------

------------
SCF SETTINGS
------------
Hamiltonian:
 Density Functional     Method          .... DFT(GTOs)
 Exchange Functional    Exchange        .... M062X
 Correlation Functional Correlation     .... M062X
 Gradients option       PostSCFGGA      .... off
 Hybrid DFT is turned on
   Fraction HF Exchange ScalHFX         ....  0.540000
   Scaling of DF-GGA-X  ScalDFX         ....  0.460000
   Scaling of DF-GGA-C  ScalDFC         ....  1.000000
   Scaling of DF-LDA-C  ScalLDAC        ....  1.000000
   Perturbative correction              ....  0.000000
 RI-approximation to the Coulomb term is turned on
   Number of AuxJ basis functions       .... 934
   RIJ-COSX (HFX calculated with COS-X)).... on


General Settings:
 Integral files         IntName         .... data/single_point_PO_M06-2x/521585/521585
 Hartree-Fock type      HFTyp           .... RHF
 Total Charge           Charge          ....    0
 Multiplicity           Mult            ....    1
 Number of Electrons    NEL             ....  128
 Basis Dimension        Dim             ....  587
 Nuclear Repulsion      ENuc            ....   1306.7809860799 Eh

Convergence Acceleration:
 AO-DIIS                CNVDIIS         .... on
   Start iteration      DIISMaxIt       ....    12
   Startup error        DIISStart       ....  0.200000
   # of expansion vecs  DIISMaxEq       ....     5
   Bias factor          DIISBfac        ....   1.050
   Max. coefficient     DIISMaxC        ....  10.000
 MO-DIIS                CNVKDIIS        .... off
 Trust-Rad. Augm. Hess. CNVTRAH         .... auto
   Auto Start mean grad. ratio tolernc. ....  1.125000
   Auto Start start iteration           ....    50
   Auto Start num. interpolation iter.  ....    10
   Max. Number of Micro iterations      ....    24
   Max. Number of Macro iterations      .... Maxiter - #DIIS iter
   Number of Davidson start vectors     ....     2
   Converg. threshold    (grad. norm)   ....   5.000e-05
   Grad. Scal. Fac. for Micro threshold ....   0.100
   Minimum threshold for Micro iter.    ....   1.000e-02
   NR start threshold (gradient norm)   ....   1.000e-04
   Initial trust radius                 ....   0.400
   Minimum AH scaling param. (alpha)    ....   1.000
   Maximum AH scaling param. (alpha)    .... 1000.000
   Quad. conv. algorithm                .... NR
   White noise on init. David. guess    .... on
   Maximum white noise                  ....   0.010
   Pseudo random numbers                .... off
   Inactive MOs                         .... canonical
   Orbital update algorithm             .... Taylor
   Preconditioner                       .... Diag
   Full preconditioner red. dimension   ....   250
 SOSCF                  CNVSOSCF        .... on
   Start iteration      SOSCFMaxIt      ....   150
   Startup grad/error   SOSCFStart      ....  0.003300
   Hessian update       SOSCFHessUp     .... L-BFGS
 Level Shifting         CNVShift        .... on
   Level shift para.    LevelShift      ....    0.2500
   Turn off err/grad.   ShiftErr        ....    0.0010
 Zerner damping         CNVZerner       .... off
 Static damping         CNVDamp         .... on
   Fraction old density DampFac         ....    0.7000
   Max. Damping (<1)    DampMax         ....    0.9800
   Min. Damping (>=0)   DampMin         ....    0.0000
   Turn off err/grad.   DampErr         ....    0.1000

SCF Procedure:
 Maximum # iterations   MaxIter         ....   125
 SCF integral mode      SCFMode         .... Direct
   Integral package                     .... SHARK and LIBINT hybrid scheme
 Reset frequency        DirectResetFreq ....    20
 Integral Threshold     Thresh          ....  1.000e-10 Eh
 Primitive CutOff       TCut            ....  1.000e-11 Eh

Convergence Tolerance:
 Convergence Check Mode ConvCheckMode   .... Total+1el-Energy
 Convergence forced     ConvForced      .... 0
 Energy Change          TolE            ....  1.000e-06 Eh
 1-El. energy change                    ....  1.000e-03 Eh
 Orbital Gradient       TolG            ....  5.000e-05
 Orbital Rotation angle TolX            ....  5.000e-05
 DIIS Error             TolErr          ....  1.000e-05

------------------------------
INITIAL GUESS: MODEL POTENTIAL
------------------------------
Loading Hartree-Fock densities                     ... done
Calculating cut-offs                               ... done
Initializing the effective Hamiltonian             ... done
Setting up the integral package (SHARK)            ... done
Starting the Coulomb interaction                   ... done (   0.3 sec)
Making the grid                                    ... done (   0.3 sec)
Mapping shells                                     ... done
Starting the XC term evaluation                    ... done (   0.3 sec)
  promolecular density results
     # of electrons  =    127.995892950
     EX              =   -119.172743466
     EC              =     -4.386732852
     EX+EC           =   -123.559476318
Transforming the Hamiltonian                       ... done (   0.0 sec)
Diagonalizing the Hamiltonian                      ... done (   0.1 sec)
Back transforming the eigenvectors                 ... done (   0.0 sec)
Now organizing SCF variables                       ... done
                      ------------------
                      INITIAL GUESS DONE (   1.0 sec)
                      ------------------
             **** ENERGY FILE WAS UPDATED (data/single_point_PO_M06-2x/521585/521585.en.tmp) ****
Finished Guess after   1.4 sec
Maximum memory used throughout the entire GUESS-calculation: 37.3 MB


           ************************************************************
           *        Program running with 6 parallel MPI-processes     *
           *              working on a common directory               *
           ************************************************************

-------------------------------------------------------------------------------------------
                                      ORCA LEAN-SCF
                              memory conserving SCF solver
-------------------------------------------------------------------------------------------

----------------------------------------D-I-I-S--------------------------------------------
Iteration    Energy (Eh)           Delta-E    RMSDP     MaxDP     DIISErr   Damp  Time(sec)
-------------------------------------------------------------------------------------------
               ***  Starting incremental Fock matrix formation  ***
    1    -1104.4343245461616334     0.00e+00  1.13e-03  6.37e-02  3.65e-01  0.700   9.3
    2    -1104.6346556968735513    -2.00e-01  8.73e-04  4.82e-02  1.51e-01  0.700   6.1
                               ***Turning on AO-DIIS***
    3    -1104.7166993152716259    -8.20e-02  4.58e-04  1.66e-02  4.57e-02  0.700   5.2
    4    -1104.7681567121469470    -5.15e-02  9.86e-04  3.36e-02  3.17e-02  0.000   5.4
    5    -1104.8811905400741580    -1.13e-01  1.37e-04  8.62e-03  6.67e-03  0.000   5.4
                              *** Initializing SOSCF ***
---------------------------------------S-O-S-C-F--------------------------------------
Iteration    Energy (Eh)           Delta-E    RMSDP     MaxDP     MaxGrad    Time(sec)
--------------------------------------------------------------------------------------
    6    -1104.8816241716783679    -4.34e-04  3.72e-05  1.54e-03  1.32e-03     4.8
               *** Restarting incremental Fock matrix formation ***
    7    -1104.8816361338319894    -1.20e-05  4.21e-05  2.72e-03  3.95e-04     9.4
    8    -1104.8816361397268793    -5.89e-09  1.15e-05  5.35e-04  4.42e-04     7.5
                 **** Energy Check signals convergence ****

               *****************************************************
               *                     SUCCESS                       *
               *           SCF CONVERGED AFTER   8 CYCLES          *
               *****************************************************

Recomputing exchange energy using gridx3       ... done (   14.611 sec)
Old exchange energy                            :    -65.267287520 Eh
New exchange energy                            :    -65.267292555 Eh
Exchange energy change after final integration :     -0.000005035 Eh
Total energy after final integration           :  -1104.881641175 Eh
             **** ENERGY FILE WAS UPDATED (data/single_point_PO_M06-2x/521585/521585.en.tmp) ****

----------------
TOTAL SCF ENERGY
----------------

Total Energy       :      -1104.88164117466272 Eh          -30065.35795 eV

Components:
Nuclear Repulsion  :       1306.78098607991637 Eh           35559.31843 eV
Electronic Energy  :      -2411.66262221964280 Eh          -65624.67624 eV
One Electron Energy:      -4108.55586453111755 Eh         -111799.48885 eV
Two Electron Energy:       1696.89324231147452 Eh           46174.81261 eV

Virial components:
Potential Energy   :      -2204.63638719252594 Eh          -59991.20599 eV
Kinetic Energy     :       1099.75474601786345 Eh           29925.84804 eV
Virial Ratio       :          2.00466185317714

DFT components:
N(Alpha)           :       64.000033358890 electrons
N(Beta)            :       64.000033358890 electrons
N(Total)           :      128.000066717780 electrons
E(XC)              :      -60.488877406087 Eh       

---------------
SCF CONVERGENCE
---------------

  Last Energy change         ...    5.8949e-09  Tolerance :   1.0000e-06
  Last MAX-Density change    ...    5.3490e-04  Tolerance :   1.0000e-05
  Last RMS-Density change    ...    1.1481e-05  Tolerance :   1.0000e-06
  Last DIIS Error            ...    1.3223e-03  Tolerance :   1.0000e-05
  Last Orbital Gradient      ...    4.4211e-04  Tolerance :   5.0000e-05
  Last Orbital Rotation      ...    4.3658e-04  Tolerance :   5.0000e-05


----------------
ORBITAL ENERGIES
----------------

  NO   OCC          E(Eh)            E(eV) 
   0   2.0000     -78.120555     -2125.7684 
   1   2.0000     -19.707510      -536.2686 
   2   2.0000     -19.707493      -536.2681 
   3   2.0000     -19.707480      -536.2678 
   4   2.0000     -19.577357      -532.7270 
   5   2.0000     -10.609899      -288.7100 
   6   2.0000     -10.609869      -288.7092 
   7   2.0000     -10.609860      -288.7090 
   8   2.0000     -10.601463      -288.4805 
   9   2.0000     -10.601459      -288.4804 
  10   2.0000     -10.601447      -288.4800 
  11   2.0000     -10.559366      -287.3350 
  12   2.0000     -10.559365      -287.3349 
  13   2.0000     -10.559349      -287.3345 
  14   2.0000     -10.555147      -287.2202 
  15   2.0000     -10.555144      -287.2201 
  16   2.0000     -10.555100      -287.2189 
  17   2.0000      -6.924958      -188.4377 
  18   2.0000      -5.042376      -137.2100 
  19   2.0000      -5.042370      -137.2099 
  20   2.0000      -5.040687      -137.1641 
  21   2.0000      -1.244807       -33.8729 
  22   2.0000      -1.241833       -33.7920 
  23   2.0000      -1.241808       -33.7913 
  24   2.0000      -1.075384       -29.2627 
  25   2.0000      -0.908368       -24.7179 
  26   2.0000      -0.907442       -24.6928 
  27   2.0000      -0.907436       -24.6926 
  28   2.0000      -0.875409       -23.8211 
  29   2.0000      -0.844790       -22.9879 
  30   2.0000      -0.844779       -22.9876 
  31   2.0000      -0.734864       -19.9967 
  32   2.0000      -0.689297       -18.7567 
  33   2.0000      -0.686239       -18.6735 
  34   2.0000      -0.686230       -18.6733 
  35   2.0000      -0.653035       -17.7700 
  36   2.0000      -0.653027       -17.7698 
  37   2.0000      -0.640562       -17.4306 
  38   2.0000      -0.622852       -16.9487 
  39   2.0000      -0.622826       -16.9480 
  40   2.0000      -0.569608       -15.4998 
  41   2.0000      -0.550416       -14.9776 
  42   2.0000      -0.550407       -14.9773 
  43   2.0000      -0.537265       -14.6197 
  44   2.0000      -0.517702       -14.0874 
  45   2.0000      -0.517686       -14.0869 
  46   2.0000      -0.491421       -13.3723 
  47   2.0000      -0.478557       -13.0222 
  48   2.0000      -0.477391       -12.9905 
  49   2.0000      -0.477385       -12.9903 
  50   2.0000      -0.470243       -12.7960 
  51   2.0000      -0.470215       -12.7952 
  52   2.0000      -0.462234       -12.5780 
  53   2.0000      -0.449904       -12.2425 
  54   2.0000      -0.441456       -12.0126 
  55   2.0000      -0.441396       -12.0110 
  56   2.0000      -0.357635        -9.7318 
  57   2.0000      -0.357632        -9.7317 
  58   2.0000      -0.352632        -9.5956 
  59   2.0000      -0.352604        -9.5949 
  60   2.0000      -0.351061        -9.5528 
  61   2.0000      -0.304197        -8.2776 
  62   2.0000      -0.304159        -8.2766 
  63   2.0000      -0.282799        -7.6953 
  64   0.0000      -0.000902        -0.0245 
  65   0.0000      -0.000884        -0.0240 
  66   0.0000       0.042453         1.1552 
  67   0.0000       0.045281         1.2322 
  68   0.0000       0.076296         2.0761 
  69   0.0000       0.076310         2.0765 
  70   0.0000       0.092432         2.5152 
  71   0.0000       0.098731         2.6866 
  72   0.0000       0.099496         2.7074 
  73   0.0000       0.099513         2.7079 
  74   0.0000       0.101289         2.7562 
*Only the first 10 virtual orbitals were printed.

                    ********************************
                    * MULLIKEN POPULATION ANALYSIS *
                    ********************************

-----------------------
MULLIKEN ATOMIC CHARGES
-----------------------
   0 C :   -0.196962
   1 C :    0.002965
   2 O :   -0.217318
   3 C :    0.043045
   4 C :   -0.174378
   5 P :    0.702366
   6 O :   -0.585779
   7 C :    0.040795
   8 C :   -0.172097
   9 C :   -0.198017
  10 C :    0.003316
  11 O :   -0.217105
  12 C :    0.042278
  13 C :   -0.173353
  14 C :   -0.197191
  15 C :    0.002730
  16 O :   -0.216938
  17 H :    0.154301
  18 H :    0.167379
  19 H :    0.181911
  20 H :    0.182476
  21 H :    0.154548
  22 H :    0.167287
  23 H :    0.181785
  24 H :    0.154406
  25 H :    0.167550
Sum of atomic charges:   -0.0000000

--------------------------------
MULLIKEN REDUCED ORBITAL CHARGES
--------------------------------
  0 C s       :     3.216209  s :     3.216209
      pz      :     0.896819  p :     2.917475
      px      :     1.027589
      py      :     0.993067
      dz2     :     0.011396  d :     0.056141
      dxz     :     0.015142
      dyz     :     0.010014
      dx2y2   :     0.011004
      dxy     :     0.008586
      f0      :     0.000927  f :     0.007136
      f+1     :     0.001064
      f-1     :     0.001135
      f+2     :     0.001027
      f-2     :     0.000906
      f+3     :     0.001033
      f-3     :     0.001045

  1 C s       :     3.186246  s :     3.186246
      pz      :     1.010249  p :     2.693696
      px      :     0.970955
      py      :     0.712493
      dz2     :     0.019732  d :     0.105033
      dxz     :     0.017201
      dyz     :     0.023149
      dx2y2   :     0.020834
      dxy     :     0.024116
      f0      :     0.002334  f :     0.012060
      f+1     :     0.001732
      f-1     :     0.001083
      f+2     :     0.001149
      f-2     :     0.001196
      f+3     :     0.001793
      f-3     :     0.002773

  2 O s       :     3.789200  s :     3.789200
      pz      :     1.435407  p :     4.380131
      px      :     1.559968
      py      :     1.384756
      dz2     :     0.012875  d :     0.045706
      dxz     :     0.007409
      dyz     :     0.008742
      dx2y2   :     0.009048
      dxy     :     0.007632
      f0      :     0.000381  f :     0.002281
      f+1     :     0.000360
      f-1     :     0.000336
      f+2     :     0.000198
      f-2     :     0.000211
      f+3     :     0.000420
      f-3     :     0.000376

  3 C s       :     3.173810  s :     3.173810
      pz      :     0.675733  p :     2.646242
      px      :     1.012342
      py      :     0.958167
      dz2     :     0.033630  d :     0.124254
      dxz     :     0.033246
      dyz     :     0.028052
      dx2y2   :     0.013373
      dxy     :     0.015954
      f0      :     0.002427  f :     0.012650
      f+1     :     0.002016
      f-1     :     0.002585
      f+2     :     0.001386
      f-2     :     0.001631
      f+3     :     0.001324
      f-3     :     0.001282

  4 C s       :     3.207736  s :     3.207736
      pz      :     1.020796  p :     2.894139
      px      :     0.970501
      py      :     0.902842
      dz2     :     0.015055  d :     0.065307
      dxz     :     0.008334
      dyz     :     0.011181
      dx2y2   :     0.015527
      dxy     :     0.015211
      f0      :     0.001113  f :     0.007195
      f+1     :     0.000761
      f-1     :     0.001546
      f+2     :     0.001013
      f-2     :     0.001125
      f+3     :     0.000771
      f-3     :     0.000865

  5 P s       :     5.245491  s :     5.245491
      pz      :     2.617254  p :     8.248591
      px      :     2.810686
      py      :     2.820651
      dz2     :     0.109017  d :     0.738913
      dxz     :     0.209954
      dyz     :     0.183869
      dx2y2   :     0.101774
      dxy     :     0.134298
      f0      :     0.010389  f :     0.064638
      f+1     :     0.012191
      f-1     :     0.016181
      f+2     :     0.007907
      f-2     :     0.007116
      f+3     :     0.004446
      f-3     :     0.006407

  6 O s       :     3.873177  s :     3.873177
      pz      :     1.380861  p :     4.685736
      px      :     1.644876
      py      :     1.659999
      dz2     :     0.009718  d :     0.025546
      dxz     :     0.007521
      dyz     :     0.007169
      dx2y2   :     0.000586
      dxy     :     0.000552
      f0      :     0.000489  f :     0.001321
      f+1     :     0.000376
      f-1     :     0.000325
      f+2     :     0.000063
      f-2     :     0.000062
      f+3     :     0.000003
      f-3     :     0.000003

  7 C s       :     3.174725  s :     3.174725
      pz      :     0.670911  p :     2.647397
      px      :     0.976592
      py      :     0.999894
      dz2     :     0.033356  d :     0.124432
      dxz     :     0.030680
      dyz     :     0.029829
      dx2y2   :     0.016998
      dxy     :     0.013570
      f0      :     0.002320  f :     0.012651
      f+1     :     0.002188
      f-1     :     0.002813
      f+2     :     0.001079
      f-2     :     0.001564
      f+3     :     0.001139
      f-3     :     0.001549

  8 C s       :     3.205657  s :     3.205657
      pz      :     1.021043  p :     2.893916
      px      :     0.944547
      py      :     0.928326
      dz2     :     0.015499  d :     0.065331
      dxz     :     0.009182
      dyz     :     0.009992
      dx2y2   :     0.023018
      dxy     :     0.007640
      f0      :     0.001044  f :     0.007193
      f+1     :     0.001058
      f-1     :     0.001313
      f+2     :     0.001258
      f-2     :     0.000868
      f+3     :     0.000703
      f-3     :     0.000949

  9 C s       :     3.216381  s :     3.216381
      pz      :     0.895832  p :     2.918241
      px      :     1.009951
      py      :     1.012457
      dz2     :     0.012079  d :     0.056249
      dxz     :     0.011968
      dyz     :     0.012859
      dx2y2   :     0.009147
      dxy     :     0.010195
      f0      :     0.000996  f :     0.007147
      f+1     :     0.001113
      f-1     :     0.000827
      f+2     :     0.000983
      f-2     :     0.001187
      f+3     :     0.001224
      f-3     :     0.000819

 10 C s       :     3.186094  s :     3.186094
      pz      :     1.014957  p :     2.693455
      px      :     0.874106
      py      :     0.804392
      dz2     :     0.020503  d :     0.105080
      dxz     :     0.020116
      dyz     :     0.017484
      dx2y2   :     0.031436
      dxy     :     0.015541
      f0      :     0.002416  f :     0.012055
      f+1     :     0.001659
      f-1     :     0.000915
      f+2     :     0.000359
      f-2     :     0.002178
      f+3     :     0.001906
      f-3     :     0.002621

 11 O s       :     3.789243  s :     3.789243
      pz      :     1.414031  p :     4.379873
      px      :     1.464573
      py      :     1.501269
      dz2     :     0.013207  d :     0.045709
      dxz     :     0.007633
      dyz     :     0.008159
      dx2y2   :     0.008926
      dxy     :     0.007784
      f0      :     0.000413  f :     0.002281
      f+1     :     0.000425
      f-1     :     0.000288
      f+2     :     0.000108
      f-2     :     0.000275
      f+3     :     0.000384
      f-3     :     0.000387

 12 C s       :     3.173148  s :     3.173148
      pz      :     0.630952  p :     2.647575
      px      :     0.964763
      py      :     1.051860
      dz2     :     0.025178  d :     0.124352
      dxz     :     0.037188
      dyz     :     0.031595
      dx2y2   :     0.010062
      dxy     :     0.020329
      f0      :     0.002196  f :     0.012647
      f+1     :     0.003224
      f-1     :     0.003114
      f+2     :     0.000946
      f-2     :     0.000261
      f+3     :     0.001247
      f-3     :     0.001658

 13 C s       :     3.207500  s :     3.207500
      pz      :     1.008436  p :     2.893260
      px      :     0.906966
      py      :     0.977858
      dz2     :     0.015813  d :     0.065400
      dxz     :     0.010465
      dyz     :     0.010990
      dx2y2   :     0.008945
      dxy     :     0.019187
      f0      :     0.001559  f :     0.007193
      f+1     :     0.001088
      f-1     :     0.000880
      f+2     :     0.001091
      f-2     :     0.000660
      f+3     :     0.000786
      f-3     :     0.001129

 14 C s       :     3.216088  s :     3.216088
      pz      :     0.881836  p :     2.917652
      px      :     0.991852
      py      :     1.043965
      dz2     :     0.008346  d :     0.056304
      dxz     :     0.010939
      dyz     :     0.021014
      dx2y2   :     0.008737
      dxy     :     0.007269
      f0      :     0.001101  f :     0.007146
      f+1     :     0.000911
      f-1     :     0.000676
      f+2     :     0.001144
      f-2     :     0.001222
      f+3     :     0.001168
      f-3     :     0.000924

 15 C s       :     3.185786  s :     3.185786
      pz      :     0.990424  p :     2.694191
      px      :     0.701556
      py      :     1.002212
      dz2     :     0.022449  d :     0.105231
      dxz     :     0.021945
      dyz     :     0.010921
      dx2y2   :     0.016406
      dxy     :     0.033510
      f0      :     0.001760  f :     0.012063
      f+1     :     0.002477
      f-1     :     0.000707
      f+2     :     0.001555
      f-2     :     0.001680
      f+3     :     0.001621
      f-3     :     0.002263

 16 O s       :     3.789116  s :     3.789116
      pz      :     1.282759  p :     4.379836
      px      :     1.468375
      py      :     1.628702
      dz2     :     0.012408  d :     0.045705
      dxz     :     0.009917
      dyz     :     0.009130
      dx2y2   :     0.007174
      dxy     :     0.007077
      f0      :     0.000548  f :     0.002282
      f+1     :     0.000381
      f-1     :     0.000359
      f+2     :     0.000278
      f-2     :     0.000142
      f+3     :     0.000290
      f-3     :     0.000283

 17 H s       :     0.825536  s :     0.825536
      pz      :     0.003541  p :     0.020163
      px      :     0.004810
      py      :     0.011812

 18 H s       :     0.812547  s :     0.812547
      pz      :     0.011491  p :     0.020073
      px      :     0.005013
      py      :     0.003569

 19 H s       :     0.797764  s :     0.797764
      pz      :     0.013526  p :     0.020326
      px      :     0.004050
      py      :     0.002750

 20 H s       :     0.797205  s :     0.797205
      pz      :     0.013437  p :     0.020319
      px      :     0.003638
      py      :     0.003244

 21 H s       :     0.825294  s :     0.825294
      pz      :     0.003169  p :     0.020158
      px      :     0.007198
      py      :     0.009792

 22 H s       :     0.812632  s :     0.812632
      pz      :     0.012029  p :     0.020081
      px      :     0.005177
      py      :     0.002875

 23 H s       :     0.797890  s :     0.797890
      pz      :     0.012862  p :     0.020325
      px      :     0.003696
      py      :     0.003767

 24 H s       :     0.825435  s :     0.825435
      pz      :     0.002793  p :     0.020159
      px      :     0.013029
      py      :     0.004337

 25 H s       :     0.812357  s :     0.812357
      pz      :     0.014334  p :     0.020093
      px      :     0.001751
      py      :     0.004008



                     *******************************
                     * LOEWDIN POPULATION ANALYSIS *
                     *******************************

----------------------
LOEWDIN ATOMIC CHARGES
----------------------
   0 C :   -0.184422
   1 C :   -0.216554
   2 O :    0.331203
   3 C :   -0.339924
   4 C :   -0.145094
   5 P :    0.623016
   6 O :   -0.283126
   7 C :   -0.339952
   8 C :   -0.145052
   9 C :   -0.184452
  10 C :   -0.216589
  11 O :    0.331237
  12 C :   -0.339937
  13 C :   -0.145034
  14 C :   -0.184403
  15 C :   -0.216679
  16 O :    0.331268
  17 H :    0.146943
  18 H :    0.137979
  19 H :    0.156562
  20 H :    0.156601
  21 H :    0.146977
  22 H :    0.137977
  23 H :    0.156561
  24 H :    0.146951
  25 H :    0.137941

-------------------------------
LOEWDIN REDUCED ORBITAL CHARGES
-------------------------------
  0 C s       :     2.782249  s :     2.782249
      pz      :     1.046259  p :     2.996704
      px      :     0.958694
      py      :     0.991750
      dz2     :     0.107022  d :     0.359135
      dxz     :     0.069236
      dyz     :     0.096697
      dx2y2   :     0.049447
      dxy     :     0.036734
      f0      :     0.007611  f :     0.046335
      f+1     :     0.006111
      f-1     :     0.011646
      f+2     :     0.007182
      f-2     :     0.006464
      f+3     :     0.003889
      f-3     :     0.003432

  1 C s       :     2.807260  s :     2.807260
      pz      :     1.061147  p :     2.831873
      px      :     0.933001
      py      :     0.837725
      dz2     :     0.109160  d :     0.496131
      dxz     :     0.067284
      dyz     :     0.135491
      dx2y2   :     0.090159
      dxy     :     0.094036
      f0      :     0.017420  f :     0.081290
      f+1     :     0.009315
      f-1     :     0.011454
      f+2     :     0.008220
      f-2     :     0.006682
      f+3     :     0.012965
      f-3     :     0.015232

  2 O s       :     3.240580  s :     3.240580
      pz      :     1.445803  p :     4.296063
      px      :     1.457857
      py      :     1.392402
      dz2     :     0.030163  d :     0.123928
      dxz     :     0.018467
      dyz     :     0.029857
      dx2y2   :     0.024039
      dxy     :     0.021402
      f0      :     0.002086  f :     0.008225
      f+1     :     0.001207
      f-1     :     0.001507
      f+2     :     0.000766
      f-2     :     0.000726
      f+3     :     0.000965
      f-3     :     0.000968

  3 C s       :     2.798387  s :     2.798387
      pz      :     0.864338  p :     2.906310
      px      :     0.971808
      py      :     1.070165
      dz2     :     0.177864  d :     0.552872
      dxz     :     0.116149
      dyz     :     0.132236
      dx2y2   :     0.059666
      dxy     :     0.066957
      f0      :     0.018725  f :     0.082355
      f+1     :     0.012683
      f-1     :     0.021015
      f+2     :     0.010487
      f-2     :     0.010589
      f+3     :     0.004887
      f-3     :     0.003968

  4 C s       :     2.782079  s :     2.782079
      pz      :     1.009777  p :     2.948094
      px      :     0.921689
      py      :     1.016628
      dz2     :     0.102262  d :     0.367823
      dxz     :     0.035359
      dyz     :     0.090816
      dx2y2   :     0.070635
      dxy     :     0.068752
      f0      :     0.004506  f :     0.047098
      f+1     :     0.003156
      f-1     :     0.014056
      f+2     :     0.008926
      f-2     :     0.009019
      f+3     :     0.004119
      f-3     :     0.003317

  5 P s       :     4.632085  s :     4.632085
      pz      :     2.719341  p :     8.261680
      px      :     2.769779
      py      :     2.772560
      dz2     :     0.245819  d :     1.258909
      dxz     :     0.336045
      dyz     :     0.268010
      dx2y2   :     0.175142
      dxy     :     0.233892
      f0      :     0.043146  f :     0.224310
      f+1     :     0.043450
      f-1     :     0.049866
      f+2     :     0.026132
      f-2     :     0.024791
      f+3     :     0.015727
      f-3     :     0.021198

  6 O s       :     3.537116  s :     3.537116
      pz      :     1.517958  p :     4.702171
      px      :     1.590076
      py      :     1.594136
      dz2     :     0.022225  d :     0.041679
      dxz     :     0.010285
      dyz     :     0.007716
      dx2y2   :     0.000707
      dxy     :     0.000745
      f0      :     0.000963  f :     0.002160
      f+1     :     0.000629
      f-1     :     0.000369
      f+2     :     0.000079
      f-2     :     0.000110
      f+3     :     0.000005
      f-3     :     0.000005

  7 C s       :     2.798389  s :     2.798389
      pz      :     0.856548  p :     2.906378
      px      :     1.000282
      py      :     1.049548
      dz2     :     0.173663  d :     0.552837
      dxz     :     0.123768
      dyz     :     0.125203
      dx2y2   :     0.049095
      dxy     :     0.081109
      f0      :     0.018274  f :     0.082348
      f+1     :     0.016677
      f-1     :     0.019500
      f+2     :     0.009058
      f-2     :     0.008830
      f+3     :     0.004929
      f-3     :     0.005080

  8 C s       :     2.782080  s :     2.782080
      pz      :     1.005628  p :     2.948043
      px      :     0.957122
      py      :     0.985294
      dz2     :     0.101141  d :     0.367833
      dxz     :     0.056581
      dyz     :     0.069321
      dx2y2   :     0.083753
      dxy     :     0.057037
      f0      :     0.004490  f :     0.047096
      f+1     :     0.007398
      f-1     :     0.009656
      f+2     :     0.010852
      f-2     :     0.006729
      f+3     :     0.004160
      f-3     :     0.003811

  9 C s       :     2.782259  s :     2.782259
      pz      :     1.043484  p :     2.996738
      px      :     0.970908
      py      :     0.982346
      dz2     :     0.108638  d :     0.359121
      dxz     :     0.076533
      dyz     :     0.086149
      dx2y2   :     0.029737
      dxy     :     0.058064
      f0      :     0.007765  f :     0.046334
      f+1     :     0.007854
      f-1     :     0.007968
      f+2     :     0.008211
      f-2     :     0.007655
      f+3     :     0.004212
      f-3     :     0.002670

 10 C s       :     2.807247  s :     2.807247
      pz      :     1.055216  p :     2.831893
      px      :     0.891660
      py      :     0.885016
      dz2     :     0.113954  d :     0.496153
      dxz     :     0.098243
      dyz     :     0.089126
      dx2y2   :     0.101879
      dxy     :     0.092952
      f0      :     0.017186  f :     0.081296
      f+1     :     0.009933
      f-1     :     0.009474
      f+2     :     0.003426
      f-2     :     0.013288
      f+3     :     0.013993
      f-3     :     0.013996

 11 O s       :     3.240576  s :     3.240576
      pz      :     1.427348  p :     4.296027
      px      :     1.411974
      py      :     1.456705
      dz2     :     0.031433  d :     0.123935
      dxz     :     0.023987
      dyz     :     0.024950
      dx2y2   :     0.023462
      dxy     :     0.020104
      f0      :     0.002047  f :     0.008225
      f+1     :     0.001313
      f-1     :     0.001527
      f+2     :     0.000258
      f-2     :     0.001075
      f+3     :     0.000903
      f-3     :     0.001101

 12 C s       :     2.798414  s :     2.798414
      pz      :     0.837901  p :     2.906320
      px      :     1.093178
      py      :     0.975241
      dz2     :     0.149276  d :     0.552855
      dxz     :     0.187288
      dyz     :     0.096594
      dx2y2   :     0.059873
      dxy     :     0.059825
      f0      :     0.021838  f :     0.082346
      f+1     :     0.023530
      f-1     :     0.017674
      f+2     :     0.005733
      f-2     :     0.002205
      f+3     :     0.005617
      f-3     :     0.005750

 13 C s       :     2.782096  s :     2.782096
      pz      :     1.005316  p :     2.948009
      px      :     1.035874
      py      :     0.906819
      dz2     :     0.104982  d :     0.367833
      dxz     :     0.105859
      dyz     :     0.033800
      dx2y2   :     0.054063
      dxy     :     0.069129
      f0      :     0.010984  f :     0.047096
      f+1     :     0.008494
      f-1     :     0.004490
      f+2     :     0.007688
      f-2     :     0.005692
      f+3     :     0.004844
      f-3     :     0.004905

 14 C s       :     2.782252  s :     2.782252
      pz      :     1.037867  p :     2.996705
      px      :     1.007131
      py      :     0.951708
      dz2     :     0.103757  d :     0.359111
      dxz     :     0.107165
      dyz     :     0.076686
      dx2y2   :     0.050108
      dxy     :     0.021395
      f0      :     0.009532  f :     0.046335
      f+1     :     0.008976
      f-1     :     0.002544
      f+2     :     0.010136
      f-2     :     0.010082
      f+3     :     0.003165
      f-3     :     0.001900

 15 C s       :     2.807234  s :     2.807234
      pz      :     1.011879  p :     2.831946
      px      :     0.871476
      py      :     0.948591
      dz2     :     0.144782  d :     0.496196
      dxz     :     0.117524
      dyz     :     0.026025
      dx2y2   :     0.096991
      dxy     :     0.110874
      f0      :     0.010955  f :     0.081303
      f+1     :     0.020790
      f-1     :     0.002439
      f+2     :     0.013843
      f-2     :     0.013169
      f+3     :     0.010200
      f-3     :     0.009908

 16 O s       :     3.240544  s :     3.240544
      pz      :     1.331062  p :     4.296025
      px      :     1.467942
      py      :     1.497021
      dz2     :     0.035693  d :     0.123936
      dxz     :     0.033649
      dyz     :     0.026210
      dx2y2   :     0.014285
      dxy     :     0.014100
      f0      :     0.001536  f :     0.008227
      f+1     :     0.002530
      f-1     :     0.001259
      f+2     :     0.000858
      f-2     :     0.000495
      f+3     :     0.000728
      f-3     :     0.000822

 17 H s       :     0.794730  s :     0.794730
      pz      :     0.011752  p :     0.058326
      px      :     0.014900
      py      :     0.031674

 18 H s       :     0.802509  s :     0.802509
      pz      :     0.032020  p :     0.059512
      px      :     0.015793
      py      :     0.011699

 19 H s       :     0.784254  s :     0.784254
      pz      :     0.036263  p :     0.059184
      px      :     0.013047
      py      :     0.009873

 20 H s       :     0.784221  s :     0.784221
      pz      :     0.036010  p :     0.059178
      px      :     0.012034
      py      :     0.011134

 21 H s       :     0.794698  s :     0.794698
      pz      :     0.010891  p :     0.058325
      px      :     0.020617
      py      :     0.026817

 22 H s       :     0.802503  s :     0.802503
      pz      :     0.033391  p :     0.059520
      px      :     0.016001
      py      :     0.010128

 23 H s       :     0.784257  s :     0.784257
      pz      :     0.034511  p :     0.059182
      px      :     0.012295
      py      :     0.012376

 24 H s       :     0.794716  s :     0.794716
      pz      :     0.010080  p :     0.058333
      px      :     0.034522
      py      :     0.013731

 25 H s       :     0.802529  s :     0.802529
      pz      :     0.039099  p :     0.059529
      px      :     0.007139
      py      :     0.013292



                      *****************************
                      * MAYER POPULATION ANALYSIS *
                      *****************************

  NA   - Mulliken gross atomic population
  ZA   - Total nuclear charge
  QA   - Mulliken gross atomic charge
  VA   - Mayer's total valence
  BVA  - Mayer's bonded valence
  FA   - Mayer's free valence

  ATOM       NA         ZA         QA         VA         BVA        FA
  0 C      6.1970     6.0000    -0.1970     3.9242     3.9242    -0.0000
  1 C      5.9970     6.0000     0.0030     3.8963     3.8963    -0.0000
  2 O      8.2173     8.0000    -0.2173     2.2462     2.2462    -0.0000
  3 C      5.9570     6.0000     0.0430     3.6939     3.6939    -0.0000
  4 C      6.1744     6.0000    -0.1744     3.9369     3.9369    -0.0000
  5 P     14.2976    15.0000     0.7024     5.0275     5.0275    -0.0000
  6 O      8.5858     8.0000    -0.5858     2.0205     2.0205    -0.0000
  7 C      5.9592     6.0000     0.0408     3.6967     3.6967    -0.0000
  8 C      6.1721     6.0000    -0.1721     3.9385     3.9385    -0.0000
  9 C      6.1980     6.0000    -0.1980     3.9248     3.9248     0.0000
 10 C      5.9967     6.0000     0.0033     3.8960     3.8960     0.0000
 11 O      8.2171     8.0000    -0.2171     2.2460     2.2460    -0.0000
 12 C      5.9577     6.0000     0.0423     3.6959     3.6959    -0.0000
 13 C      6.1734     6.0000    -0.1734     3.9377     3.9377    -0.0000
 14 C      6.1972     6.0000    -0.1972     3.9249     3.9249    -0.0000
 15 C      5.9973     6.0000     0.0027     3.8965     3.8965    -0.0000
 16 O      8.2169     8.0000    -0.2169     2.2464     2.2464    -0.0000
 17 H      0.8457     1.0000     0.1543     0.9705     0.9705    -0.0000
 18 H      0.8326     1.0000     0.1674     0.9642     0.9642    -0.0000
 19 H      0.8181     1.0000     0.1819     0.9691     0.9691     0.0000
 20 H      0.8175     1.0000     0.1825     0.9687     0.9687    -0.0000
 21 H      0.8455     1.0000     0.1545     0.9703     0.9703     0.0000
 22 H      0.8327     1.0000     0.1673     0.9643     0.9643     0.0000
 23 H      0.8182     1.0000     0.1818     0.9690     0.9690    -0.0000
 24 H      0.8456     1.0000     0.1544     0.9705     0.9705     0.0000
 25 H      0.8324     1.0000     0.1676     0.9643     0.9643     0.0000

  Mayer bond orders larger than 0.100000
B(  0-C ,  1-C ) :   1.6742 B(  0-C ,  4-C ) :   1.2702 B(  0-C , 17-H ) :   0.9495 
B(  1-C ,  2-O ) :   1.1216 B(  1-C ,  3-C ) :   0.1021 B(  1-C , 18-H ) :   0.9502 
B(  2-O ,  3-C ) :   1.0350 B(  3-C ,  4-C ) :   1.6099 B(  3-C ,  5-P ) :   0.9326 
B(  4-C , 19-H ) :   0.9231 B(  5-P ,  6-O ) :   2.0032 B(  5-P ,  7-C ) :   0.9322 
B(  5-P , 12-C ) :   0.9326 B(  7-C ,  8-C ) :   1.6115 B(  7-C , 10-C ) :   0.1021 
B(  7-C , 11-O ) :   1.0352 B(  8-C ,  9-C ) :   1.2708 B(  8-C , 20-H ) :   0.9221 
B(  9-C , 10-C ) :   1.6738 B(  9-C , 21-H ) :   0.9493 B( 10-C , 11-O ) :   1.1214 
B( 10-C , 22-H ) :   0.9502 B( 12-C , 13-C ) :   1.6106 B( 12-C , 15-C ) :   0.1023 
B( 12-C , 16-O ) :   1.0353 B( 13-C , 14-C ) :   1.2701 B( 13-C , 23-H ) :   0.9234 
B( 14-C , 15-C ) :   1.6746 B( 14-C , 24-H ) :   0.9494 B( 15-C , 16-O ) :   1.1215 
B( 15-C , 25-H ) :   0.9498 

-------
TIMINGS
-------

Total SCF time: 0 days 0 hours 1 min 8 sec 

Total time                  ....      68.240 sec
Sum of individual times     ....      68.257 sec  (100.0%)

SCF preparation             ....       0.213 sec  (  0.3%)
Fock matrix formation       ....      65.826 sec  ( 96.5%)
  Startup                   ....       0.067 sec  (  0.1% of F)
  Split-RI-J                ....       4.321 sec  (  6.6% of F)
  Chain of spheres X        ....      46.179 sec  ( 70.2% of F)
  XC integration            ....      15.063 sec  ( 22.9% of F)
    Basis function eval.    ....       2.155 sec  ( 14.3% of XC)
    Density eval.           ....       6.041 sec  ( 40.1% of XC)
    XC-Functional eval.     ....       0.291 sec  (  1.9% of XC)
    XC-Potential eval.      ....       5.790 sec  ( 38.4% of XC)
Diagonalization             ....       0.000 sec  (  0.0%)
Density matrix formation    ....       0.192 sec  (  0.3%)
Total Energy calculation    ....       0.066 sec  (  0.1%)
Population analysis         ....       0.168 sec  (  0.2%)
Orbital Transformation      ....       0.278 sec  (  0.4%)
Orbital Orthonormalization  ....       0.000 sec  (  0.0%)
DIIS solution               ....       1.181 sec  (  1.7%)
SOSCF solution              ....       0.333 sec  (  0.5%)
Finished LeanSCF after  68.3 sec

Maximum memory used throughout the entire LEANSCF-calculation: 70.3 MB


-------------------------------------------------------------------------------
                          DFT DISPERSION CORRECTION                            
                                                                               
                              DFTD3 V3.1  Rev 1                                
                              USING zero damping                               
-------------------------------------------------------------------------------
The M062X functional is recognized
Active option DFTDOPT                   ...         3   

molecular C6(AA) [au] = 10005.133237 


            DFT-D V3
 parameters
 s6 scaling factor         :     1.0000 
 rs6 scaling factor        :     1.6190 
 s8 scaling factor         :     0.0000 
 rs8 scaling factor        :     1.0000 
 Damping factor alpha6     :    14.0000 
 Damping factor alpha8     :    16.0000 
 ad hoc parameters k1-k3   :    16.0000     1.3333    -4.0000 

 Edisp/kcal,au: -0.853471885103  -0.001360093878 
 E6   /kcal   :  -0.853471885 
 E8   /kcal   :  -0.000000000 
 % E8         :   0.000000000 

-------------------------   ----------------
Dispersion correction           -0.001360094
-------------------------   ----------------


-------------------------   --------------------
FINAL SINGLE POINT ENERGY     -1104.883001268541
-------------------------   --------------------



           ************************************************************
           *        Program running with 6 parallel MPI-processes     *
           *              working on a common directory               *
           ************************************************************

------------------------------------------------------------------------------
                              ORCA PROPERTY CALCULATIONS
------------------------------------------------------------------------------

GBWName                                 ... data/single_point_PO_M06-2x/521585/521585.gbw
Number of atoms                         ...     26
Number of basis functions               ...    587
Max core memory                         ...   1024 MB

Electric properties:
Dipole moment                           ... YES
Quadrupole moment                       ...  NO
Static polarizability (Dipole/Dipole)   ...  NO
Static polarizability (Dipole/Quad.)    ...  NO
Static polarizability (Quad./Quad.)     ...  NO
Static polarizability (Velocity)        ...  NO

Atomic electric properties:
Dipole moment                           ...  NO
Quadrupole moment                       ...  NO
Static polarizability                   ...  NO

Choice of electric origin               ... Center of mass
Position of electric origin             ...     0.036804    -0.012853    -0.132874

General magnetic properties:
Magnetizability                         ...  NO

EPR properties:
g-Tensor (aka g-matrix)                 ...  NO
Zero-Field splitting spin-orbit         ...  NO
Zero-field splitting spin-spin          ...  NO
Hyperfine couplings                     ...  NO (   0 nuclei)
Quadrupole couplings                    ...  NO (   0 nuclei)
Contact density                         ...  NO (   0 nuclei)

NMR properties:
Chemical shifts                         ...  NO (   0 nuclei)
Spin-rotation constants                 ...  NO (   0 nuclei)
Spin-spin couplings                     ...  NO (   0 nuclei,    0 pairs)

Choice of magnetic origin               ... GIAO
Position of magnetic origin             ...     0.000000     0.000000     0.000000

Properties with geometric perturbations:
SCF Hessian                             ...  NO
IR spectrum                             ...  NO
VCD spectrum                            ...  NO
X-ray spectroscopy properties:
SCF XES/XAS/RIXS spectra                ...  NO


-------------
DIPOLE MOMENT
-------------

Method             : SCF
Type of density    : Electron Density
Multiplicity       :   1
Irrep              :   0
Energy             : -1104.8816411746627182 Eh
Relativity type    : 
Basis              : AO
                                X                 Y                 Z
Electronic contribution:      0.130684378      -0.046493101      -0.543343143
Nuclear contribution   :     -0.442235313       0.154366183       1.805670799
                        -----------------------------------------
Total Dipole Moment    :     -0.311550935       0.107873082       1.262327656
                        -----------------------------------------
Magnitude (a.u.)       :      1.304673023
Magnitude (Debye)      :      3.316215281



--------------------
Rotational spectrum 
--------------------
 
Rotational constants in cm-1:             0.015038             0.015033             0.010342 
Rotational constants in MHz :           450.821835           450.688508           310.049212 

Dipole components along the rotational axes: 
x,y,z [a.u.] :     0.000145    -0.000560     1.304673 
x,y,z [Debye]:     0.000368    -0.001424     3.316215 

 

Dipole moment calculation done in   0.0 sec 

Maximum memory used throughout the entire PROP-calculation: 37.9 MB

--------------------------------
SUGGESTED CITATIONS FOR THIS RUN
--------------------------------

Below you find a list of papers that are relevant to this ORCA run
We neither can nor want to force you to cite these papers, but we appreciate if you do
You receive ORCA, which is the product of decades of hard work by many enthusiastic individuals, for free
The only thing we kindly ask in return is that you cite our papers,
We deeply appreciate it, if you show your appreciation for ORCA by not just citing the generic ORCA reference.

Please note that relegating all ORCA citations to the supporting information does *not* help us.
SI sections are not indexed - citations you put there will not count into any citation statistics
But we need these citations in order to attract the funding resources that allow us to do what we are doing

Therefore, if you are a happy ORCA user, please consider citing a few of the papers listed below in the main body of your paper

In addition to the list printed below, the program has created the file data/single_point_PO_M06-2x/521585/521585.bibtex that contains the list in bibtex format
You can import this file easily into all common literature databanks and citation aid programs


List of essential papers. We consider these as the minimum necessary citations

  1. Neese,F.
     Software update: the ORCA program system, version 5.0
     WIRES Comput. Molec. Sci., 2022 12(1)e1606
     doi.org/10.1002/wcms.1606

List of papers to cite with high priority. The work reported in these papers was absolutely
necessary for this run to complete.
Our perspective: the developers of density functionals and basis sets usually get cited in chemistry papers
Good! But without the algorithms to do something with them, the functionals or basis sets would not do anything.
Hence, in our opinion, the algorithm design and method developments papers are equally worthy of getting cited

  1. Neese,F.
     An improvement of the resolution of the identity approximation for the formation of the Coulomb matrix
     J. Comp. Chem., 2003 24(14)1740-1747
     doi.org/10.1002/jcc.10318
  2. Neese,F.; Wennmohs,F.; Hansen,A.; Becker,U.
     Efficient, approximate and parallel Hartree-Fock and hybrid DFT calculations. A 'chain-of-spheres' algorithm for the Hartree-Fock exchange
     Chem. Phys., 2009 356(1-3)98-109
     doi.org/10.1016/j.chemphys.2008.10.036
  3. Helmich-Paris,B.; de Souza,B.; Neese,F.; Izsák,R.
     An improved chain of spheres for exchange algorithm
     J. Chem. Phys., 2021 155 104109
     doi.org/doi: 10.1063/5.0058766.
  4. Neese,F.
     The SHARK Integral Generation and Digestion System
     J. Comp. Chem., 2022  1-16
     doi.org/10.1002/jcc.26942
  5. Grimme,S.; Antony,J.; Ehrlich,S.; Krieg,H.
     A consistent and accurate ab initio parametrization of density functional dispersion correction (DFT-D) for the 94 elements H-Pu
     J. Chem. Phys., 2010 132 154104-XXXX
     doi.org/10.1063/1.3382344

List of suggested additional citations. These are papers that are important in the 'surrounding' of 
of this run, or papers that preceded the highly important papers. If you like your results we are grateful for a citation.

  1. Izsak,R.; Neese,F.
     An overlap fitted chain of spheres exchange method
     J. Chem. Phys., 2011 135 144105
     doi.org/10.1063/1.3646921
  2. Izsak,R.; Hansen,A.; Neese,F.
     The resolution of identity and chain of spheres approximations for the LPNO-CCSD singles Fock term
     Molec. Phys., 2012 110 2413-2417
     doi.org/10.1080/00268976.2012.687466
  3. Neese,F.
     The ORCA program system
     WIRES Comput. Molec. Sci., 2012 2(1)73-78
     doi.org/10.1002/wcms.81
  4. Izsak,R.; Neese,F.; Klopper,W.
     Robust fitting techniques in the chain of spheres approximation to the Fock exchange: The role of the complementary space
     J. Chem. Phys., 2013 139 
     doi.org/10.1063/1.4819264
  5. Neese,F.
     Software update: the ORCA program system, version 4.0
     WIRES Comput. Molec. Sci., 2018 8(1)1-6
     doi.org/10.1002/wcms.1327
  6. Neese,F.; Wennmohs,F.; Becker,U.; Riplinger,C.
     The ORCA quantum chemistry program package
     J. Chem. Phys., 2020 152 Art. No. L224108
     doi.org/10.1063/5.0004608

List of optional additional citations

  1. Neese,F.
     Approximate second-order SCF convergence for spin unrestricted wavefunctions
     Chem. Phys. Lett., 2000 325(1-3)93-98
     doi.org/10.1016/s0009-2614(00)00662-x

Timings for individual modules:

Sum of individual times          ...       73.306 sec (=   1.222 min)
Startup calculation              ...        3.039 sec (=   0.051 min)   4.1 %
SCF iterations                   ...       69.864 sec (=   1.164 min)  95.3 %
Property calculations            ...        0.403 sec (=   0.007 min)   0.5 %
                             ****ORCA TERMINATED NORMALLY****
TOTAL RUN TIME: 0 days 0 hours 1 minutes 13 seconds 689 msec
