
                                 *****************
                                 * O   R   C   A *
                                 *****************

                                            #,                                       
                                            ###                                      
                                            ####                                     
                                            #####                                    
                                            ######                                   
                                           ########,                                 
                                     ,,################,,,,,                         
                               ,,#################################,,                 
                          ,,##########################################,,             
                       ,#########################################, ''#####,          
                    ,#############################################,,   '####,        
                  ,##################################################,,,,####,       
                ,###########''''           ''''###############################       
              ,#####''   ,,,,##########,,,,          '''####'''          '####       
            ,##' ,,,,###########################,,,                        '##       
           ' ,,###''''                  '''############,,,                           
         ,,##''                                '''############,,,,        ,,,,,,###''
      ,#''                                            '''#######################'''  
     '                                                          ''''####''''         
             ,#######,   #######,   ,#######,      ##                                
            ,#'     '#,  ##    ##  ,#'     '#,    #''#        ,####,   ,####,        
            ##       ##  ##   ,#'  ##            #'  '#       #'       #'  '#        
            ##       ##  #######   ##           ,######,      #####,   #    #        
            '#,     ,#'  ##    ##  '#,     ,#' ,#      #,     #,   #   #,  ,#        
             '#######'   ##     ##  '#######'  #'      '#     '####' # '####'        



                #########################################################
                #                        -***-                          #
                #          Department of theory and spectroscopy        #
                #                                                       #
                #                      Frank Neese                      #
                #                                                       #
                #     Directorship, Architecture, Infrastructure        #
                #                    SHARK, DRIVERS                     #
                #        Core code/Algorithms in most modules           #
                #                                                       #
                #        Max Planck Institute fuer Kohlenforschung      #
                #                Kaiser Wilhelm Platz 1                 #
                #                 D-45470 Muelheim/Ruhr                 #
                #                      Germany                          #
                #                                                       #
                #                  All rights reserved                  #
                #                        -***-                          #
                #########################################################


                         Program Version 6.0.0  -   RELEASE   -


 With contributions from (in alphabetic order):
   Daniel Aravena         : Magnetic Suceptibility
   Michael Atanasov       : Ab Initio Ligand Field Theory (pilot matlab implementation)
   Alexander A. Auer      : GIAO ZORA, VPT2 properties, NMR spectrum
   Ute Becker             : All parallelization in ORCA, NUMFREQ, NUMCALC
   Giovanni Bistoni       : ED, misc. LED, open-shell LED, HFLD
   Martin Brehm           : Molecular dynamics
   Dmytro Bykov           : pre 5.0 version of the SCF Hessian
   Marcos Casanova-Páez   : Triplet and SCS-CIS(D). UHF-(DLPNO)-IP/EA/STEOM-CCSD. UHF-CVS-IP/STEOM-CCSD
   Vijay G. Chilkuri      : MRCI spin determinant printing, contributions to CSF-ICE
   Pauline Colinet        : FMM embedding
   Dipayan Datta          : RHF DLPNO-CCSD density
   Achintya Kumar Dutta   : EOM-CC, STEOM-CC
   Nicolas Foglia         : Exact transition moments, OPA infrastructure, MCD improvements
   Dmitry Ganyushin       : Spin-Orbit,Spin-Spin,Magnetic field MRCI
   Miquel Garcia          : C-PCM and meta-GGA Hessian, CCSD/C-PCM, Gaussian charge scheme
   Tiago L. C. Gouveia    : GS-ROHF, GS-ROCIS
   Yang Guo               : DLPNO-NEVPT2, F12-NEVPT2, CIM, IAO-localization
   Andreas Hansen         : Spin unrestricted coupled pair/coupled cluster methods
   Ingolf Harden          : AUTO-CI MPn and infrastructure 
   Benjamin Helmich-Paris : MC-RPA, TRAH-(SCF,CASSCF), AVAS, COSX integrals, SCF dyn. polar.
   Lee Huntington         : MR-EOM, pCC
   Robert Izsak           : Overlap fitted RIJCOSX, COSX-SCS-MP3, EOM
   Riya Kayal             : Wick's Theorem for AUTO-CI, AUTO-CI UHF-CCSDT
   Emily Kempfer          : AUTO-CI, RHF CISDT and CCSDT
   Christian Kollmar      : KDIIS, OOCD, Brueckner-CCSD(T), CCSD density, CASPT2, CASPT2-K, improved NEVPT2
   Axel Koslowski         : Symmetry handling
   Simone Kossmann        : Meta GGA functionals, TD-DFT gradient, OOMP2, (MP2 Hessian; deprecated post 5.0)
   Lucas Lang             : DCDCAS
   Marvin Lechner         : AUTO-CI (C++ implementation), FIC-MRCC
   Spencer Leger          : CASSCF response
   Dagmar Lenk            : GEPOL surface, SMD, ORCA-2-JSON
   Dimitrios Liakos       : Extrapolation schemes; Compound Job, initial MDCI parallelization
   Dimitrios Manganas     : Further ROCIS development; embedding schemes. LFT, Crystal Embedding
   Dimitrios Pantazis     : SARC Basis sets
   Anastasios Papadopoulos: AUTO-CI, single reference methods and gradients
   Taras Petrenko         : pre 6.0 DFT Hessian and TD-DFT gradient, (ASA, deprecated), ECA, 1-Electron XAS/XES, NRVS
   Peter Pinski           : DLPNO-MP2, DLPNO-MP2 Gradient
   Christoph Reimann      : Effective Core Potentials
   Marius Retegan         : Local ZFS, SOC
   Christoph Riplinger    : Optimizer, TS searches, QM/MM, DLPNO-CCSD(T), (RO)-DLPNO pert. Triples
   Michael Roemelt        : Original ROCIS implementation
   Masaaki Saitow         : Open-shell DLPNO-CCSD energy and density
   Barbara Sandhoefer     : DKH picture change effects
   Kantharuban Sivalingam : CASSCF convergence/infrastructure, NEVPT2 and variants, FIC-MRCI
   Bernardo de Souza      : ESD, SOC TD-DFT
   Georgi Stoychev        : AutoAux, RI-MP2 NMR, DLPNO-MP2 response, X2C
   Van Anh Tran           : RI-MP2 g-tensors
   Willem Van den Heuvel  : Paramagnetic NMR
   Zikuan Wang            : NOTCH, Electric field optimization 
   Frank Wennmohs         : Technical directorship and infrastructure
   Hang Xu                : AUTO-CI-Response properties 


 We gratefully acknowledge several colleagues who have allowed us to
 interface, adapt or use parts of their codes:
   Stefan Grimme, W. Hujo, H. Kruse, P. Pracht,  : VdW corrections, initial TS optimization,
                  C. Bannwarth, S. Ehlert,         DFT functionals, gCP, sTDA/sTD-DF
                  L. Wittmann, M. Mueller
   Ed Valeev, F. Pavosevic, A. Kumar             : LibInt (2-el integral package), F12 methods
   Garnet Chan, S. Sharma, J. Yang, R. Olivares  : DMRG
   Ulf Ekstrom                                   : XCFun DFT Library
   Mihaly Kallay                                 : mrcc  (arbitrary order and MRCC methods)
   Frank Weinhold                                : gennbo (NPA and NBO analysis)
   Simon Mueller                                 : openCOSMO-RS
   Christopher J. Cramer and Donald G. Truhlar   : smd solvation model
   Lars Goerigk                                  : TD-DFT with DH, B97 family of functionals
   V. Asgeirsson, H. Jonsson                     : NEB implementation
   FAccTs GmbH                                   : IRC, NEB, NEB-TS, DLPNO-Multilevel, CI-OPT
                                                   MM, QMMM, 2- and 3-layer-ONIOM, Crystal-QMMM,
                                                   LR-CPCM, SF, NACMEs, symmetry and pop. for TD-DFT,
                                                   nearIR, NL-DFT gradient (VV10), updates on ESD,
                                                   ML-optimized integration grids, MBIS, APM,
                                                   GOAT, DOCKER, SOLVATOR, interface openCOSMO-RS
   S Lehtola, MJT Oliveira, MAL Marques          : LibXC Library
   Liviu Ungur et al                             : ANISO software


 Your calculation uses the libint2 library for the computation of 2-el integrals
 For citations please refer to: http://libint.valeyev.net

 Your ORCA version has been built with support for libXC version: 6.2.2
 For citations please refer to: https://libxc.gitlab.io

 This ORCA versions uses:
   CBLAS   interface :  Fast vector & matrix operations
   LAPACKE interface :  Fast linear algebra routines
   Shared memory     :  Shared parallel matrices


Your calculation utilizes the atom-pairwise dispersion correction
with the zero-damping scheme (D30)


XCFun DFT library Copyright 2009-2010 Ulf Ekstrom and contributors.
See http://admol.org/xcfun for more information.
This is free software; see the source code for copying conditions.
There is ABSOLUTELY NO WARRANTY; not even for MERCHANTABILITY or FITNESS FOR A PARTICULAR PURPOSE.
For details see the documentation.
Scientific users of this library should cite U. Ekstrom, L. Visscher, R. Bast, A. J. Thorvaldsen and K. Ruud;
J.Chem.Theor.Comp. 2010, DOI: 10.1021/ct100117s
XCFun Version 0.99 

Warning: RI is on but no J-basis has been assigned. Assigning Def2/J (nothing to worry about!)
================================================================================

----- Orbital basis set information -----
Your calculation utilizes the basis: def2-TZVP
   F. Weigend and R. Ahlrichs, Phys. Chem. Chem. Phys. 7, 3297 (2005).

----- AuxJ basis set information -----
Your calculation utilizes the auxiliary basis: def2/J
   F. Weigend, Phys. Chem. Chem. Phys. 8, 1057 (2006).

================================================================================
                                        WARNINGS
                       Please study these warnings very carefully!
================================================================================

WARNING: Functional chosen is sensitive to the integration grid.
         DEFGRID3 seems to be a minimum grid for robust results!

================================================================================
                                       INPUT FILE
================================================================================
NAME = data/single_point_PO_M06-2x/621893/621893.inp
|  1> ! RIJCOSX M062X def2-TZVP D3ZERO NormalSCF
|  2> %pal
|  3> nprocs 6
|  4> end
|  5> 
|  6> * xyz 0 1
|  7>   C          -3.74507034376437     -2.19398881939447     -0.27731921411982
|  8>   C          -3.31495081251910     -2.21339481722244      1.06027071328787
|  9>   C          -2.15998836086169     -1.51007947382184      1.43718873859771
| 10>   C          -1.43139956913986     -0.79101218344073      0.46871911784048
| 11>   C          -1.86487389639886     -0.76370369232948     -0.87294527991656
| 12>   C          -3.02299106243425     -1.46619752033604     -1.24004775536144
| 13>   P           0.07308312598612      0.05656404941163      1.07586601239382
| 14>   O           0.17529783899954      0.05759690935988      2.59396758249829
| 15>   C           1.50175751307863     -0.75748686080247      0.27081424966553
| 16>   C           1.75819581602816     -0.71141193102593     -1.11504401540395
| 17>   C           2.87082027576008     -1.39033076549349     -1.63550161212203
| 18>   C           3.72289349158822     -2.11298728934814     -0.78136092156210
| 19>   C           3.46944077057906     -2.15040693994578      0.60032254827648
| 20>   C           2.36129747503004     -1.47074013222294      1.13008927930264
| 21>   C           0.00610774756669      1.76415175720421      0.37818980216345
| 22>   C           0.05878700022239      2.83513238663499      1.28819655967871
| 23>   C           0.00633810096335      4.13945077806880      0.77364117836987
| 24>   C          -0.09551009374599      4.31276157725334     -0.61569745523259
| 25>   C          -0.14038268543083      3.17175557734489     -1.43705659309835
| 26>   N          -0.09100751560056      1.91829073541379     -0.95694158827124
| 27>   H          -4.65129730079019     -2.74555167294414     -0.57192314684869
| 28>   H          -3.88411288223141     -2.77725452757678      1.81541811917251
| 29>   H          -1.80393817818998     -1.49754743256975      2.47913036247130
| 30>   H          -1.30949813135014     -0.17142124463174     -1.61451124972762
| 31>   H          -3.36699837688890     -1.44392597290466     -2.28565341942207
| 32>   H           1.10281905514695     -0.12252967302913     -1.77307460046085
| 33>   H           3.07684810226322     -1.35317854832852     -2.71638636543894
| 34>   H           4.59254586490696     -2.64606445951596     -1.19584383848511
| 35>   H           4.14075360186027     -2.70985447246446      1.27001245395620
| 36>   H           2.14270193170332     -1.47252085162583      2.20933620853025
| 37>   H           0.13789816513764      2.61451685052526      2.36346949106320
| 38>   H           0.04414011616210      5.00994234662940      1.44681754069706
| 39>   H          -0.13978722788440      5.31709052783579     -1.06292258742206
| 40>   H          -0.21991955575221      3.27433678529274     -2.53357331507192
| 41> **                         ****END OF INPUT****
================================================================================

                       ****************************
                       * Single Point Calculation *
                       ****************************

---------------------------------
CARTESIAN COORDINATES (ANGSTROEM)
---------------------------------
  C     -3.745070   -2.193989   -0.277319
  C     -3.314951   -2.213395    1.060271
  C     -2.159988   -1.510079    1.437189
  C     -1.431400   -0.791012    0.468719
  C     -1.864874   -0.763704   -0.872945
  C     -3.022991   -1.466198   -1.240048
  P      0.073083    0.056564    1.075866
  O      0.175298    0.057597    2.593968
  C      1.501758   -0.757487    0.270814
  C      1.758196   -0.711412   -1.115044
  C      2.870820   -1.390331   -1.635502
  C      3.722893   -2.112987   -0.781361
  C      3.469441   -2.150407    0.600323
  C      2.361297   -1.470740    1.130089
  C      0.006108    1.764152    0.378190
  C      0.058787    2.835132    1.288197
  C      0.006338    4.139451    0.773641
  C     -0.095510    4.312762   -0.615697
  C     -0.140383    3.171756   -1.437057
  N     -0.091008    1.918291   -0.956942
  H     -4.651297   -2.745552   -0.571923
  H     -3.884113   -2.777255    1.815418
  H     -1.803938   -1.497547    2.479130
  H     -1.309498   -0.171421   -1.614511
  H     -3.366998   -1.443926   -2.285653
  H      1.102819   -0.122530   -1.773075
  H      3.076848   -1.353179   -2.716386
  H      4.592546   -2.646064   -1.195844
  H      4.140754   -2.709854    1.270012
  H      2.142702   -1.472521    2.209336
  H      0.137898    2.614517    2.363469
  H      0.044140    5.009942    1.446818
  H     -0.139787    5.317091   -1.062923
  H     -0.219920    3.274337   -2.533573

----------------------------
CARTESIAN COORDINATES (A.U.)
----------------------------
  NO LB      ZA    FRAG     MASS         X           Y           Z
   0 C     6.0000    0    12.011   -7.077157   -4.146038   -0.524057
   1 C     6.0000    0    12.011   -6.264349   -4.182710    2.003621
   2 C     6.0000    0    12.011   -4.081786   -2.853637    2.715893
   3 C     6.0000    0    12.011   -2.704953   -1.494796    0.885751
   4 C     6.0000    0    12.011   -3.524101   -1.443191   -1.649628
   5 C     6.0000    0    12.011   -5.712625   -2.770712   -2.343351
   6 P    15.0000    0    30.974    0.138107    0.106891    2.033092
   7 O     8.0000    0    15.999    0.331265    0.108842    4.901888
   8 C     6.0000    0    12.011    2.837910   -1.431443    0.511765
   9 C     6.0000    0    12.011    3.322509   -1.344374   -2.107128
  10 C     6.0000    0    12.011    5.425064   -2.627344   -3.090650
  11 C     6.0000    0    12.011    7.035249   -3.992967   -1.476558
  12 C     6.0000    0    12.011    6.556293   -4.063680    1.134445
  13 C     6.0000    0    12.011    4.462206   -2.779296    2.135559
  14 C     6.0000    0    12.011    0.011542    3.333764    0.714675
  15 C     6.0000    0    12.011    0.111091    5.357624    2.434339
  16 C     6.0000    0    12.011    0.011977    7.822428    1.461970
  17 C     6.0000    0    12.011   -0.180488    8.149938   -1.163500
  18 C     6.0000    0    12.011   -0.265285    5.993749   -2.715643
  19 N     7.0000    0    14.007   -0.171979    3.625044   -1.808358
  20 H     1.0000    0     1.008   -8.789678   -5.188341   -1.080778
  21 H     1.0000    0     1.008   -7.339910   -5.248250    3.430643
  22 H     1.0000    0     1.008   -3.408949   -2.829955    4.684877
  23 H     1.0000    0     1.008   -2.474593   -0.323939   -3.050984
  24 H     1.0000    0     1.008   -6.362705   -2.728625   -4.319259
  25 H     1.0000    0     1.008    2.084026   -0.231548   -3.350625
  26 H     1.0000    0     1.008    5.814400   -2.557137   -5.133226
  27 H     1.0000    0     1.008    8.678654   -5.000337   -2.259817
  28 H     1.0000    0     1.008    7.824890   -5.120883    2.399976
  29 H     1.0000    0     1.008    4.049120   -2.782661    4.175040
  30 H     1.0000    0     1.008    0.260590    4.940721    4.466310
  31 H     1.0000    0     1.008    0.083413    9.467419    2.734089
  32 H     1.0000    0     1.008   -0.264160   10.047845   -2.008633
  33 H     1.0000    0     1.008   -0.415588    6.187600   -4.787760

--------------------------------
INTERNAL COORDINATES (ANGSTROEM)
--------------------------------
 C      0   0   0     0.000000000000     0.00000000     0.00000000
 C      1   0   0     1.405178358008     0.00000000     0.00000000
 C      2   1   0     1.403801244765   120.03319485     0.00000000
 C      3   2   1     1.409195799684   119.76866062   359.69451891
 C      4   3   2     1.410215977178   120.31805020     0.65907420
 C      5   4   3     1.403387749744   119.52703987   359.54370290
 P      4   3   2     1.830431916788   115.67569595   181.18520375
 O      7   4   3     1.521539119283   112.73545137   349.78999463
 C      7   4   3     1.830818868547   106.83680729   114.17564353
 C      9   7   4     1.410137097319   124.02344490    65.93710370
 C     10   9   7     1.403474289814   119.52554039   181.10687629
 C     11  10   9     1.406349009269   120.24268451     0.08801808
 C     12  11  10     1.405235824644   120.10408007   359.52485031
 C     13  12  11     1.403773956979   120.03630375     0.27066127
 C      7   4   3     1.845831404934   105.85306851   226.69065187
 C     15   7   4     1.406373674028   117.29387862   123.57536746
 C     16  15   7     1.403126720471   117.98257395   180.11901620
 C     17  16  15     1.403806085861   118.71264142     0.00000000
 C     18  17  16     1.406605514943   118.69065623   359.97356768
 N     19  18  17     1.343176248753   123.16835906     0.02764492
 H      1   2   3     1.101026955272   119.98169572   180.02688649
 H      2   1   3     1.100968137220   120.11483860   179.81361668
 H      3   2   1     1.101168076271   121.72091206   179.34372559
 H      5   4   3     1.099618491040   119.78759158   177.87847125
 H      6   5   4     1.100966965417   119.74588353   179.74689696
 H     10   9   7     1.099684165275   119.81472926     2.80807227
 H     11  10   9     1.100972117034   119.74214675   180.26185844
 H     12  11  10     1.101027977934   119.91448325   179.82028756
 H     13  12  11     1.100966406778   120.10820775   180.46107977
 H     14  13  12     1.101163528624   121.72213282   180.66507286
 H     16  15   7     1.100518817720   118.83246642     0.07346788
 H     17  16  15     1.101068107832   120.62548884   179.98557959
 H     18  17  16     1.100294244485   121.19017193   179.98621351
 H     19  18  17     1.104172966311   120.45211447   180.02542721

---------------------------
INTERNAL COORDINATES (A.U.)
---------------------------
 C      0   0   0     0.000000000000     0.00000000     0.00000000
 C      1   0   0     2.655402265947     0.00000000     0.00000000
 C      2   1   0     2.652799899064   120.03319485     0.00000000
 C      3   2   1     2.662994130476   119.76866062   359.69451891
 C      4   3   2     2.664921986547   120.31805020     0.65907420
 C      5   4   3     2.652018506716   119.52703987   359.54370290
 P      4   3   2     3.459015029517   115.67569595   181.18520375
 O      7   4   3     2.875292237493   112.73545137   349.78999463
 C      7   4   3     3.459746262369   106.83680729   114.17564353
 C      9   7   4     2.664772925215   124.02344490    65.93710370
 C     10   9   7     2.652182043749   119.52554039   181.10687629
 C     11  10   9     2.657614476230   120.24268451     0.08801808
 C     12  11  10     2.655510862152   120.10408007   359.52485031
 C     13  12  11     2.652748332621   120.03630375     0.27066127
 C      7   4   3     3.488115844716   105.85306851   226.69065187
 C     15   7   4     2.657661085870   117.29387862   123.57536746
 C     16  15   7     2.651525232877   117.98257395   180.11901620
 C     17  16  15     2.652809047409   118.71264142     0.00000000
 C     18  17  16     2.658099201705   118.69065623   359.97356768
 N     19  18  17     2.538235259730   123.16835906     0.02764492
 H      1   2   3     2.080639411529   119.98169572   180.02688649
 H      2   1   3     2.080528261520   120.11483860   179.81361668
 H      3   2   1     2.080906091569   121.72091206   179.34372559
 H      5   4   3     2.077977799860   119.78759158   177.87847125
 H      6   5   4     2.080526047132   119.74588353   179.74689696
 H     10   9   7     2.078101906180   119.81472926     2.80807227
 H     11  10   9     2.080535782278   119.74214675   180.26185844
 H     12  11  10     2.080641344081   119.91448325   179.82028756
 H     13  12  11     2.080524991457   120.10820775   180.46107977
 H     14  13  12     2.080897497761   121.72213282   180.66507286
 H     16  15   7     2.079679170717   118.83246642     0.07346788
 H     17  16  15     2.080717178597   120.62548884   179.98557959
 H     18  17  16     2.079254788807   121.19017193   179.98621351
 H     19  18  17     2.086584510807   120.45211447   180.02542721

---------------------
BASIS SET INFORMATION
---------------------
There are 5 groups of distinct atoms

 Group   1 Type C   : 11s6p2d1f contracted to 5s3p2d1f pattern {62111/411/11/1}
 Group   2 Type P   : 14s9p3d1f contracted to 5s5p2d1f pattern {73211/51111/21/1}
 Group   3 Type O   : 11s6p2d1f contracted to 5s3p2d1f pattern {62111/411/11/1}
 Group   4 Type N   : 11s6p2d1f contracted to 5s3p2d1f pattern {62111/411/11/1}
 Group   5 Type H   : 5s1p contracted to 3s1p pattern {311/1}

Atom   0C    basis set group =>   1
Atom   1C    basis set group =>   1
Atom   2C    basis set group =>   1
Atom   3C    basis set group =>   1
Atom   4C    basis set group =>   1
Atom   5C    basis set group =>   1
Atom   6P    basis set group =>   2
Atom   7O    basis set group =>   3
Atom   8C    basis set group =>   1
Atom   9C    basis set group =>   1
Atom  10C    basis set group =>   1
Atom  11C    basis set group =>   1
Atom  12C    basis set group =>   1
Atom  13C    basis set group =>   1
Atom  14C    basis set group =>   1
Atom  15C    basis set group =>   1
Atom  16C    basis set group =>   1
Atom  17C    basis set group =>   1
Atom  18C    basis set group =>   1
Atom  19N    basis set group =>   4
Atom  20H    basis set group =>   5
Atom  21H    basis set group =>   5
Atom  22H    basis set group =>   5
Atom  23H    basis set group =>   5
Atom  24H    basis set group =>   5
Atom  25H    basis set group =>   5
Atom  26H    basis set group =>   5
Atom  27H    basis set group =>   5
Atom  28H    basis set group =>   5
Atom  29H    basis set group =>   5
Atom  30H    basis set group =>   5
Atom  31H    basis set group =>   5
Atom  32H    basis set group =>   5
Atom  33H    basis set group =>   5
---------------------------------
AUXILIARY/J BASIS SET INFORMATION
---------------------------------
There are 5 groups of distinct atoms

 Group   1 Type C   : 12s5p4d2f1g contracted to 6s4p3d1f1g pattern {711111/2111/211/2/1}
 Group   2 Type P   : 14s5p5d2f1g contracted to 8s4p3d1f1g pattern {71111111/2111/311/2/1}
 Group   3 Type O   : 12s5p4d2f1g contracted to 6s4p3d1f1g pattern {711111/2111/211/2/1}
 Group   4 Type N   : 12s5p4d2f1g contracted to 6s4p3d1f1g pattern {711111/2111/211/2/1}
 Group   5 Type H   : 5s2p1d contracted to 3s1p1d pattern {311/2/1}

Atom   0C    basis set group =>   1
Atom   1C    basis set group =>   1
Atom   2C    basis set group =>   1
Atom   3C    basis set group =>   1
Atom   4C    basis set group =>   1
Atom   5C    basis set group =>   1
Atom   6P    basis set group =>   2
Atom   7O    basis set group =>   3
Atom   8C    basis set group =>   1
Atom   9C    basis set group =>   1
Atom  10C    basis set group =>   1
Atom  11C    basis set group =>   1
Atom  12C    basis set group =>   1
Atom  13C    basis set group =>   1
Atom  14C    basis set group =>   1
Atom  15C    basis set group =>   1
Atom  16C    basis set group =>   1
Atom  17C    basis set group =>   1
Atom  18C    basis set group =>   1
Atom  19N    basis set group =>   4
Atom  20H    basis set group =>   5
Atom  21H    basis set group =>   5
Atom  22H    basis set group =>   5
Atom  23H    basis set group =>   5
Atom  24H    basis set group =>   5
Atom  25H    basis set group =>   5
Atom  26H    basis set group =>   5
Atom  27H    basis set group =>   5
Atom  28H    basis set group =>   5
Atom  29H    basis set group =>   5
Atom  30H    basis set group =>   5
Atom  31H    basis set group =>   5
Atom  32H    basis set group =>   5
Atom  33H    basis set group =>   5


           ************************************************************
           *        Program running with 6 parallel MPI-processes     *
           *              working on a common directory               *
           ************************************************************
------------------------------------------------------------------------------
                             ORCA STARTUP CALCULATIONS
                           -- RI-GTO INTEGRALS CHOSEN --
------------------------------------------------------------------------------
------------------------------------------------------------------------------
                   ___                                                        
                  /   \      - P O W E R E D   B Y -                         
                 /     \                                                     
                 |  |  |   _    _      __       _____    __    __             
                 |  |  |  | |  | |    /  \     |  _  \  |  |  /  |          
                  \  \/   | |  | |   /    \    | | | |  |  | /  /          
                 / \  \   | |__| |  /  /\  \   | |_| |  |  |/  /          
                |  |  |   |  __  | /  /__\  \  |    /   |      \           
                |  |  |   | |  | | |   __   |  |    \   |  |\   \          
                \     /   | |  | | |  |  |  |  | |\  \  |  | \   \       
                 \___/    |_|  |_| |__|  |__|  |_| \__\ |__|  \__/        
                                                                              
                      - O R C A' S   B I G   F R I E N D -                    
                                      &                                       
                       - I N T E G R A L  F E E D E R -                       
                                                                              
 v1 FN, 2020, v2 2021, v3 2022-2024                                           
------------------------------------------------------------------------------


----------------------
SHARK INTEGRAL PACKAGE
----------------------

Number of atoms                             ...     34
Number of basis functions                   ...    710
Number of shells                            ...    278
Maximum angular momentum                    ...      3
Integral batch strategy                     ... SHARK/LIBINT Hybrid
RI-J (if used) integral strategy            ... SPLIT-RIJ (Revised 2003 algorithm where possible)
Printlevel                                  ...      1
Contraction scheme used                     ... SEGMENTED contraction
Prescreening option                         ... SCHWARTZ
   Thresh                                   ... 1.000e-10
   Tcut                                     ... 1.000e-11
   Tpresel                                  ... 1.000e-11 
Coulomb Range Separation                    ... NOT USED
Exchange Range Separation                   ... NOT USED
Multipole approximations                    ... NOT USED
Finite Nucleus Model                        ... NOT USED
CABS basis                                  ... NOT available
Auxiliary Coulomb fitting basis             ... AVAILABLE
   # of basis functions in Aux-J            ...   1136
   # of shells in Aux-J                     ...    372
   Maximum angular momentum in Aux-J        ...      4
Auxiliary J/K fitting basis                 ... NOT available
Auxiliary Correlation fitting basis         ... NOT available
Auxiliary 'external' fitting basis          ... NOT available

Checking pre-screening integrals            ... done (  0.0 sec) Dimension = 278
Check shell pair data                       ... done (  0.0 sec)
Shell pair information
Shell pair cut-off parameter TPreSel        ...   1.0e-11
Total number of shell pairs                 ...     38781
Shell pairs after pre-screening             ...     28122
Total number of primitive shell pairs       ...    121282
Primitive shell pairs kept                  ...     58224
          la=0 lb=0:   7022 shell pairs
          la=1 lb=0:   8104 shell pairs
          la=1 lb=1:   2378 shell pairs
          la=2 lb=0:   3974 shell pairs
          la=2 lb=1:   2370 shell pairs
          la=2 lb=2:    634 shell pairs
          la=3 lb=0:   1871 shell pairs
          la=3 lb=1:   1100 shell pairs
          la=3 lb=2:    540 shell pairs
          la=3 lb=3:    129 shell pairs

Calculating one electron integrals          ... done (  0.1 sec)
Calculating RI/J V-Matrix + Cholesky decomp.... done (  0.1 sec)
Calculating Nuclear repulsion               ... done (  0.0 sec) ENN=   1571.219202801179 Eh

Diagonalization of the overlap matrix:
Smallest eigenvalue                        ... 7.841e-06
Time for diagonalization                   ...    0.124 sec
Threshold for overlap eigenvalues          ... 1.000e-07
Number of eigenvalues below threshold      ... 0
Time for construction of square roots      ...    0.052 sec
Total time needed                          ...    0.182 sec

-------------------
DFT GRID GENERATION
-------------------

General Integration Accuracy     IntAcc      ... 4.388
Radial Grid Type                 RadialGrid  ... OptM3 with GC (2021)
Angular Grid (max. ang.)         AngularGrid ... 4 (Lebedev-302)
Angular grid pruning method      GridPruning ... 4 (adaptive)
Weight generation scheme         WeightScheme... mBecke (2022)
Basis function cutoff            BFCut       ... 1.0000e-10
Integration weight cutoff        WCut        ... 1.0000e-14
Partially contracted basis set               ... off
Rotationally invariant grid construction     ... off
Angular grids for H and He will be reduced by one unit

Total number of grid points                  ...   165710
Total number of batches                      ...     2607
Average number of points per batch           ...       63
Average number of grid points per atom       ...     4874

--------------------
COSX GRID GENERATION
--------------------

GRIDX 1
-------
General Integration Accuracy     IntAcc      ... 3.816
Radial Grid Type                 RadialGrid  ... OptM3 with GC (2021)
Angular Grid (max. ang.)         AngularGrid ... 1 (Lebedev-50)
Angular grid pruning method      GridPruning ... 4 (adaptive)
Weight generation scheme         WeightScheme... mBecke (2022)
Basis function cutoff            BFCut       ... 1.0000e-10
Integration weight cutoff        WCut        ... 1.0000e-14
Partially contracted basis set               ... on
Rotationally invariant grid construction     ... off
Angular grids for H and He will be reduced by one unit

Total number of grid points                  ...    22061
Total number of batches                      ...      191
Average number of points per batch           ...      115
Average number of grid points per atom       ...      649
UseSFitting                                  ... on

GRIDX 2
-------
General Integration Accuracy     IntAcc      ... 4.020
Radial Grid Type                 RadialGrid  ... OptM3 with GC (2021)
Angular Grid (max. ang.)         AngularGrid ... 2 (Lebedev-110)
Angular grid pruning method      GridPruning ... 4 (adaptive)
Weight generation scheme         WeightScheme... mBecke (2022)
Basis function cutoff            BFCut       ... 1.0000e-10
Integration weight cutoff        WCut        ... 1.0000e-14
Partially contracted basis set               ... on
Rotationally invariant grid construction     ... off
Angular grids for H and He will be reduced by one unit

Total number of grid points                  ...    45886
Total number of batches                      ...      370
Average number of points per batch           ...      124
Average number of grid points per atom       ...     1350
UseSFitting                                  ... on

GRIDX 3
-------
General Integration Accuracy     IntAcc      ... 4.338
Radial Grid Type                 RadialGrid  ... OptM3 with GC (2021)
Angular Grid (max. ang.)         AngularGrid ... 3 (Lebedev-194)
Angular grid pruning method      GridPruning ... 4 (adaptive)
Weight generation scheme         WeightScheme... mBecke (2022)
Basis function cutoff            BFCut       ... 1.0000e-10
Integration weight cutoff        WCut        ... 1.0000e-14
Partially contracted basis set               ... on
Rotationally invariant grid construction     ... off
Angular grids for H and He will be reduced by one unit

Total number of grid points                  ...   100893
Total number of batches                      ...      806
Average number of points per batch           ...      125
Average number of grid points per atom       ...     2967
UseSFitting                                  ... on
Initializing property integral containers    ... done (  0.0 sec)

SHARK setup successfully completed in   4.5 seconds

Maximum memory used throughout the entire STARTUP-calculation: 67.7 MB


           ************************************************************
           *        Program running with 6 parallel MPI-processes     *
           *              working on a common directory               *
           ************************************************************
-------------------------------------------------------------------------------
                                 ORCA GUESS
                   Start orbitals & Density for SCF / CASSCF
-------------------------------------------------------------------------------

------------
SCF SETTINGS
------------
Hamiltonian:
 Density Functional     Method          .... DFT(GTOs)
 Exchange Functional    Exchange        .... M062X
 Correlation Functional Correlation     .... M062X
 Gradients option       PostSCFGGA      .... off
 Hybrid DFT is turned on
   Fraction HF Exchange ScalHFX         ....  0.540000
   Scaling of DF-GGA-X  ScalDFX         ....  0.460000
   Scaling of DF-GGA-C  ScalDFC         ....  1.000000
   Scaling of DF-LDA-C  ScalLDAC        ....  1.000000
   Perturbative correction              ....  0.000000
 RI-approximation to the Coulomb term is turned on
   Number of AuxJ basis functions       .... 1136
   RIJ-COSX (HFX calculated with COS-X)).... on


General Settings:
 Integral files         IntName         .... data/single_point_PO_M06-2x/621893/621893
 Hartree-Fock type      HFTyp           .... RHF
 Total Charge           Charge          ....    0
 Multiplicity           Mult            ....    1
 Number of Electrons    NEL             ....  146
 Basis Dimension        Dim             ....  710
 Nuclear Repulsion      ENuc            ....   1571.2192028012 Eh

Convergence Acceleration:
 AO-DIIS                CNVDIIS         .... on
   Start iteration      DIISMaxIt       ....    12
   Startup error        DIISStart       ....  0.200000
   # of expansion vecs  DIISMaxEq       ....     5
   Bias factor          DIISBfac        ....   1.050
   Max. coefficient     DIISMaxC        ....  10.000
 MO-DIIS                CNVKDIIS        .... off
 Trust-Rad. Augm. Hess. CNVTRAH         .... auto
   Auto Start mean grad. ratio tolernc. ....  1.125000
   Auto Start start iteration           ....    50
   Auto Start num. interpolation iter.  ....    10
   Max. Number of Micro iterations      ....    24
   Max. Number of Macro iterations      .... Maxiter - #DIIS iter
   Number of Davidson start vectors     ....     2
   Converg. threshold    (grad. norm)   ....   5.000e-05
   Grad. Scal. Fac. for Micro threshold ....   0.100
   Minimum threshold for Micro iter.    ....   1.000e-02
   NR start threshold (gradient norm)   ....   1.000e-04
   Initial trust radius                 ....   0.400
   Minimum AH scaling param. (alpha)    ....   1.000
   Maximum AH scaling param. (alpha)    .... 1000.000
   Quad. conv. algorithm                .... NR
   White noise on init. David. guess    .... on
   Maximum white noise                  ....   0.010
   Pseudo random numbers                .... off
   Inactive MOs                         .... canonical
   Orbital update algorithm             .... Taylor
   Preconditioner                       .... Diag
   Full preconditioner red. dimension   ....   250
 SOSCF                  CNVSOSCF        .... on
   Start iteration      SOSCFMaxIt      ....   150
   Startup grad/error   SOSCFStart      ....  0.003300
   Hessian update       SOSCFHessUp     .... L-BFGS
 Level Shifting         CNVShift        .... on
   Level shift para.    LevelShift      ....    0.2500
   Turn off err/grad.   ShiftErr        ....    0.0010
 Zerner damping         CNVZerner       .... off
 Static damping         CNVDamp         .... on
   Fraction old density DampFac         ....    0.7000
   Max. Damping (<1)    DampMax         ....    0.9800
   Min. Damping (>=0)   DampMin         ....    0.0000
   Turn off err/grad.   DampErr         ....    0.1000

SCF Procedure:
 Maximum # iterations   MaxIter         ....   125
 SCF integral mode      SCFMode         .... Direct
   Integral package                     .... SHARK and LIBINT hybrid scheme
 Reset frequency        DirectResetFreq ....    20
 Integral Threshold     Thresh          ....  1.000e-10 Eh
 Primitive CutOff       TCut            ....  1.000e-11 Eh

Convergence Tolerance:
 Convergence Check Mode ConvCheckMode   .... Total+1el-Energy
 Convergence forced     ConvForced      .... 0
 Energy Change          TolE            ....  1.000e-06 Eh
 1-El. energy change                    ....  1.000e-03 Eh
 Orbital Gradient       TolG            ....  5.000e-05
 Orbital Rotation angle TolX            ....  5.000e-05
 DIIS Error             TolErr          ....  1.000e-05

------------------------------
INITIAL GUESS: MODEL POTENTIAL
------------------------------
Loading Hartree-Fock densities                     ... done
Calculating cut-offs                               ... done
Initializing the effective Hamiltonian             ... done
Setting up the integral package (SHARK)            ... done
Starting the Coulomb interaction                   ... done (   0.5 sec)
Making the grid                                    ... done (   0.3 sec)
Mapping shells                                     ... done
Starting the XC term evaluation                    ... done (   0.6 sec)
  promolecular density results
     # of electrons  =    145.989649674
     EX              =   -128.189135911
     EC              =     -4.937501642
     EX+EC           =   -133.126637552
Transforming the Hamiltonian                       ... done (   0.0 sec)
Diagonalizing the Hamiltonian                      ... done (   0.1 sec)
Back transforming the eigenvectors                 ... done (   0.0 sec)
Now organizing SCF variables                       ... done
                      ------------------
                      INITIAL GUESS DONE (   1.5 sec)
                      ------------------
             **** ENERGY FILE WAS UPDATED (data/single_point_PO_M06-2x/621893/621893.en.tmp) ****
Finished Guess after   1.8 sec
Maximum memory used throughout the entire GUESS-calculation: 50.9 MB


           ************************************************************
           *        Program running with 6 parallel MPI-processes     *
           *              working on a common directory               *
           ************************************************************

-------------------------------------------------------------------------------------------
                                      ORCA LEAN-SCF
                              memory conserving SCF solver
-------------------------------------------------------------------------------------------

----------------------------------------D-I-I-S--------------------------------------------
Iteration    Energy (Eh)           Delta-E    RMSDP     MaxDP     DIISErr   Damp  Time(sec)
-------------------------------------------------------------------------------------------
               ***  Starting incremental Fock matrix formation  ***
    1    -1127.0361408495471096     0.00e+00  1.37e-03  8.85e-02  3.61e-01  0.700  16.2
    2    -1127.2592730154240144    -2.23e-01  1.14e-03  8.55e-02  1.56e-01  0.700   8.6
                               ***Turning on AO-DIIS***
    3    -1127.3600008136816086    -1.01e-01  6.47e-04  2.29e-02  4.96e-02  0.700   8.1
    4    -1127.4208508152248669    -6.09e-02  1.44e-03  5.06e-02  3.38e-02  0.000   9.0
    5    -1127.5528514330064809    -1.32e-01  1.42e-04  1.15e-02  7.95e-03  0.000   8.5
                              *** Initializing SOSCF ***
---------------------------------------S-O-S-C-F--------------------------------------
Iteration    Energy (Eh)           Delta-E    RMSDP     MaxDP     MaxGrad    Time(sec)
--------------------------------------------------------------------------------------
    6    -1127.5532398534303411    -3.88e-04  4.04e-05  2.74e-03  1.36e-03     7.8
               *** Restarting incremental Fock matrix formation ***
    7    -1127.5532169155974316     2.29e-05  7.34e-05  3.01e-03  2.69e-04    15.0
    8    -1127.5532191778449942    -2.26e-06  2.43e-05  9.65e-04  2.77e-04    10.5
    9    -1127.5532231485728971    -3.97e-06  2.00e-05  8.41e-04  4.29e-05    10.6
   10    -1127.5532230151773092     1.33e-07  2.67e-06  1.00e-04  5.17e-05     9.3
                 **** Energy Check signals convergence ****

               *****************************************************
               *                     SUCCESS                       *
               *           SCF CONVERGED AFTER  10 CYCLES          *
               *****************************************************

Recomputing exchange energy using gridx3       ... done (   21.599 sec)
Old exchange energy                            :    -70.463098210 Eh
New exchange energy                            :    -70.463054307 Eh
Exchange energy change after final integration :      0.000043904 Eh
Total energy after final integration           :  -1127.553179111 Eh
             **** ENERGY FILE WAS UPDATED (data/single_point_PO_M06-2x/621893/621893.en.tmp) ****

----------------
TOTAL SCF ENERGY
----------------

Total Energy       :      -1127.55317911133079 Eh          -30682.28186 eV

Components:
Nuclear Repulsion  :       1571.21920280117888 Eh           42755.04813 eV
Electronic Energy  :      -2698.77242581635619 Eh          -73437.33119 eV
One Electron Energy:      -4659.18814287172427 Eh         -126782.95489 eV
Two Electron Energy:       1960.41571705536808 Eh           53345.62370 eV

Virial components:
Potential Energy   :      -2249.43740750383586 Eh          -61210.30373 eV
Kinetic Energy     :       1121.88422839250507 Eh           30528.02187 eV
Virial Ratio       :          2.00505306213900

DFT components:
N(Alpha)           :       72.999947224997 electrons
N(Beta)            :       72.999947224997 electrons
N(Total)           :      145.999894449993 electrons
E(XC)              :      -65.389542175553 Eh       

---------------
SCF CONVERGENCE
---------------

  Last Energy change         ...   -1.3340e-07  Tolerance :   1.0000e-06
  Last MAX-Density change    ...    1.0021e-04  Tolerance :   1.0000e-05
  Last RMS-Density change    ...    2.6683e-06  Tolerance :   1.0000e-06
  Last DIIS Error            ...    1.3603e-03  Tolerance :   1.0000e-05
  Last Orbital Gradient      ...    5.1687e-05  Tolerance :   5.0000e-05
  Last Orbital Rotation      ...    7.5007e-05  Tolerance :   5.0000e-05


----------------
ORBITAL ENERGIES
----------------

  NO   OCC          E(Eh)            E(eV) 
   0   2.0000     -78.098039     -2125.1557 
   1   2.0000     -19.569545      -532.5144 
   2   2.0000     -14.772112      -401.9696 
   3   2.0000     -10.597778      -288.3802 
   4   2.0000     -10.595642      -288.3221 
   5   2.0000     -10.579343      -287.8785 
   6   2.0000     -10.571985      -287.6783 
   7   2.0000     -10.567668      -287.5609 
   8   2.0000     -10.556518      -287.2575 
   9   2.0000     -10.556374      -287.2535 
  10   2.0000     -10.555547      -287.2310 
  11   2.0000     -10.555417      -287.2275 
  12   2.0000     -10.555096      -287.2188 
  13   2.0000     -10.555025      -287.2168 
  14   2.0000     -10.552844      -287.1575 
  15   2.0000     -10.552728      -287.1543 
  16   2.0000     -10.552689      -287.1533 
  17   2.0000     -10.552570      -287.1500 
  18   2.0000     -10.551412      -287.1185 
  19   2.0000     -10.551294      -287.1153 
  20   2.0000      -6.904575      -187.8830 
  21   2.0000      -5.021721      -136.6480 
  22   2.0000      -5.021394      -136.6391 
  23   2.0000      -5.020153      -136.6053 
  24   2.0000      -1.071354       -29.1530 
  25   2.0000      -1.059453       -28.8292 
  26   2.0000      -0.959985       -26.1225 
  27   2.0000      -0.957052       -26.0427 
  28   2.0000      -0.914585       -24.8871 
  29   2.0000      -0.876488       -23.8505 
  30   2.0000      -0.853273       -23.2187 
  31   2.0000      -0.843549       -22.9541 
  32   2.0000      -0.842978       -22.9386 
  33   2.0000      -0.840598       -22.8738 
  34   2.0000      -0.746617       -20.3165 
  35   2.0000      -0.726640       -19.7729 
  36   2.0000      -0.703596       -19.1458 
  37   2.0000      -0.690989       -18.8028 
  38   2.0000      -0.687733       -18.7142 
  39   2.0000      -0.680131       -18.5073 
  40   2.0000      -0.640684       -17.4339 
  41   2.0000      -0.602022       -16.3818 
  42   2.0000      -0.593765       -16.1572 
  43   2.0000      -0.577720       -15.7206 
  44   2.0000      -0.563321       -15.3288 
  45   2.0000      -0.538993       -14.6667 
  46   2.0000      -0.526261       -14.3203 
  47   2.0000      -0.522935       -14.2298 
  48   2.0000      -0.517344       -14.0776 
  49   2.0000      -0.516223       -14.0471 
  50   2.0000      -0.499730       -13.5983 
  51   2.0000      -0.498825       -13.5737 
  52   2.0000      -0.491364       -13.3707 
  53   2.0000      -0.487751       -13.2724 
  54   2.0000      -0.477249       -12.9866 
  55   2.0000      -0.471801       -12.8383 
  56   2.0000      -0.459335       -12.4991 
  57   2.0000      -0.445430       -12.1208 
  58   2.0000      -0.437991       -11.9184 
  59   2.0000      -0.427209       -11.6249 
  60   2.0000      -0.411843       -11.2068 
  61   2.0000      -0.405574       -11.0362 
  62   2.0000      -0.402515       -10.9530 
  63   2.0000      -0.402391       -10.9496 
  64   2.0000      -0.360989        -9.8230 
  65   2.0000      -0.360756        -9.8167 
  66   2.0000      -0.338438        -9.2094 
  67   2.0000      -0.332275        -9.0416 
  68   2.0000      -0.329641        -8.9700 
  69   2.0000      -0.315292        -8.5795 
  70   2.0000      -0.312475        -8.5029 
  71   2.0000      -0.309431        -8.4200 
  72   2.0000      -0.304170        -8.2769 
  73   0.0000      -0.025815        -0.7025 
  74   0.0000      -0.011375        -0.3095 
  75   0.0000      -0.007359        -0.2002 
  76   0.0000       0.008291         0.2256 
  77   0.0000       0.020898         0.5687 
  78   0.0000       0.024126         0.6565 
  79   0.0000       0.067345         1.8326 
  80   0.0000       0.078249         2.1293 
  81   0.0000       0.084464         2.2984 
  82   0.0000       0.088544         2.4094 
  83   0.0000       0.098370         2.6768 
*Only the first 10 virtual orbitals were printed.

                    ********************************
                    * MULLIKEN POPULATION ANALYSIS *
                    ********************************

-----------------------
MULLIKEN ATOMIC CHARGES
-----------------------
   0 C :   -0.134729
   1 C :   -0.139045
   2 C :   -0.156790
   3 C :   -0.056468
   4 C :   -0.159103
   5 C :   -0.164577
   6 P :    0.656464
   7 O :   -0.615224
   8 C :   -0.054429
   9 C :   -0.158119
  10 C :   -0.165894
  11 C :   -0.134677
  12 C :   -0.138712
  13 C :   -0.157809
  14 C :    0.100345
  15 C :   -0.181257
  16 C :   -0.094894
  17 C :   -0.139825
  18 C :   -0.061741
  19 N :   -0.310715
  20 H :    0.146708
  21 H :    0.147473
  22 H :    0.192631
  23 H :    0.175887
  24 H :    0.144448
  25 H :    0.177368
  26 H :    0.144308
  27 H :    0.146919
  28 H :    0.147838
  29 H :    0.191795
  30 H :    0.193782
  31 H :    0.158363
  32 H :    0.152567
  33 H :    0.147110
Sum of atomic charges:   -0.0000000

--------------------------------
MULLIKEN REDUCED ORBITAL CHARGES
--------------------------------
  0 C s       :     3.226998  s :     3.226998
      pz      :     0.893666  p :     2.839765
      px      :     0.986106
      py      :     0.959993
      dz2     :     0.013573  d :     0.061693
      dxz     :     0.016561
      dyz     :     0.016690
      dx2y2   :     0.007353
      dxy     :     0.007516
      f0      :     0.001182  f :     0.006273
      f+1     :     0.001045
      f-1     :     0.001214
      f+2     :     0.000817
      f-2     :     0.000785
      f+3     :     0.000459
      f-3     :     0.000772

  1 C s       :     3.226653  s :     3.226653
      pz      :     0.932472  p :     2.846510
      px      :     0.941040
      py      :     0.972998
      dz2     :     0.012069  d :     0.059590
      dxz     :     0.012683
      dyz     :     0.014553
      dx2y2   :     0.010990
      dxy     :     0.009295
      f0      :     0.001035  f :     0.006292
      f+1     :     0.001067
      f-1     :     0.001100
      f+2     :     0.000341
      f-2     :     0.000997
      f+3     :     0.001098
      f-3     :     0.000654

  2 C s       :     3.214183  s :     3.214183
      pz      :     1.032729  p :     2.872873
      px      :     0.918047
      py      :     0.922098
      dz2     :     0.013237  d :     0.063268
      dxz     :     0.014541
      dyz     :     0.008284
      dx2y2   :     0.019014
      dxy     :     0.008193
      f0      :     0.000842  f :     0.006466
      f+1     :     0.001070
      f-1     :     0.000626
      f+2     :     0.000867
      f-2     :     0.000893
      f+3     :     0.001281
      f-3     :     0.000887

  3 C s       :     3.214588  s :     3.214588
      pz      :     0.853735  p :     2.759291
      px      :     0.928384
      py      :     0.977172
      dz2     :     0.017815  d :     0.075492
      dxz     :     0.017205
      dyz     :     0.018594
      dx2y2   :     0.011862
      dxy     :     0.010017
      f0      :     0.001249  f :     0.007097
      f+1     :     0.001212
      f-1     :     0.001347
      f+2     :     0.000874
      f-2     :     0.000895
      f+3     :     0.000746
      f-3     :     0.000774

  4 C s       :     3.187683  s :     3.187683
      pz      :     0.936387  p :     2.898976
      px      :     1.007682
      py      :     0.954907
      dz2     :     0.011798  d :     0.065961
      dxz     :     0.016719
      dyz     :     0.016516
      dx2y2   :     0.011921
      dxy     :     0.009007
      f0      :     0.001032  f :     0.006484
      f+1     :     0.001097
      f-1     :     0.001080
      f+2     :     0.000399
      f-2     :     0.001045
      f+3     :     0.001143
      f-3     :     0.000688

  5 C s       :     3.237137  s :     3.237137
      pz      :     0.984037  p :     2.861810
      px      :     0.937478
      py      :     0.940296
      dz2     :     0.012419  d :     0.059370
      dxz     :     0.013046
      dyz     :     0.008090
      dx2y2   :     0.017886
      dxy     :     0.007928
      f0      :     0.000876  f :     0.006260
      f+1     :     0.000958
      f-1     :     0.000616
      f+2     :     0.000838
      f-2     :     0.000917
      f+3     :     0.001260
      f-3     :     0.000795

  6 P s       :     5.291058  s :     5.291058
      pz      :     2.593844  p :     8.294744
      px      :     2.851808
      py      :     2.849092
      dz2     :     0.089655  d :     0.693368
      dxz     :     0.208142
      dyz     :     0.212362
      dx2y2   :     0.099944
      dxy     :     0.083265
      f0      :     0.008019  f :     0.064366
      f+1     :     0.018133
      f-1     :     0.017485
      f+2     :     0.005946
      f-2     :     0.005547
      f+3     :     0.005879
      f-3     :     0.003357

  7 O s       :     3.889677  s :     3.889677
      pz      :     1.367260  p :     4.699885
      px      :     1.669315
      py      :     1.663310
      dz2     :     0.009819  d :     0.024416
      dxz     :     0.007122
      dyz     :     0.007141
      dx2y2   :     0.000156
      dxy     :     0.000178
      f0      :     0.000527  f :     0.001246
      f+1     :     0.000349
      f-1     :     0.000344
      f+2     :     0.000012
      f-2     :     0.000011
      f+3     :     0.000001
      f-3     :     0.000002

  8 C s       :     3.215757  s :     3.215757
      pz      :     0.852750  p :     2.755851
      px      :     0.926005
      py      :     0.977097
      dz2     :     0.015517  d :     0.075718
      dxz     :     0.019500
      dyz     :     0.019466
      dx2y2   :     0.012116
      dxy     :     0.009119
      f0      :     0.001040  f :     0.007103
      f+1     :     0.001537
      f-1     :     0.001465
      f+2     :     0.000678
      f-2     :     0.000742
      f+3     :     0.000851
      f-3     :     0.000790

  9 C s       :     3.186262  s :     3.186262
      pz      :     0.919712  p :     2.899518
      px      :     1.026115
      py      :     0.953691
      dz2     :     0.012285  d :     0.065863
      dxz     :     0.017403
      dyz     :     0.017214
      dx2y2   :     0.010428
      dxy     :     0.008531
      f0      :     0.000911  f :     0.006475
      f+1     :     0.001412
      f-1     :     0.001196
      f+2     :     0.000346
      f-2     :     0.000874
      f+3     :     0.001027
      f-3     :     0.000709

 10 C s       :     3.239032  s :     3.239032
      pz      :     0.992033  p :     2.861393
      px      :     0.928573
      py      :     0.940787
      dz2     :     0.012940  d :     0.059203
      dxz     :     0.011925
      dyz     :     0.007947
      dx2y2   :     0.018287
      dxy     :     0.008104
      f0      :     0.000807  f :     0.006265
      f+1     :     0.001031
      f-1     :     0.000591
      f+2     :     0.000851
      f-2     :     0.000886
      f+3     :     0.001276
      f-3     :     0.000823

 11 C s       :     3.226418  s :     3.226418
      pz      :     0.901873  p :     2.840316
      px      :     0.979899
      py      :     0.958544
      dz2     :     0.012712  d :     0.061669
      dxz     :     0.016938
      dyz     :     0.016832
      dx2y2   :     0.008029
      dxy     :     0.007159
      f0      :     0.001010  f :     0.006274
      f+1     :     0.001277
      f-1     :     0.001293
      f+2     :     0.000641
      f-2     :     0.000695
      f+3     :     0.000590
      f-3     :     0.000770

 12 C s       :     3.225221  s :     3.225221
      pz      :     0.918547  p :     2.847779
      px      :     0.955857
      py      :     0.973375
      dz2     :     0.011751  d :     0.059430
      dxz     :     0.013913
      dyz     :     0.015409
      dx2y2   :     0.009812
      dxy     :     0.008545
      f0      :     0.000910  f :     0.006282
      f+1     :     0.001348
      f-1     :     0.001203
      f+2     :     0.000318
      f-2     :     0.000838
      f+3     :     0.000982
      f-3     :     0.000684

 13 C s       :     3.216302  s :     3.216302
      pz      :     1.043390  p :     2.871984
      px      :     0.906185
      py      :     0.922408
      dz2     :     0.014804  d :     0.063052
      dxz     :     0.012312
      dyz     :     0.007766
      dx2y2   :     0.019389
      dxy     :     0.008781
      f0      :     0.000772  f :     0.006471
      f+1     :     0.001168
      f-1     :     0.000605
      f+2     :     0.000871
      f-2     :     0.000858
      f+3     :     0.001286
      f-3     :     0.000910

 14 C s       :     3.149904  s :     3.149904
      pz      :     0.744063  p :     2.626582
      px      :     0.920578
      py      :     0.961942
      dz2     :     0.025111  d :     0.113020
      dxz     :     0.028272
      dyz     :     0.037322
      dx2y2   :     0.009048
      dxy     :     0.013267
      f0      :     0.001996  f :     0.010149
      f+1     :     0.002050
      f-1     :     0.003144
      f+2     :     0.000810
      f-2     :     0.000636
      f+3     :     0.000768
      f-3     :     0.000745

 15 C s       :     3.229818  s :     3.229818
      pz      :     1.041237  p :     2.882848
      px      :     0.937288
      py      :     0.904323
      dz2     :     0.015486  d :     0.062235
      dxz     :     0.005741
      dyz     :     0.015728
      dx2y2   :     0.007412
      dxy     :     0.017867
      f0      :     0.000864  f :     0.006356
      f+1     :     0.000183
      f-1     :     0.001559
      f+2     :     0.000903
      f-2     :     0.000757
      f+3     :     0.001257
      f-3     :     0.000833

 16 C s       :     3.223724  s :     3.223724
      pz      :     0.922236  p :     2.804058
      px      :     0.914738
      py      :     0.967084
      dz2     :     0.010871  d :     0.060849
      dxz     :     0.015185
      dyz     :     0.016171
      dx2y2   :     0.007002
      dxy     :     0.011619
      f0      :     0.000897  f :     0.006263
      f+1     :     0.001086
      f-1     :     0.001580
      f+2     :     0.000845
      f-2     :     0.000201
      f+3     :     0.000966
      f-3     :     0.000688

 17 C s       :     3.223978  s :     3.223978
      pz      :     0.902703  p :     2.850449
      px      :     0.968759
      py      :     0.978988
      dz2     :     0.011146  d :     0.059176
      dxz     :     0.016150
      dyz     :     0.017312
      dx2y2   :     0.008062
      dxy     :     0.006506
      f0      :     0.000929  f :     0.006222
      f+1     :     0.001071
      f-1     :     0.001578
      f+2     :     0.000745
      f-2     :     0.000466
      f+3     :     0.000638
      f-3     :     0.000796

 18 C s       :     3.217420  s :     3.217420
      pz      :     0.992689  p :     2.733815
      px      :     0.910028
      py      :     0.831097
      dz2     :     0.026486  d :     0.101085
      dxz     :     0.006918
      dyz     :     0.023798
      dx2y2   :     0.016518
      dxy     :     0.027365
      f0      :     0.000833  f :     0.009421
      f+1     :     0.000141
      f-1     :     0.002614
      f+2     :     0.001337
      f-2     :     0.001050
      f+3     :     0.001983
      f-3     :     0.001464

 19 N s       :     3.639124  s :     3.639124
      pz      :     1.138129  p :     3.609106
      px      :     1.112886
      py      :     1.358091
      dz2     :     0.013758  d :     0.058797
      dxz     :     0.011734
      dyz     :     0.013926
      dx2y2   :     0.008000
      dxy     :     0.011377
      f0      :     0.000663  f :     0.003689
      f+1     :     0.000609
      f-1     :     0.000906
      f+2     :     0.000439
      f-2     :     0.000292
      f+3     :     0.000475
      f-3     :     0.000306

 20 H s       :     0.833690  s :     0.833690
      pz      :     0.003454  p :     0.019602
      px      :     0.010155
      py      :     0.005992

 21 H s       :     0.832803  s :     0.832803
      pz      :     0.007678  p :     0.019723
      px      :     0.005847
      py      :     0.006198

 22 H s       :     0.786684  s :     0.786684
      pz      :     0.012847  p :     0.020685
      px      :     0.004564
      py      :     0.003274

 23 H s       :     0.803189  s :     0.803189
      pz      :     0.007462  p :     0.020924
      px      :     0.006137
      py      :     0.007325

 24 H s       :     0.835865  s :     0.835865
      pz      :     0.012192  p :     0.019686
      px      :     0.004066
      py      :     0.003428

 25 H s       :     0.801696  s :     0.801696
      pz      :     0.006366  p :     0.020936
      px      :     0.007310
      py      :     0.007260

 26 H s       :     0.836010  s :     0.836010
      pz      :     0.012817  p :     0.019683
      px      :     0.003412
      py      :     0.003454

 27 H s       :     0.833477  s :     0.833477
      pz      :     0.004174  p :     0.019604
      px      :     0.009581
      py      :     0.005849

 28 H s       :     0.832448  s :     0.832448
      pz      :     0.006606  p :     0.019714
      px      :     0.006953
      py      :     0.006155

 29 H s       :     0.787524  s :     0.787524
      pz      :     0.013731  p :     0.020681
      px      :     0.003683
      py      :     0.003268

 30 H s       :     0.785294  s :     0.785294
      pz      :     0.013858  p :     0.020924
      px      :     0.003527
      py      :     0.003539

 31 H s       :     0.821846  s :     0.821846
      pz      :     0.006826  p :     0.019790
      px      :     0.003437
      py      :     0.009527

 32 H s       :     0.827522  s :     0.827522
      pz      :     0.004439  p :     0.019911
      px      :     0.003786
      py      :     0.011685

 33 H s       :     0.833293  s :     0.833293
      pz      :     0.013857  p :     0.019597
      px      :     0.003468
      py      :     0.002272



                     *******************************
                     * LOEWDIN POPULATION ANALYSIS *
                     *******************************

----------------------
LOEWDIN ATOMIC CHARGES
----------------------
   0 C :   -0.133214
   1 C :   -0.139133
   2 C :   -0.117890
   3 C :   -0.228604
   4 C :   -0.126757
   5 C :   -0.141083
   6 P :    0.695716
   7 O :   -0.312668
   8 C :   -0.228418
   9 C :   -0.127082
  10 C :   -0.141074
  11 C :   -0.133209
  12 C :   -0.139031
  13 C :   -0.117836
  14 C :   -0.289276
  15 C :   -0.120203
  16 C :   -0.111904
  17 C :   -0.141035
  18 C :   -0.195377
  19 N :    0.120466
  20 H :    0.147899
  21 H :    0.148746
  22 H :    0.160775
  23 H :    0.152502
  24 H :    0.148030
  25 H :    0.152640
  26 H :    0.148024
  27 H :    0.147890
  28 H :    0.148780
  29 H :    0.160718
  30 H :    0.164755
  31 H :    0.152928
  32 H :    0.151340
  33 H :    0.142586

-------------------------------
LOEWDIN REDUCED ORBITAL CHARGES
-------------------------------
  0 C s       :     2.779570  s :     2.779570
      pz      :     1.057977  p :     2.938473
      px      :     0.957933
      py      :     0.922562
      dz2     :     0.119569  d :     0.374734
      dxz     :     0.095964
      dyz     :     0.087735
      dx2y2   :     0.027601
      dxy     :     0.043865
      f0      :     0.008526  f :     0.040437
      f+1     :     0.007755
      f-1     :     0.007766
      f+2     :     0.006003
      f-2     :     0.005564
      f+3     :     0.001538
      f-3     :     0.003285

  1 C s       :     2.777847  s :     2.777847
      pz      :     1.026510  p :     2.948410
      px      :     0.992133
      py      :     0.929766
      dz2     :     0.079684  d :     0.372426
      dxz     :     0.120843
      dyz     :     0.081704
      dx2y2   :     0.042134
      dxy     :     0.048060
      f0      :     0.008352  f :     0.040450
      f+1     :     0.008298
      f-1     :     0.007052
      f+2     :     0.002849
      f-2     :     0.005102
      f+3     :     0.004485
      f-3     :     0.004312

  2 C s       :     2.776217  s :     2.776217
      pz      :     1.003238  p :     2.920628
      px      :     0.991288
      py      :     0.926101
      dz2     :     0.102337  d :     0.379984
      dxz     :     0.090906
      dyz     :     0.045137
      dx2y2   :     0.073165
      dxy     :     0.068439
      f0      :     0.005883  f :     0.041062
      f+1     :     0.007156
      f-1     :     0.004839
      f+2     :     0.006708
      f-2     :     0.006654
      f+3     :     0.004623
      f-3     :     0.005199

  3 C s       :     2.770643  s :     2.770643
      pz      :     1.058542  p :     2.982112
      px      :     0.983805
      py      :     0.939764
      dz2     :     0.126822  d :     0.432257
      dxz     :     0.111553
      dyz     :     0.094521
      dx2y2   :     0.044420
      dxy     :     0.054942
      f0      :     0.008786  f :     0.043591
      f+1     :     0.008573
      f-1     :     0.008080
      f+2     :     0.006254
      f-2     :     0.006143
      f+3     :     0.002551
      f-3     :     0.003204

  4 C s       :     2.775638  s :     2.775638
      pz      :     1.018677  p :     2.931294
      px      :     0.990123
      py      :     0.922495
      dz2     :     0.079730  d :     0.378913
      dxz     :     0.120255
      dyz     :     0.084371
      dx2y2   :     0.044947
      dxy     :     0.049611
      f0      :     0.008366  f :     0.040912
      f+1     :     0.008300
      f-1     :     0.007207
      f+2     :     0.002914
      f-2     :     0.005062
      f+3     :     0.004768
      f-3     :     0.004296

  5 C s       :     2.777816  s :     2.777816
      pz      :     0.993155  p :     2.949547
      px      :     1.005544
      py      :     0.950849
      dz2     :     0.102849  d :     0.373249
      dxz     :     0.089615
      dyz     :     0.044166
      dx2y2   :     0.069806
      dxy     :     0.066814
      f0      :     0.005951  f :     0.040471
      f+1     :     0.006984
      f-1     :     0.004920
      f+2     :     0.006324
      f-2     :     0.006455
      f+3     :     0.004591
      f-3     :     0.005247

  6 P s       :     4.649005  s :     4.649005
      pz      :     2.714136  p :     8.268513
      px      :     2.781079
      py      :     2.773298
      dz2     :     0.235289  d :     1.168838
      dxz     :     0.305075
      dyz     :     0.302938
      dx2y2   :     0.172447
      dxy     :     0.153089
      f0      :     0.039631  f :     0.217928
      f+1     :     0.055402
      f-1     :     0.053725
      f+2     :     0.019453
      f-2     :     0.018537
      f+3     :     0.018654
      f-3     :     0.012527

  7 O s       :     3.538035  s :     3.538035
      pz      :     1.526049  p :     4.731036
      px      :     1.606941
      py      :     1.598046
      dz2     :     0.024882  d :     0.041488
      dxz     :     0.008180
      dyz     :     0.007899
      dx2y2   :     0.000256
      dxy     :     0.000271
      f0      :     0.001166  f :     0.002108
      f+1     :     0.000454
      f-1     :     0.000427
      f+2     :     0.000030
      f-2     :     0.000027
      f+3     :     0.000001
      f-3     :     0.000003

  8 C s       :     2.770672  s :     2.770672
      pz      :     1.059912  p :     2.981873
      px      :     0.983951
      py      :     0.938011
      dz2     :     0.117435  d :     0.432281
      dxz     :     0.123670
      dyz     :     0.096656
      dx2y2   :     0.043525
      dxy     :     0.050995
      f0      :     0.007549  f :     0.043592
      f+1     :     0.010949
      f-1     :     0.008680
      f+2     :     0.004854
      f-2     :     0.005138
      f+3     :     0.002924
      f-3     :     0.003497

  9 C s       :     2.775661  s :     2.775661
      pz      :     1.028015  p :     2.931600
      px      :     0.983331
      py      :     0.920254
      dz2     :     0.086034  d :     0.378916
      dxz     :     0.123696
      dyz     :     0.086598
      dx2y2   :     0.036485
      dxy     :     0.046103
      f0      :     0.007351  f :     0.040904
      f+1     :     0.010485
      f-1     :     0.007916
      f+2     :     0.002598
      f-2     :     0.004294
      f+3     :     0.004126
      f-3     :     0.004134

 10 C s       :     2.777859  s :     2.777859
      pz      :     0.992261  p :     2.949498
      px      :     1.008755
      py      :     0.948482
      dz2     :     0.113129  d :     0.373249
      dxz     :     0.078491
      dyz     :     0.041315
      dx2y2   :     0.071644
      dxy     :     0.068670
      f0      :     0.004587  f :     0.040468
      f+1     :     0.008478
      f-1     :     0.004738
      f+2     :     0.006729
      f-2     :     0.006318
      f+3     :     0.004187
      f-3     :     0.005431

 11 C s       :     2.779588  s :     2.779588
      pz      :     1.056871  p :     2.938517
      px      :     0.960433
      py      :     0.921213
      dz2     :     0.109758  d :     0.374670
      dxz     :     0.106446
      dyz     :     0.089071
      dx2y2   :     0.028510
      dxy     :     0.040885
      f0      :     0.007522  f :     0.040433
      f+1     :     0.009684
      f-1     :     0.008270
      f+2     :     0.004566
      f-2     :     0.004722
      f+3     :     0.002095
      f-3     :     0.003573

 12 C s       :     2.777856  s :     2.777856
      pz      :     1.037562  p :     2.948297
      px      :     0.983154
      py      :     0.927581
      dz2     :     0.086250  d :     0.372431
      dxz     :     0.123496
      dyz     :     0.083517
      dx2y2   :     0.034377
      dxy     :     0.044789
      f0      :     0.007347  f :     0.040447
      f+1     :     0.010453
      f-1     :     0.007748
      f+2     :     0.002556
      f-2     :     0.004336
      f+3     :     0.003844
      f-3     :     0.004163

 13 C s       :     2.776210  s :     2.776210
      pz      :     1.005230  p :     2.920630
      px      :     0.991972
      py      :     0.923429
      dz2     :     0.112600  d :     0.379935
      dxz     :     0.079780
      dyz     :     0.042072
      dx2y2   :     0.075100
      dxy     :     0.070383
      f0      :     0.004463  f :     0.041062
      f+1     :     0.008714
      f-1     :     0.004680
      f+2     :     0.007097
      f-2     :     0.006479
      f+3     :     0.004244
      f-3     :     0.005385

 14 C s       :     2.783819  s :     2.783819
      pz      :     0.999111  p :     2.906186
      px      :     0.855226
      py      :     1.051849
      dz2     :     0.165557  d :     0.537580
      dxz     :     0.088782
      dyz     :     0.189400
      dx2y2   :     0.056554
      dxy     :     0.037286
      f0      :     0.014116  f :     0.061693
      f+1     :     0.008789
      f-1     :     0.022111
      f+2     :     0.005695
      f-2     :     0.004973
      f+3     :     0.002670
      f-3     :     0.003340

 15 C s       :     2.780261  s :     2.780261
      pz      :     1.014101  p :     2.934511
      px      :     0.864933
      py      :     1.055478
      dz2     :     0.106801  d :     0.364462
      dxz     :     0.015373
      dyz     :     0.111751
      dx2y2   :     0.066848
      dxy     :     0.063688
      f0      :     0.005015  f :     0.040969
      f+1     :     0.000613
      f-1     :     0.012596
      f+2     :     0.007164
      f-2     :     0.006315
      f+3     :     0.004060
      f-3     :     0.005206

 16 C s       :     2.781289  s :     2.781289
      pz      :     1.042603  p :     2.912464
      px      :     0.844433
      py      :     1.025427
      dz2     :     0.087186  d :     0.376977
      dxz     :     0.050706
      dyz     :     0.159613
      dx2y2   :     0.043750
      dxy     :     0.035722
      f0      :     0.007498  f :     0.041174
      f+1     :     0.005751
      f-1     :     0.013262
      f+2     :     0.004893
      f-2     :     0.001598
      f+3     :     0.003832
      f-3     :     0.004340

 17 C s       :     2.783730  s :     2.783730
      pz      :     1.057226  p :     2.957050
      px      :     0.888242
      py      :     1.011581
      dz2     :     0.101700  d :     0.359937
      dxz     :     0.057611
      dyz     :     0.136732
      dx2y2   :     0.043007
      dxy     :     0.020888
      f0      :     0.007419  f :     0.040317
      f+1     :     0.004716
      f-1     :     0.013367
      f+2     :     0.004959
      f-2     :     0.003899
      f+3     :     0.002196
      f-3     :     0.003761

 18 C s       :     2.790463  s :     2.790463
      pz      :     0.996846  p :     2.867085
      px      :     0.857494
      py      :     1.012746
      dz2     :     0.146181  d :     0.479105
      dxz     :     0.014914
      dyz     :     0.127472
      dx2y2   :     0.100475
      dxy     :     0.090063
      f0      :     0.005721  f :     0.058723
      f+1     :     0.000486
      f-1     :     0.019743
      f+2     :     0.009089
      f-2     :     0.008326
      f+3     :     0.006459
      f-3     :     0.008900

 19 N s       :     3.048081  s :     3.048081
      pz      :     1.256424  p :     3.595088
      px      :     1.013824
      py      :     1.324840
      dz2     :     0.062118  d :     0.218672
      dxz     :     0.033937
      dyz     :     0.070773
      dx2y2   :     0.026849
      dxy     :     0.024995
      f0      :     0.003614  f :     0.017693
      f+1     :     0.002515
      f-1     :     0.005636
      f+2     :     0.001979
      f-2     :     0.000599
      f+3     :     0.001696
      f-3     :     0.001654

 20 H s       :     0.796407  s :     0.796407
      pz      :     0.011681  p :     0.055694
      px      :     0.026872
      py      :     0.017141

 21 H s       :     0.795380  s :     0.795380
      pz      :     0.021380  p :     0.055875
      px      :     0.016927
      py      :     0.017568

 22 H s       :     0.780517  s :     0.780517
      pz      :     0.034124  p :     0.058709
      px      :     0.013793
      py      :     0.010792

 23 H s       :     0.787871  s :     0.787871
      pz      :     0.021406  p :     0.059627
      px      :     0.017847
      py      :     0.020374

 24 H s       :     0.796156  s :     0.796156
      pz      :     0.031685  p :     0.055815
      px      :     0.012849
      py      :     0.011280

 25 H s       :     0.787703  s :     0.787703
      pz      :     0.018814  p :     0.059658
      px      :     0.020584
      py      :     0.020260

 26 H s       :     0.796155  s :     0.796155
      pz      :     0.033122  p :     0.055821
      px      :     0.011368
      py      :     0.011330

 27 H s       :     0.796403  s :     0.796403
      pz      :     0.013342  p :     0.055706
      px      :     0.025587
      py      :     0.016777

 28 H s       :     0.795346  s :     0.795346
      pz      :     0.018904  p :     0.055874
      px      :     0.019478
      py      :     0.017492

 29 H s       :     0.780586  s :     0.780586
      pz      :     0.036154  p :     0.058697
      px      :     0.011755
      py      :     0.010787

 30 H s       :     0.775860  s :     0.775860
      pz      :     0.036518  p :     0.059385
      px      :     0.011407
      py      :     0.011460

 31 H s       :     0.791296  s :     0.791296
      pz      :     0.019398  p :     0.055776
      px      :     0.010762
      py      :     0.025616

 32 H s       :     0.792074  s :     0.792074
      pz      :     0.013906  p :     0.056586
      px      :     0.011965
      py      :     0.030715

 33 H s       :     0.802558  s :     0.802558
      pz      :     0.035827  p :     0.054856
      px      :     0.010958
      py      :     0.008072



                      *****************************
                      * MAYER POPULATION ANALYSIS *
                      *****************************

  NA   - Mulliken gross atomic population
  ZA   - Total nuclear charge
  QA   - Mulliken gross atomic charge
  VA   - Mayer's total valence
  BVA  - Mayer's bonded valence
  FA   - Mayer's free valence

  ATOM       NA         ZA         QA         VA         BVA        FA
  0 C      6.1347     6.0000    -0.1347     3.9425     3.9425    -0.0000
  1 C      6.1390     6.0000    -0.1390     3.9127     3.9127    -0.0000
  2 C      6.1568     6.0000    -0.1568     3.9464     3.9464    -0.0000
  3 C      6.0565     6.0000    -0.0565     3.7538     3.7538     0.0000
  4 C      6.1591     6.0000    -0.1591     3.9330     3.9330    -0.0000
  5 C      6.1646     6.0000    -0.1646     4.0017     4.0017     0.0000
  6 P     14.3435    15.0000     0.6565     4.9323     4.9323    -0.0000
  7 O      8.6152     8.0000    -0.6152     1.9617     1.9617    -0.0000
  8 C      6.0544     6.0000    -0.0544     3.7528     3.7528    -0.0000
  9 C      6.1581     6.0000    -0.1581     3.9300     3.9300    -0.0000
 10 C      6.1659     6.0000    -0.1659     4.0026     4.0026    -0.0000
 11 C      6.1347     6.0000    -0.1347     3.9427     3.9427    -0.0000
 12 C      6.1387     6.0000    -0.1387     3.9138     3.9138    -0.0000
 13 C      6.1578     6.0000    -0.1578     3.9480     3.9480     0.0000
 14 C      5.8997     6.0000     0.1003     3.7197     3.7197     0.0000
 15 C      6.1813     6.0000    -0.1813     3.9713     3.9713     0.0000
 16 C      6.0949     6.0000    -0.0949     3.9036     3.9036     0.0000
 17 C      6.1398     6.0000    -0.1398     3.8772     3.8772     0.0000
 18 C      6.0617     6.0000    -0.0617     4.0198     4.0198     0.0000
 19 N      7.3107     7.0000    -0.3107     2.8986     2.8986    -0.0000
 20 H      0.8533     1.0000     0.1467     0.9631     0.9631     0.0000
 21 H      0.8525     1.0000     0.1475     0.9659     0.9659    -0.0000
 22 H      0.8074     1.0000     0.1926     0.9716     0.9716    -0.0000
 23 H      0.8241     1.0000     0.1759     0.9761     0.9761    -0.0000
 24 H      0.8556     1.0000     0.1444     0.9666     0.9666     0.0000
 25 H      0.8226     1.0000     0.1774     0.9754     0.9754     0.0000
 26 H      0.8557     1.0000     0.1443     0.9669     0.9669    -0.0000
 27 H      0.8531     1.0000     0.1469     0.9632     0.9632    -0.0000
 28 H      0.8522     1.0000     0.1478     0.9659     0.9659     0.0000
 29 H      0.8082     1.0000     0.1918     0.9719     0.9719     0.0000
 30 H      0.8062     1.0000     0.1938     0.9748     0.9748     0.0000
 31 H      0.8416     1.0000     0.1584     0.9628     0.9628    -0.0000
 32 H      0.8474     1.0000     0.1526     0.9643     0.9643     0.0000
 33 H      0.8529     1.0000     0.1471     0.9623     0.9623     0.0000

  Mayer bond orders larger than 0.100000
B(  0-C ,  1-C ) :   1.4413 B(  0-C ,  5-C ) :   1.4351 B(  0-C , 20-H ) :   0.9469 
B(  1-C ,  2-C ) :   1.4298 B(  1-C , 21-H ) :   0.9485 B(  2-C ,  3-C ) :   1.4072 
B(  2-C , 22-H ) :   0.9090 B(  3-C ,  4-C ) :   1.3804 B(  3-C ,  6-P ) :   0.9171 
B(  4-C ,  5-C ) :   1.4924 B(  4-C , 23-H ) :   0.8998 B(  5-C , 24-H ) :   0.9456 
B(  6-P ,  7-O ) :   1.9298 B(  6-P ,  8-C ) :   0.9182 B(  6-P , 14-C ) :   0.9039 
B(  8-C ,  9-C ) :   1.3797 B(  8-C , 13-C ) :   1.4067 B(  9-C , 10-C ) :   1.4926 
B(  9-C , 25-H ) :   0.8987 B( 10-C , 11-C ) :   1.4352 B( 10-C , 26-H ) :   0.9458 
B( 11-C , 12-C ) :   1.4421 B( 11-C , 27-H ) :   0.9466 B( 12-C , 13-C ) :   1.4306 
B( 12-C , 28-H ) :   0.9480 B( 13-C , 29-H ) :   0.9096 B( 14-C , 15-C ) :   1.4361 
B( 14-C , 19-N ) :   1.2429 B( 15-C , 16-C ) :   1.4161 B( 15-C , 30-H ) :   0.9083 
B( 16-C , 17-C ) :   1.4355 B( 16-C , 31-H ) :   0.9480 B( 17-C , 18-C ) :   1.3944 
B( 17-C , 32-H ) :   0.9484 B( 18-C , 19-N ) :   1.5125 B( 18-C , 33-H ) :   0.9663 


-------
TIMINGS
-------

Total SCF time: 0 days 0 hours 2 min 5 sec 

Total time                  ....     125.969 sec
Sum of individual times     ....     125.987 sec  (100.0%)

SCF preparation             ....       0.337 sec  (  0.3%)
Fock matrix formation       ....     121.919 sec  ( 96.8%)
  Startup                   ....       0.132 sec  (  0.1% of F)
  Split-RI-J                ....       9.490 sec  (  7.8% of F)
  Chain of spheres X        ....      86.638 sec  ( 71.1% of F)
  XC integration            ....      25.311 sec  ( 20.8% of F)
    Basis function eval.    ....       3.610 sec  ( 14.3% of XC)
    Density eval.           ....      10.240 sec  ( 40.5% of XC)
    XC-Functional eval.     ....       0.430 sec  (  1.7% of XC)
    XC-Potential eval.      ....       9.239 sec  ( 36.5% of XC)
Diagonalization             ....       0.000 sec  (  0.0%)
Density matrix formation    ....       0.352 sec  (  0.3%)
Total Energy calculation    ....       0.114 sec  (  0.1%)
Population analysis         ....       0.195 sec  (  0.2%)
Orbital Transformation      ....       0.415 sec  (  0.3%)
Orbital Orthonormalization  ....       0.000 sec  (  0.0%)
DIIS solution               ....       1.831 sec  (  1.5%)
SOSCF solution              ....       0.824 sec  (  0.7%)
Finished LeanSCF after 126.0 sec

Maximum memory used throughout the entire LEANSCF-calculation: 97.9 MB


-------------------------------------------------------------------------------
                          DFT DISPERSION CORRECTION                            
                                                                               
                              DFTD3 V3.1  Rev 1                                
                              USING zero damping                               
-------------------------------------------------------------------------------
The M062X functional is recognized
Active option DFTDOPT                   ...         3   

molecular C6(AA) [au] = 16874.069457 


            DFT-D V3
 parameters
 s6 scaling factor         :     1.0000 
 rs6 scaling factor        :     1.6190 
 s8 scaling factor         :     0.0000 
 rs8 scaling factor        :     1.0000 
 Damping factor alpha6     :    14.0000 
 Damping factor alpha8     :    16.0000 
 ad hoc parameters k1-k3   :    16.0000     1.3333    -4.0000 

 Edisp/kcal,au: -1.363047772841  -0.002172154659 
 E6   /kcal   :  -1.363047773 
 E8   /kcal   :  -0.000000000 
 % E8         :   0.000000000 

-------------------------   ----------------
Dispersion correction           -0.002172155
-------------------------   ----------------


-------------------------   --------------------
FINAL SINGLE POINT ENERGY     -1127.555351265989
-------------------------   --------------------



           ************************************************************
           *        Program running with 6 parallel MPI-processes     *
           *              working on a common directory               *
           ************************************************************

------------------------------------------------------------------------------
                              ORCA PROPERTY CALCULATIONS
------------------------------------------------------------------------------

GBWName                                 ... data/single_point_PO_M06-2x/621893/621893.gbw
Number of atoms                         ...     34
Number of basis functions               ...    710
Max core memory                         ...   1024 MB

Electric properties:
Dipole moment                           ... YES
Quadrupole moment                       ...  NO
Static polarizability (Dipole/Dipole)   ...  NO
Static polarizability (Dipole/Quad.)    ...  NO
Static polarizability (Quad./Quad.)     ...  NO
Static polarizability (Velocity)        ...  NO

Atomic electric properties:
Dipole moment                           ...  NO
Quadrupole moment                       ...  NO
Static polarizability                   ...  NO

Choice of electric origin               ... Center of mass
Position of electric origin             ...     0.023141     0.088620     0.354677

General magnetic properties:
Magnetizability                         ...  NO

EPR properties:
g-Tensor (aka g-matrix)                 ...  NO
Zero-Field splitting spin-orbit         ...  NO
Zero-field splitting spin-spin          ...  NO
Hyperfine couplings                     ...  NO (   0 nuclei)
Quadrupole couplings                    ...  NO (   0 nuclei)
Contact density                         ...  NO (   0 nuclei)

NMR properties:
Chemical shifts                         ...  NO (   0 nuclei)
Spin-rotation constants                 ...  NO (   0 nuclei)
Spin-spin couplings                     ...  NO (   0 nuclei,    0 pairs)

Choice of magnetic origin               ... GIAO
Position of magnetic origin             ...     0.000000     0.000000     0.000000

Properties with geometric perturbations:
SCF Hessian                             ...  NO
IR spectrum                             ...  NO
VCD spectrum                            ...  NO
X-ray spectroscopy properties:
SCF XES/XAS/RIXS spectra                ...  NO


-------------
DIPOLE MOMENT
-------------

Method             : SCF
Type of density    : Electron Density
Multiplicity       :   1
Irrep              :   0
Energy             : -1127.5531791113307918 Eh
Relativity type    : 
Basis              : AO
                                X                 Y                 Z
Electronic contribution:      0.252658466       2.001848684       4.026278410
Nuclear contribution   :     -0.342680824      -1.293330409      -5.265035241
                        -----------------------------------------
Total Dipole Moment    :     -0.090022359       0.708518275      -1.238756831
                        -----------------------------------------
Magnitude (a.u.)       :      1.429902325
Magnitude (Debye)      :      3.634522870



--------------------
Rotational spectrum 
--------------------
 
Rotational constants in cm-1:             0.010654             0.010550             0.007061 
Rotational constants in MHz :           319.401810           316.277672           211.681332 

Dipole components along the rotational axes: 
x,y,z [a.u.] :    -0.747923     0.052185    -1.217583 
x,y,z [Debye]:    -1.901068     0.132643    -3.094851 

 

Dipole moment calculation done in   0.0 sec 

Maximum memory used throughout the entire PROP-calculation: 52.9 MB

--------------------------------
SUGGESTED CITATIONS FOR THIS RUN
--------------------------------

Below you find a list of papers that are relevant to this ORCA run
We neither can nor want to force you to cite these papers, but we appreciate if you do
You receive ORCA, which is the product of decades of hard work by many enthusiastic individuals, for free
The only thing we kindly ask in return is that you cite our papers,
We deeply appreciate it, if you show your appreciation for ORCA by not just citing the generic ORCA reference.

Please note that relegating all ORCA citations to the supporting information does *not* help us.
SI sections are not indexed - citations you put there will not count into any citation statistics
But we need these citations in order to attract the funding resources that allow us to do what we are doing

Therefore, if you are a happy ORCA user, please consider citing a few of the papers listed below in the main body of your paper

In addition to the list printed below, the program has created the file data/single_point_PO_M06-2x/621893/621893.bibtex that contains the list in bibtex format
You can import this file easily into all common literature databanks and citation aid programs


List of essential papers. We consider these as the minimum necessary citations

  1. Neese,F.
     Software update: the ORCA program system, version 5.0
     WIRES Comput. Molec. Sci., 2022 12(1)e1606
     doi.org/10.1002/wcms.1606

List of papers to cite with high priority. The work reported in these papers was absolutely
necessary for this run to complete.
Our perspective: the developers of density functionals and basis sets usually get cited in chemistry papers
Good! But without the algorithms to do something with them, the functionals or basis sets would not do anything.
Hence, in our opinion, the algorithm design and method developments papers are equally worthy of getting cited

  1. Neese,F.
     An improvement of the resolution of the identity approximation for the formation of the Coulomb matrix
     J. Comp. Chem., 2003 24(14)1740-1747
     doi.org/10.1002/jcc.10318
  2. Neese,F.; Wennmohs,F.; Hansen,A.; Becker,U.
     Efficient, approximate and parallel Hartree-Fock and hybrid DFT calculations. A 'chain-of-spheres' algorithm for the Hartree-Fock exchange
     Chem. Phys., 2009 356(1-3)98-109
     doi.org/10.1016/j.chemphys.2008.10.036
  3. Helmich-Paris,B.; de Souza,B.; Neese,F.; Izsák,R.
     An improved chain of spheres for exchange algorithm
     J. Chem. Phys., 2021 155 104109
     doi.org/doi: 10.1063/5.0058766.
  4. Neese,F.
     The SHARK Integral Generation and Digestion System
     J. Comp. Chem., 2022  1-16
     doi.org/10.1002/jcc.26942
  5. Grimme,S.; Antony,J.; Ehrlich,S.; Krieg,H.
     A consistent and accurate ab initio parametrization of density functional dispersion correction (DFT-D) for the 94 elements H-Pu
     J. Chem. Phys., 2010 132 154104-XXXX
     doi.org/10.1063/1.3382344

List of suggested additional citations. These are papers that are important in the 'surrounding' of 
of this run, or papers that preceded the highly important papers. If you like your results we are grateful for a citation.

  1. Izsak,R.; Neese,F.
     An overlap fitted chain of spheres exchange method
     J. Chem. Phys., 2011 135 144105
     doi.org/10.1063/1.3646921
  2. Izsak,R.; Hansen,A.; Neese,F.
     The resolution of identity and chain of spheres approximations for the LPNO-CCSD singles Fock term
     Molec. Phys., 2012 110 2413-2417
     doi.org/10.1080/00268976.2012.687466
  3. Neese,F.
     The ORCA program system
     WIRES Comput. Molec. Sci., 2012 2(1)73-78
     doi.org/10.1002/wcms.81
  4. Izsak,R.; Neese,F.; Klopper,W.
     Robust fitting techniques in the chain of spheres approximation to the Fock exchange: The role of the complementary space
     J. Chem. Phys., 2013 139 
     doi.org/10.1063/1.4819264
  5. Neese,F.
     Software update: the ORCA program system, version 4.0
     WIRES Comput. Molec. Sci., 2018 8(1)1-6
     doi.org/10.1002/wcms.1327
  6. Neese,F.; Wennmohs,F.; Becker,U.; Riplinger,C.
     The ORCA quantum chemistry program package
     J. Chem. Phys., 2020 152 Art. No. L224108
     doi.org/10.1063/5.0004608

List of optional additional citations

  1. Neese,F.
     Approximate second-order SCF convergence for spin unrestricted wavefunctions
     Chem. Phys. Lett., 2000 325(1-3)93-98
     doi.org/10.1016/s0009-2614(00)00662-x

Timings for individual modules:

Sum of individual times          ...      133.015 sec (=   2.217 min)
Startup calculation              ...        4.667 sec (=   0.078 min)   3.5 %
SCF iterations                   ...      128.025 sec (=   2.134 min)  96.2 %
Property calculations            ...        0.323 sec (=   0.005 min)   0.2 %
                             ****ORCA TERMINATED NORMALLY****
TOTAL RUN TIME: 0 days 0 hours 2 minutes 13 seconds 275 msec
