
                                 *****************
                                 * O   R   C   A *
                                 *****************

                                            #,                                       
                                            ###                                      
                                            ####                                     
                                            #####                                    
                                            ######                                   
                                           ########,                                 
                                     ,,################,,,,,                         
                               ,,#################################,,                 
                          ,,##########################################,,             
                       ,#########################################, ''#####,          
                    ,#############################################,,   '####,        
                  ,##################################################,,,,####,       
                ,###########''''           ''''###############################       
              ,#####''   ,,,,##########,,,,          '''####'''          '####       
            ,##' ,,,,###########################,,,                        '##       
           ' ,,###''''                  '''############,,,                           
         ,,##''                                '''############,,,,        ,,,,,,###''
      ,#''                                            '''#######################'''  
     '                                                          ''''####''''         
             ,#######,   #######,   ,#######,      ##                                
            ,#'     '#,  ##    ##  ,#'     '#,    #''#        ,####,   ,####,        
            ##       ##  ##   ,#'  ##            #'  '#       #'       #'  '#        
            ##       ##  #######   ##           ,######,      #####,   #    #        
            '#,     ,#'  ##    ##  '#,     ,#' ,#      #,     #,   #   #,  ,#        
             '#######'   ##     ##  '#######'  #'      '#     '####' # '####'        



                #########################################################
                #                        -***-                          #
                #          Department of theory and spectroscopy        #
                #                                                       #
                #                      Frank Neese                      #
                #                                                       #
                #     Directorship, Architecture, Infrastructure        #
                #                    SHARK, DRIVERS                     #
                #        Core code/Algorithms in most modules           #
                #                                                       #
                #        Max Planck Institute fuer Kohlenforschung      #
                #                Kaiser Wilhelm Platz 1                 #
                #                 D-45470 Muelheim/Ruhr                 #
                #                      Germany                          #
                #                                                       #
                #                  All rights reserved                  #
                #                        -***-                          #
                #########################################################


                         Program Version 6.0.0  -   RELEASE   -


 With contributions from (in alphabetic order):
   Daniel Aravena         : Magnetic Suceptibility
   Michael Atanasov       : Ab Initio Ligand Field Theory (pilot matlab implementation)
   Alexander A. Auer      : GIAO ZORA, VPT2 properties, NMR spectrum
   Ute Becker             : All parallelization in ORCA, NUMFREQ, NUMCALC
   Giovanni Bistoni       : ED, misc. LED, open-shell LED, HFLD
   Martin Brehm           : Molecular dynamics
   Dmytro Bykov           : pre 5.0 version of the SCF Hessian
   Marcos Casanova-Páez   : Triplet and SCS-CIS(D). UHF-(DLPNO)-IP/EA/STEOM-CCSD. UHF-CVS-IP/STEOM-CCSD
   Vijay G. Chilkuri      : MRCI spin determinant printing, contributions to CSF-ICE
   Pauline Colinet        : FMM embedding
   Dipayan Datta          : RHF DLPNO-CCSD density
   Achintya Kumar Dutta   : EOM-CC, STEOM-CC
   Nicolas Foglia         : Exact transition moments, OPA infrastructure, MCD improvements
   Dmitry Ganyushin       : Spin-Orbit,Spin-Spin,Magnetic field MRCI
   Miquel Garcia          : C-PCM and meta-GGA Hessian, CCSD/C-PCM, Gaussian charge scheme
   Tiago L. C. Gouveia    : GS-ROHF, GS-ROCIS
   Yang Guo               : DLPNO-NEVPT2, F12-NEVPT2, CIM, IAO-localization
   Andreas Hansen         : Spin unrestricted coupled pair/coupled cluster methods
   Ingolf Harden          : AUTO-CI MPn and infrastructure 
   Benjamin Helmich-Paris : MC-RPA, TRAH-(SCF,CASSCF), AVAS, COSX integrals, SCF dyn. polar.
   Lee Huntington         : MR-EOM, pCC
   Robert Izsak           : Overlap fitted RIJCOSX, COSX-SCS-MP3, EOM
   Riya Kayal             : Wick's Theorem for AUTO-CI, AUTO-CI UHF-CCSDT
   Emily Kempfer          : AUTO-CI, RHF CISDT and CCSDT
   Christian Kollmar      : KDIIS, OOCD, Brueckner-CCSD(T), CCSD density, CASPT2, CASPT2-K, improved NEVPT2
   Axel Koslowski         : Symmetry handling
   Simone Kossmann        : Meta GGA functionals, TD-DFT gradient, OOMP2, (MP2 Hessian; deprecated post 5.0)
   Lucas Lang             : DCDCAS
   Marvin Lechner         : AUTO-CI (C++ implementation), FIC-MRCC
   Spencer Leger          : CASSCF response
   Dagmar Lenk            : GEPOL surface, SMD, ORCA-2-JSON
   Dimitrios Liakos       : Extrapolation schemes; Compound Job, initial MDCI parallelization
   Dimitrios Manganas     : Further ROCIS development; embedding schemes. LFT, Crystal Embedding
   Dimitrios Pantazis     : SARC Basis sets
   Anastasios Papadopoulos: AUTO-CI, single reference methods and gradients
   Taras Petrenko         : pre 6.0 DFT Hessian and TD-DFT gradient, (ASA, deprecated), ECA, 1-Electron XAS/XES, NRVS
   Peter Pinski           : DLPNO-MP2, DLPNO-MP2 Gradient
   Christoph Reimann      : Effective Core Potentials
   Marius Retegan         : Local ZFS, SOC
   Christoph Riplinger    : Optimizer, TS searches, QM/MM, DLPNO-CCSD(T), (RO)-DLPNO pert. Triples
   Michael Roemelt        : Original ROCIS implementation
   Masaaki Saitow         : Open-shell DLPNO-CCSD energy and density
   Barbara Sandhoefer     : DKH picture change effects
   Kantharuban Sivalingam : CASSCF convergence/infrastructure, NEVPT2 and variants, FIC-MRCI
   Bernardo de Souza      : ESD, SOC TD-DFT
   Georgi Stoychev        : AutoAux, RI-MP2 NMR, DLPNO-MP2 response, X2C
   Van Anh Tran           : RI-MP2 g-tensors
   Willem Van den Heuvel  : Paramagnetic NMR
   Zikuan Wang            : NOTCH, Electric field optimization 
   Frank Wennmohs         : Technical directorship and infrastructure
   Hang Xu                : AUTO-CI-Response properties 


 We gratefully acknowledge several colleagues who have allowed us to
 interface, adapt or use parts of their codes:
   Stefan Grimme, W. Hujo, H. Kruse, P. Pracht,  : VdW corrections, initial TS optimization,
                  C. Bannwarth, S. Ehlert,         DFT functionals, gCP, sTDA/sTD-DF
                  L. Wittmann, M. Mueller
   Ed Valeev, F. Pavosevic, A. Kumar             : LibInt (2-el integral package), F12 methods
   Garnet Chan, S. Sharma, J. Yang, R. Olivares  : DMRG
   Ulf Ekstrom                                   : XCFun DFT Library
   Mihaly Kallay                                 : mrcc  (arbitrary order and MRCC methods)
   Frank Weinhold                                : gennbo (NPA and NBO analysis)
   Simon Mueller                                 : openCOSMO-RS
   Christopher J. Cramer and Donald G. Truhlar   : smd solvation model
   Lars Goerigk                                  : TD-DFT with DH, B97 family of functionals
   V. Asgeirsson, H. Jonsson                     : NEB implementation
   FAccTs GmbH                                   : IRC, NEB, NEB-TS, DLPNO-Multilevel, CI-OPT
                                                   MM, QMMM, 2- and 3-layer-ONIOM, Crystal-QMMM,
                                                   LR-CPCM, SF, NACMEs, symmetry and pop. for TD-DFT,
                                                   nearIR, NL-DFT gradient (VV10), updates on ESD,
                                                   ML-optimized integration grids, MBIS, APM,
                                                   GOAT, DOCKER, SOLVATOR, interface openCOSMO-RS
   S Lehtola, MJT Oliveira, MAL Marques          : LibXC Library
   Liviu Ungur et al                             : ANISO software


 Your calculation uses the libint2 library for the computation of 2-el integrals
 For citations please refer to: http://libint.valeyev.net

 Your ORCA version has been built with support for libXC version: 6.2.2
 For citations please refer to: https://libxc.gitlab.io

 This ORCA versions uses:
   CBLAS   interface :  Fast vector & matrix operations
   LAPACKE interface :  Fast linear algebra routines
   Shared memory     :  Shared parallel matrices


Your calculation utilizes the atom-pairwise dispersion correction
with the Becke-Johnson damping scheme (D3BJ)


Warning: RI is on but no J-basis has been assigned. Assigning Def2/J (nothing to worry about!)
================================================================================

----- Orbital basis set information -----
Your calculation utilizes the basis: def2-SVP
   F. Weigend and R. Ahlrichs, Phys. Chem. Chem. Phys. 7, 3297 (2005).

----- AuxJ basis set information -----
Your calculation utilizes the auxiliary basis: def2/J
   F. Weigend, Phys. Chem. Chem. Phys. 8, 1057 (2006).

================================================================================
                                        WARNINGS
                       Please study these warnings very carefully!
================================================================================


WARNING: Geometry Optimization
  ===> : Switching off AutoStart
         For restart on a previous wavefunction, please use MOREAD

================================================================================
                                       INPUT FILE
================================================================================
NAME = data/geom_opt_PO_BP86/120481/120481.inp
|  1> ! RI BP86 def2-SVP D3BJ TIGHTSCF Opt
|  2> %pal
|  3> nprocs 6
|  4> end
|  5> 
|  6> * xyz 0 1
|  7> C      4.806404   -0.552046   -0.434379
|  8> N      3.361494   -0.769644   -0.311549
|  9> C      3.113905   -1.957722    0.510473
| 10> C      2.759800   -0.895080   -1.651203
| 11> C      1.227763   -0.874240   -1.645491
| 12> C      0.655182    0.398443   -1.025030
| 13> P     -1.167281    0.388945   -0.946413
| 14> O     -1.681728    0.114732   -2.346329
| 15> C     -1.705722    1.973874   -0.311993
| 16> C     -0.978371    2.688206    0.649712
| 17> C     -1.441631    3.918503    1.121469
| 18> C     -2.635957    4.448500    0.637718
| 19> C     -3.368714    3.750393   -0.318796
| 20> C     -2.906015    2.521363   -0.789794
| 21> C     -1.640395   -0.870334    0.234972
| 22> C     -1.124142   -0.892243    1.537984
| 23> C     -1.506098   -1.890538    2.436132
| 24> C     -2.407833   -2.876974    2.042002
| 25> C     -2.928936   -2.866816    0.750256
| 26> C     -2.547286   -1.869211   -0.147289
| 27> H      5.309543   -1.387159   -0.935299
| 28> H      5.260996   -0.416474    0.553456
| 29> H      5.011537    0.364551   -0.998726
| 30> H      3.597225   -1.854107    1.488868
| 31> H      3.489066   -2.873082    0.038804
| 32> H      2.046312   -2.083358    0.715413
| 33> H      3.092071   -0.054291   -2.274545
| 34> H      3.107576   -1.809949   -2.148524
| 35> H      0.830888   -1.754815   -1.129688
| 36> H      0.872837   -0.953844   -2.680206
| 37> H      0.961463    1.266927   -1.619127
| 38> H      1.044783    0.539400   -0.012895
| 39> H     -0.044279    2.297958    1.043595
| 40> H     -0.869759    4.465201    1.867166
| 41> H     -2.995182    5.406357    1.004797
| 42> H     -4.299533    4.161776   -0.700620
| 43> H     -3.481331    1.982471   -1.541554
| 44> H     -0.419945   -0.132443    1.865741
| 45> H     -1.101698   -1.897866    3.445192
| 46> H     -2.706356   -3.653008    2.741998
| 47> H     -3.633306   -3.634410    0.440076
| 48> H     -2.957345   -1.867947   -1.156375
| 49> **                         ****END OF INPUT****
================================================================================

                       *****************************
                       * Geometry Optimization Run *
                       *****************************

Geometry optimization settings:
Update method            Update   .... BFGS
Choice of coordinates    CoordSys .... (2022) Redundant Internals
Initial Hessian          InHess   .... Almloef's Model
Max. no of cycles        MaxIter  .... 126

Convergence Tolerances:
Energy Change            TolE     ....  5.0000e-06 Eh
Max. Gradient            TolMAXG  ....  3.0000e-04 Eh/bohr
RMS Gradient             TolRMSG  ....  1.0000e-04 Eh/bohr
Max. Displacement        TolMAXD  ....  4.0000e-03 bohr
RMS Displacement         TolRMSD  ....  2.0000e-03 bohr
Strict Convergence                .... False

------------------------------------------------------------------------------
                        ORCA OPTIMIZATION COORDINATE SETUP
------------------------------------------------------------------------------

The optimization will be done in redundant internal coordinates (2022)
Making redundant internal coordinates   ...  (2022 redundants) done
Evaluating the initial hessian          ...  (Almloef) done
Evaluating the coordinates              ...  done
Calculating the B-matrix                .... done
Calculating the G-matrix                .... done
Diagonalizing the G-matrix              .... done
Small eigenvalue found = 2.499e-03
Small eigenvalue found = 3.611e-03
Small eigenvalue found = 5.626e-03
Small eigenvalue found = 1.216e-02
Small eigenvalue found = 1.496e-02
Small eigenvalue found = 2.265e-02
Small eigenvalue found = 2.667e-02
The first mode is                       ....   89
The number of degrees of freedom        ....  120

    -----------------------------------------------------------------
                    Redundant Internal Coordinates


    -----------------------------------------------------------------
         Definition                    Initial Value    Approx d2E/dq
    -----------------------------------------------------------------
      1. B(N   1,C   0)                  1.4664         0.422721   
      2. B(C   2,N   1)                  1.4658         0.423596   
      3. B(C   3,N   1)                  1.4739         0.411136   
      4. B(C   4,C   3)                  1.5322         0.370582   
      5. B(C   5,C   4)                  1.5273         0.377345   
      6. B(P   6,C   5)                  1.8242         0.426110   
      7. B(O   7,P   6)                  1.5164         1.182035   
      8. B(C   8,P   6)                  1.7901         0.482971   
      9. B(C   9,C   8)                  1.4015         0.598963   
     10. B(C  10,C   9)                  1.3967         0.609586   
     11. B(C  11,C  10)                  1.3933         0.617234   
     12. B(C  12,C  11)                  1.3926         0.618963   
     13. B(C  13,C  12)                  1.3952         0.613086   
     14. B(C  13,C   8)                  1.4031         0.595400   
     15. B(C  14,P   6)                  1.7903         0.482533   
     16. B(C  15,C  14)                  1.4017         0.598452   
     17. B(C  16,C  15)                  1.3961         0.610904   
     18. B(C  17,C  16)                  1.3934         0.617076   
     19. B(C  18,C  17)                  1.3929         0.618103   
     20. B(C  19,C  18)                  1.3952         0.613074   
     21. B(C  19,C  14)                  1.4023         0.597283   
     22. B(H  20,C   0)                  1.0961         0.352092   
     23. B(H  21,C   0)                  1.0958         0.352465   
     24. B(H  22,C   0)                  1.0958         0.352544   
     25. B(H  23,C   2)                  1.0962         0.352028   
     26. B(H  24,C   2)                  1.0959         0.352317   
     27. B(H  25,C   2)                  1.0943         0.354428   
     28. B(H  26,C   3)                  1.0981         0.349506   
     29. B(H  27,C   3)                  1.0978         0.349871   
     30. B(H  28,C   4)                  1.0950         0.353576   
     31. B(H  29,C   4)                  1.0968         0.351231   
     32. B(H  30,C   5)                  1.0959         0.352363   
     33. B(H  31,C   5)                  1.0937         0.355301   
     34. B(H  32,C   9)                  1.0863         0.365079   
     35. B(H  33,C  10)                  1.0872         0.363838   
     36. B(H  34,C  11)                  1.0869         0.364269   
     37. B(H  35,C  12)                  1.0869         0.364164   
     38. B(H  36,C  13)                  1.0893         0.361051   
     39. B(H  37,C  15)                  1.0866         0.364679   
     40. B(H  38,C  16)                  1.0871         0.363951   
     41. B(H  39,C  17)                  1.0869         0.364232   
     42. B(H  40,C  18)                  1.0870         0.364103   
     43. B(H  41,C  19)                  1.0892         0.361131   
     44. A(N   1,C   0,H  21)          110.5863         0.327842   
     45. A(H  20,C   0,H  22)          108.4218         0.288853   
     46. A(N   1,C   0,H  20)          112.1805         0.327785   
     47. A(H  21,C   0,H  22)          106.4465         0.288901   
     48. A(N   1,C   0,H  22)          110.5935         0.327854   
     49. A(H  20,C   0,H  21)          108.4087         0.288843   
     50. A(C   2,N   1,C   3)          111.8256         0.372727   
     51. A(C   0,N   1,C   3)          109.8008         0.372594   
     52. A(C   0,N   1,C   2)          109.4932         0.374517   
     53. A(N   1,C   2,H  23)          110.4542         0.327887   
     54. A(N   1,C   2,H  25)          111.2763         0.328254   
     55. A(H  24,C   2,H  25)          108.5822         0.289123   
     56. A(H  23,C   2,H  24)          108.1889         0.288816   
     57. A(N   1,C   2,H  24)          112.1975         0.327931   
     58. A(H  23,C   2,H  25)          105.8932         0.289086   
     59. A(C   4,C   3,H  27)          109.2550         0.322364   
     60. A(N   1,C   3,H  26)          109.1020         0.325892   
     61. A(N   1,C   3,H  27)          110.6913         0.325948   
     62. A(N   1,C   3,C   4)          113.8059         0.366553   
     63. A(C   4,C   3,H  26)          107.1127         0.322309   
     64. A(H  26,C   3,H  27)          106.5621         0.288177   
     65. A(C   5,C   4,H  28)          110.0527         0.323880   
     66. A(C   5,C   4,H  29)          108.8095         0.323527   
     67. A(C   3,C   4,H  29)          108.6066         0.322569   
     68. A(H  28,C   4,H  29)          105.5896         0.288875   
     69. A(C   3,C   4,H  28)          110.6851         0.322921   
     70. A(C   3,C   4,C   5)          112.8125         0.363476   
     71. A(P   6,C   5,H  31)          108.4628         0.351232   
     72. A(P   6,C   5,H  30)          107.8606         0.350740   
     73. A(C   4,C   5,P   6)          112.8128         0.396357   
     74. A(C   4,C   5,H  30)          109.5948         0.323698   
     75. A(C   4,C   5,H  31)          110.4764         0.324139   
     76. A(H  30,C   5,H  31)          107.4574         0.289241   
     77. A(C   5,P   6,O   7)          107.4625         0.517891   
     78. A(C   5,P   6,C   8)          108.1298         0.441628   
     79. A(C   8,P   6,C  14)          108.0240         0.451694   
     80. A(O   7,P   6,C  14)          113.0992         0.530134   
     81. A(C   5,P   6,C  14)          107.2242         0.441556   
     82. A(O   7,P   6,C   8)          112.6582         0.530224   
     83. A(C   9,C   8,C  13)          118.6040         0.428257   
     84. A(P   6,C   8,C   9)          122.5726         0.440053   
     85. A(P   6,C   8,C  13)          118.8226         0.439579   
     86. A(C   8,C   9,H  32)          120.7963         0.351670   
     87. A(C   8,C   9,C  10)          120.5708         0.430070   
     88. A(C  10,C   9,H  32)          118.6329         0.352717   
     89. A(C  11,C  10,H  33)          119.8510         0.353259   
     90. A(C   9,C  10,H  33)          120.0096         0.352514   
     91. A(C   9,C  10,C  11)          120.1394         0.432398   
     92. A(C  10,C  11,H  34)          120.0850         0.353330   
     93. A(C  10,C  11,C  12)          119.9229         0.433586   
     94. A(C  12,C  11,H  34)          119.9920         0.353497   
     95. A(C  13,C  12,H  35)          119.9227         0.352909   
     96. A(C  11,C  12,H  35)          120.1435         0.353480   
     97. A(C  11,C  12,C  13)          119.9338         0.433061   
     98. A(C   8,C  13,C  12)          120.8292         0.430052   
     99. A(C  12,C  13,H  36)          119.5802         0.352397   
    100. A(C   8,C  13,H  36)          119.5899         0.350658   
    101. A(C  15,C  14,C  19)          118.7157         0.428434   
    102. A(P   6,C  14,C  19)          119.4763         0.439758   
    103. A(P   6,C  14,C  15)          121.8074         0.439913   
    104. A(C  14,C  15,C  16)          120.5592         0.430171   
    105. A(C  16,C  15,H  37)          118.8990         0.352781   
    106. A(C  14,C  15,H  37)          120.5418         0.351554   
    107. A(C  15,C  16,C  17)          120.0859         0.432546   
    108. A(C  17,C  16,H  38)          119.9021         0.353262   
    109. A(C  15,C  16,H  38)          120.0119         0.352662   
    110. A(C  16,C  17,C  18)          119.9505         0.433458   
    111. A(C  18,C  17,H  39)          119.9805         0.353408   
    112. A(C  16,C  17,H  39)          120.0689         0.353308   
    113. A(C  17,C  18,C  19)          119.9652         0.432951   
    114. A(C  19,C  18,H  40)          119.9092         0.352898   
    115. A(C  17,C  18,H  40)          120.1256         0.353387   
    116. A(C  14,C  19,C  18)          120.7236         0.430294   
    117. A(C  18,C  19,H  41)          119.5935         0.352409   
    118. A(C  14,C  19,H  41)          119.6828         0.350858   
    119. D(C   2,N   1,C   0,H  21)    -59.1508         0.015236   
    120. D(C   3,N   1,C   0,H  20)    -61.1266         0.015236   
    121. D(C   2,N   1,C   0,H  20)     62.0088         0.015236   
    122. D(C   3,N   1,C   0,H  21)    177.7137         0.015236   
    123. D(C   2,N   1,C   0,H  22)   -176.8098         0.015236   
    124. D(H  24,C   2,N   1,C   0)    -64.5195         0.015299   
    125. D(H  23,C   2,N   1,C   3)    178.2070         0.015299   
    126. D(H  25,C   2,N   1,C   0)    173.5938         0.015299   
    127. D(H  24,C   2,N   1,C   3)     57.4092         0.015299   
    128. D(H  23,C   2,N   1,C   0)     56.2784         0.015299   
    129. D(H  26,C   3,N   1,C   2)   -171.8616         0.014419   
    130. D(C   4,C   3,N   1,C   2)     68.5910         0.014419   
    131. D(C   4,C   3,N   1,C   0)   -169.6572         0.014419   
    132. D(H  27,C   3,N   1,C   0)     66.8438         0.014419   
    133. D(H  26,C   3,N   1,C   0)    -50.1097         0.014419   
    134. D(H  28,C   4,C   3,H  27)     58.7304         0.010976   
    135. D(C   5,C   4,C   3,N   1)     58.2633         0.010976   
    136. D(H  28,C   4,C   3,H  26)    173.7849         0.010976   
    137. D(C   5,C   4,C   3,H  27)   -177.4605         0.010976   
    138. D(C   5,C   4,C   3,H  26)    -62.4060         0.010976   
    139. D(H  28,C   4,C   3,N   1)    -65.5459         0.010976   
    140. D(H  30,C   5,C   4,H  28)   -173.3230         0.011357   
    141. D(H  30,C   5,C   4,C   3)     62.5196         0.011357   
    142. D(P   6,C   5,C   4,H  29)     62.1194         0.011357   
    143. D(P   6,C   5,C   4,H  28)    -53.1298         0.011357   
    144. D(H  30,C   5,C   4,H  29)    -58.0738         0.011357   
    145. D(P   6,C   5,C   4,C   3)   -177.2872         0.011357   
    146. D(C   8,P   6,C   5,C   4)   -176.0237         0.004162   
    147. D(O   7,P   6,C   5,H  31)   -176.8773         0.004162   
    148. D(O   7,P   6,C   5,H  30)     67.0268         0.004162   
    149. D(O   7,P   6,C   5,C   4)    -54.1571         0.004162   
    150. D(C   8,P   6,C   5,H  31)     61.2561         0.004162   
    151. D(C   8,P   6,C   5,H  30)    -54.8398         0.004162   
    152. D(C  13,C   8,P   6,O   7)     27.1007         0.004697   
    153. D(C  13,C   8,P   6,C   5)    145.7111         0.004697   
    154. D(C   9,C   8,P   6,C  14)     81.1181         0.004697   
    155. D(C   9,C   8,P   6,O   7)   -153.2266         0.004697   
    156. D(C   9,C   8,P   6,C   5)    -34.6163         0.004697   
    157. D(H  32,C   9,C   8,C  13)   -179.9568         0.024727   
    158. D(H  32,C   9,C   8,P   6)      0.3699         0.024727   
    159. D(C  10,C   9,C   8,C  13)      0.0491         0.024727   
    160. D(C  10,C   9,C   8,P   6)   -179.6242         0.024727   
    161. D(H  33,C  10,C   9,H  32)      0.0422         0.025662   
    162. D(C  11,C  10,C   9,H  32)    179.9966         0.025662   
    163. D(C  11,C  10,C   9,C   8)     -0.0092         0.025662   
    164. D(H  33,C  10,C   9,C   8)   -179.9636         0.025662   
    165. D(H  34,C  11,C  10,H  33)      0.0082         0.026348   
    166. D(H  34,C  11,C  10,C   9)   -179.9463         0.026348   
    167. D(C  12,C  11,C  10,H  33)    179.9113         0.026348   
    168. D(C  12,C  11,C  10,C   9)     -0.0431         0.026348   
    169. D(H  35,C  12,C  11,H  34)      0.0681         0.026505   
    170. D(H  35,C  12,C  11,C  10)   -179.8351         0.026505   
    171. D(C  13,C  12,C  11,H  34)    179.9577         0.026505   
    172. D(C  13,C  12,C  11,C  10)      0.0545         0.026505   
    173. D(H  36,C  13,C  12,H  35)      0.1843         0.025975   
    174. D(H  36,C  13,C  12,C  11)   -179.7056         0.025975   
    175. D(C   8,C  13,C  12,H  35)    179.8761         0.025975   
    176. D(C   8,C  13,C  12,C  11)     -0.0137         0.025975   
    177. D(H  36,C  13,C   8,C   9)    179.6541         0.024419   
    178. D(H  36,C  13,C   8,P   6)     -0.6602         0.024419   
    179. D(C  12,C  13,C   8,C   9)     -0.0377         0.024419   
    180. D(C  12,C  13,C   8,P   6)    179.6481         0.024419   
    181. D(C  15,C  14,P   6,C   5)     53.4075         0.004691   
    182. D(C  19,C  14,P   6,O   7)     -8.0295         0.004691   
    183. D(C  19,C  14,P   6,C   5)   -126.3095         0.004691   
    184. D(C  15,C  14,P   6,C   8)    -62.9178         0.004691   
    185. D(C  15,C  14,P   6,O   7)    171.6875         0.004691   
    186. D(H  37,C  15,C  14,C  19)   -179.9648         0.024683   
    187. D(H  37,C  15,C  14,P   6)      0.3160         0.024683   
    188. D(C  16,C  15,C  14,C  19)      0.0370         0.024683   
    189. D(C  16,C  15,C  14,P   6)   -179.6821         0.024683   
    190. D(H  38,C  16,C  15,H  37)      0.1232         0.025780   
    191. D(H  38,C  16,C  15,C  14)   -179.8787         0.025780   
    192. D(C  17,C  16,C  15,H  37)    179.9884         0.025780   
    193. D(C  17,C  16,C  15,C  14)     -0.0135         0.025780   
    194. D(H  39,C  17,C  16,H  38)     -0.0260         0.026334   
    195. D(H  39,C  17,C  16,C  15)   -179.8913         0.026334   
    196. D(C  18,C  17,C  16,H  38)    179.8558         0.026334   
    197. D(C  18,C  17,C  16,C  15)     -0.0096         0.026334   
    198. D(H  40,C  18,C  17,H  39)     -0.0598         0.026427   
    199. D(H  40,C  18,C  17,C  16)   -179.9417         0.026427   
    200. D(C  19,C  18,C  17,H  39)    179.8902         0.026427   
    201. D(C  19,C  18,C  17,C  16)      0.0083         0.026427   
    202. D(H  41,C  19,C  18,C  17)    179.9069         0.025974   
    203. D(C  14,C  19,C  18,H  40)    179.9661         0.025974   
    204. D(C  14,C  19,C  18,C  17)      0.0160         0.025974   
    205. D(H  41,C  19,C  14,C  15)   -179.9291         0.024581   
    206. D(H  41,C  19,C  14,P   6)     -0.2033         0.024581   
    207. D(C  18,C  19,C  14,C  15)     -0.0383         0.024581   
    208. D(H  41,C  19,C  18,H  40)     -0.1430         0.025974   
    209. D(C  18,C  19,C  14,P   6)    179.6875         0.024581   
    -----------------------------------------------------------------

Number of atoms                         .... 42
Number of degrees of freedom            .... 209


         *************************************************************
         *                GEOMETRY OPTIMIZATION CYCLE   1            *
         *************************************************************
---------------------------------
CARTESIAN COORDINATES (ANGSTROEM)
---------------------------------
  C      4.806404   -0.552046   -0.434379
  N      3.361494   -0.769644   -0.311549
  C      3.113905   -1.957722    0.510473
  C      2.759800   -0.895080   -1.651203
  C      1.227763   -0.874240   -1.645491
  C      0.655182    0.398443   -1.025030
  P     -1.167281    0.388945   -0.946413
  O     -1.681728    0.114732   -2.346329
  C     -1.705722    1.973874   -0.311993
  C     -0.978371    2.688206    0.649712
  C     -1.441631    3.918503    1.121469
  C     -2.635957    4.448500    0.637718
  C     -3.368714    3.750393   -0.318796
  C     -2.906015    2.521363   -0.789794
  C     -1.640395   -0.870334    0.234972
  C     -1.124142   -0.892243    1.537984
  C     -1.506098   -1.890538    2.436132
  C     -2.407833   -2.876974    2.042002
  C     -2.928936   -2.866816    0.750256
  C     -2.547286   -1.869211   -0.147289
  H      5.309543   -1.387159   -0.935299
  H      5.260996   -0.416474    0.553456
  H      5.011537    0.364551   -0.998726
  H      3.597225   -1.854107    1.488868
  H      3.489066   -2.873082    0.038804
  H      2.046312   -2.083358    0.715413
  H      3.092071   -0.054291   -2.274545
  H      3.107576   -1.809949   -2.148524
  H      0.830888   -1.754815   -1.129688
  H      0.872837   -0.953844   -2.680206
  H      0.961463    1.266927   -1.619127
  H      1.044783    0.539400   -0.012895
  H     -0.044279    2.297958    1.043595
  H     -0.869759    4.465201    1.867166
  H     -2.995182    5.406357    1.004797
  H     -4.299533    4.161776   -0.700620
  H     -3.481331    1.982471   -1.541554
  H     -0.419945   -0.132443    1.865741
  H     -1.101698   -1.897866    3.445192
  H     -2.706356   -3.653008    2.741998
  H     -3.633306   -3.634410    0.440076
  H     -2.957345   -1.867947   -1.156375

----------------------------
CARTESIAN COORDINATES (A.U.)
----------------------------
  NO LB      ZA    FRAG     MASS         X           Y           Z
   0 C     6.0000    0    12.011    9.082787   -1.043216   -0.820857
   1 N     7.0000    0    14.007    6.352303   -1.454416   -0.588742
   2 C     6.0000    0    12.011    5.884428   -3.699558    0.964654
   3 C     6.0000    0    12.011    5.215266   -1.691456   -3.120321
   4 C     6.0000    0    12.011    2.320136   -1.652074   -3.109527
   5 C     6.0000    0    12.011    1.238115    0.752948   -1.937026
   6 P    15.0000    0    30.974   -2.205841    0.735000   -1.788461
   7 O     8.0000    0    15.999   -3.178005    0.216812   -4.433919
   8 C     6.0000    0    12.011   -3.223347    3.730081   -0.589581
   9 C     6.0000    0    12.011   -1.848853    5.079973    1.227778
  10 C     6.0000    0    12.011   -2.724288    7.404898    2.119269
  11 C     6.0000    0    12.011   -4.981237    8.406447    1.205112
  12 C     6.0000    0    12.011   -6.365947    7.087216   -0.602437
  13 C     6.0000    0    12.011   -5.491572    4.764686   -1.492494
  14 C     6.0000    0    12.011   -3.099897   -1.644693    0.444033
  15 C     6.0000    0    12.011   -2.124321   -1.686095    2.906369
  16 C     6.0000    0    12.011   -2.846113   -3.572599    4.603622
  17 C     6.0000    0    12.011   -4.550145   -5.436693    3.858825
  18 C     6.0000    0    12.011   -5.534887   -5.417497    1.417778
  19 C     6.0000    0    12.011   -4.813673   -3.532297   -0.278336
  20 H     1.0000    0     1.008   10.033582   -2.621351   -1.767459
  21 H     1.0000    0     1.008    9.941842   -0.787022    1.045880
  22 H     1.0000    0     1.008    9.470432    0.688902   -1.887319
  23 H     1.0000    0     1.008    6.797770   -3.503754    2.813553
  24 H     1.0000    0     1.008    6.593379   -5.429338    0.073329
  25 H     1.0000    0     1.008    3.866969   -3.936976    1.351935
  26 H     1.0000    0     1.008    5.843167   -0.102595   -4.298267
  27 H     1.0000    0     1.008    5.872468   -3.420308   -4.060122
  28 H     1.0000    0     1.008    1.570151   -3.316120   -2.134801
  29 H     1.0000    0     1.008    1.649423   -1.802504   -5.064855
  30 H     1.0000    0     1.008    1.816902    2.394145   -3.059707
  31 H     1.0000    0     1.008    1.974354    1.019318   -0.024368
  32 H     1.0000    0     1.008   -0.083675    4.342511    1.972109
  33 H     1.0000    0     1.008   -1.643606    8.438007    3.528432
  34 H     1.0000    0     1.008   -5.660074   10.216534    1.898791
  35 H     1.0000    0     1.008   -8.124940    7.864617   -1.323980
  36 H     1.0000    0     1.008   -6.578762    3.746327   -2.913115
  37 H     1.0000    0     1.008   -0.793581   -0.250281    3.525740
  38 H     1.0000    0     1.008   -2.081908   -3.586447    6.510469
  39 H     1.0000    0     1.008   -5.114272   -6.903185    5.181625
  40 H     1.0000    0     1.008   -6.865953   -6.868040    0.831623
  41 H     1.0000    0     1.008   -5.588572   -3.529908   -2.185232

--------------------------------
INTERNAL COORDINATES (ANGSTROEM)
--------------------------------
 C      0   0   0     0.000000000000     0.00000000     0.00000000
 N      1   0   0     1.466356370943     0.00000000     0.00000000
 C      2   1   0     1.465793237632   109.49321258     0.00000000
 C      2   1   3     1.473920859289   109.80075008   236.86454510
 C      4   2   1     1.532189381869   113.80594773   190.34282316
 C      5   4   2     1.527266470715   112.81253086    58.26326631
 P      6   5   4     1.824182619987   112.81282993   182.71277984
 O      7   6   5     1.516447589676   107.46248196   305.84288135
 C      7   6   5     1.790085858813   108.12981490   183.97628465
 C      9   7   6     1.401494270573   122.57260512   325.38374193
 C     10   9   7     1.396708703652   120.57079180   180.37578238
 C     11  10   9     1.393314912102   120.13937331     0.00000000
 C     12  11  10     1.392553495092   119.92289820   359.95686906
 C     13  12  11     1.395150250512   119.93375497     0.05445087
 C      7   6   5     1.790332643690   107.22423016    67.72089947
 C     15   7   6     1.401726591185   121.80742306    53.40750450
 C     16  15   7     1.396120740790   120.55918061   180.31790185
 C     17  16  15     1.393384530279   120.08586406     0.00000000
 C     18  17  16     1.392931889968   119.95050323     0.00000000
 C     19  18  17     1.395155720896   119.96515971     0.00000000
 H      1   2   3     1.096121992522   112.18052342    62.00884310
 H      1   2   3     1.095833765164   110.58631216   300.84918864
 H      1   2   3     1.095772396306   110.59354315   183.19023866
 H      3   2   1     1.096171093694   110.45415232    56.27839874
 H      3   2   1     1.095947695413   112.19750546   295.48050873
 H      3   2   1     1.094321534900   111.27630991   173.59381194
 H      4   2   1     1.098128138664   109.10195170   309.89025330
 H      4   2   1     1.097844073800   110.69132177    66.84383060
 H      5   4   2     1.094977091568   110.68514873   294.45413970
 H      5   4   2     1.096788217258   108.60660018   178.97256591
 H      6   5   4     1.095912293309   109.59484104    62.51956375
 H      6   5   4     1.093652171979   110.47637888   304.30047281
 H     10   9   7     1.086262023481   120.79633837     0.36985298
 H     11  10   9     1.087189175533   120.00958460   180.03640347
 H     12  11  10     1.086866884818   120.08498163   180.05369777
 H     13  12  11     1.086945054005   120.14347958   180.16485526
 H     14  13  12     1.089282417521   119.58023200   180.29443789
 H     16  15   7     1.086560677486   120.54178193     0.31604871
 H     17  16  15     1.087104016727   120.01192235   180.12133124
 H     18  17  16     1.086894268409   120.06888301   180.10867818
 H     19  18  17     1.086990928268   120.12564771   180.05828180
 H     20  19  18     1.089221986820   119.59354148   179.90689396

---------------------------
INTERNAL COORDINATES (A.U.)
---------------------------
 C      0   0   0     0.000000000000     0.00000000     0.00000000
 N      1   0   0     2.771011955812     0.00000000     0.00000000
 C      2   1   0     2.769947788079   109.49321258     0.00000000
 C      2   1   3     2.785306767131   109.80075008   236.86454510
 C      4   2   1     2.895418317035   113.80594773   190.34282316
 C      5   4   2     2.886115363172   112.81253086    58.26326631
 P      6   5   4     3.447205570034   112.81282993   182.71277984
 O      7   6   5     2.865670640933   107.46248196   305.84288135
 C      7   6   5     3.382772029362   108.12981490   183.97628465
 C      9   7   6     2.648440349643   122.57260512   325.38374193
 C     10   9   7     2.639396938767   120.57079180   180.37578238
 C     11  10   9     2.632983602181   120.13937331     0.00000000
 C     12  11  10     2.631544732559   119.92289820   359.95686906
 C     13  12  11     2.636451889140   119.93375497     0.05445087
 C      7   6   5     3.383238385193   107.22423016    67.72089947
 C     15   7   6     2.648879371974   121.80742306    53.40750450
 C     16  15   7     2.638285849981   120.55918061   180.31790185
 C     17  16  15     2.633115161470   120.08586406     0.00000000
 C     18  17  16     2.632259795244   119.95050323     0.00000000
 C     19  18  17     2.636462226668   119.96515971     0.00000000
 H      1   2   3     2.071370375234   112.18052342    62.00884310
 H      1   2   3     2.070825704463   110.58631216   300.84918864
 H      1   2   3     2.070709734130   110.59354315   183.19023866
 H      3   2   1     2.071463163002   110.45415232    56.27839874
 H      3   2   1     2.071041001434   112.19750546   295.48050873
 H      3   2   1     2.067968003413   111.27630991   173.59381194
 H      4   2   1     2.075161442028   109.10195170   309.89025330
 H      4   2   1     2.074624637231   110.69132177    66.84383060
 H      5   4   2     2.069206825981   110.68514873   294.45413970
 H      5   4   2     2.072629357530   108.60660018   178.97256591
 H      6   5   4     2.070974101152   109.59484104    62.51956375
 H      6   5   4     2.066703090809   110.47637888   304.30047281
 H     10   9   7     2.052737734058   120.79633837     0.36985298
 H     11  10   9     2.054489797522   120.00958460   180.03640347
 H     12  11  10     2.053880756335   120.08498163   180.05369777
 H     13  12  11     2.054028474690   120.14347958   180.16485526
 H     14  13  12     2.058445451610   119.58023200   180.29443789
 H     16  15   7     2.053302108336   120.54178193     0.31604871
 H     17  16  15     2.054328870700   120.01192235   180.12133124
 H     18  17  16     2.053932503822   120.06888301   180.10867818
 H     19  18  17     2.054115164483   120.12564771   180.05828180
 H     20  19  18     2.058331254136   119.59354148   179.90689396

---------------------
BASIS SET INFORMATION
---------------------
There are 5 groups of distinct atoms

 Group   1 Type C   : 7s4p1d contracted to 3s2p1d pattern {511/31/1}
 Group   2 Type N   : 7s4p1d contracted to 3s2p1d pattern {511/31/1}
 Group   3 Type P   : 10s7p1d contracted to 4s3p1d pattern {5311/511/1}
 Group   4 Type O   : 7s4p1d contracted to 3s2p1d pattern {511/31/1}
 Group   5 Type H   : 4s1p contracted to 2s1p pattern {31/1}

Atom   0C    basis set group =>   1
Atom   1N    basis set group =>   2
Atom   2C    basis set group =>   1
Atom   3C    basis set group =>   1
Atom   4C    basis set group =>   1
Atom   5C    basis set group =>   1
Atom   6P    basis set group =>   3
Atom   7O    basis set group =>   4
Atom   8C    basis set group =>   1
Atom   9C    basis set group =>   1
Atom  10C    basis set group =>   1
Atom  11C    basis set group =>   1
Atom  12C    basis set group =>   1
Atom  13C    basis set group =>   1
Atom  14C    basis set group =>   1
Atom  15C    basis set group =>   1
Atom  16C    basis set group =>   1
Atom  17C    basis set group =>   1
Atom  18C    basis set group =>   1
Atom  19C    basis set group =>   1
Atom  20H    basis set group =>   5
Atom  21H    basis set group =>   5
Atom  22H    basis set group =>   5
Atom  23H    basis set group =>   5
Atom  24H    basis set group =>   5
Atom  25H    basis set group =>   5
Atom  26H    basis set group =>   5
Atom  27H    basis set group =>   5
Atom  28H    basis set group =>   5
Atom  29H    basis set group =>   5
Atom  30H    basis set group =>   5
Atom  31H    basis set group =>   5
Atom  32H    basis set group =>   5
Atom  33H    basis set group =>   5
Atom  34H    basis set group =>   5
Atom  35H    basis set group =>   5
Atom  36H    basis set group =>   5
Atom  37H    basis set group =>   5
Atom  38H    basis set group =>   5
Atom  39H    basis set group =>   5
Atom  40H    basis set group =>   5
Atom  41H    basis set group =>   5
---------------------------------
AUXILIARY/J BASIS SET INFORMATION
---------------------------------
There are 5 groups of distinct atoms

 Group   1 Type C   : 12s5p4d2f1g contracted to 6s4p3d1f1g pattern {711111/2111/211/2/1}
 Group   2 Type N   : 12s5p4d2f1g contracted to 6s4p3d1f1g pattern {711111/2111/211/2/1}
 Group   3 Type P   : 14s5p5d2f1g contracted to 8s4p3d1f1g pattern {71111111/2111/311/2/1}
 Group   4 Type O   : 12s5p4d2f1g contracted to 6s4p3d1f1g pattern {711111/2111/211/2/1}
 Group   5 Type H   : 5s2p1d contracted to 3s1p1d pattern {311/2/1}

Atom   0C    basis set group =>   1
Atom   1N    basis set group =>   2
Atom   2C    basis set group =>   1
Atom   3C    basis set group =>   1
Atom   4C    basis set group =>   1
Atom   5C    basis set group =>   1
Atom   6P    basis set group =>   3
Atom   7O    basis set group =>   4
Atom   8C    basis set group =>   1
Atom   9C    basis set group =>   1
Atom  10C    basis set group =>   1
Atom  11C    basis set group =>   1
Atom  12C    basis set group =>   1
Atom  13C    basis set group =>   1
Atom  14C    basis set group =>   1
Atom  15C    basis set group =>   1
Atom  16C    basis set group =>   1
Atom  17C    basis set group =>   1
Atom  18C    basis set group =>   1
Atom  19C    basis set group =>   1
Atom  20H    basis set group =>   5
Atom  21H    basis set group =>   5
Atom  22H    basis set group =>   5
Atom  23H    basis set group =>   5
Atom  24H    basis set group =>   5
Atom  25H    basis set group =>   5
Atom  26H    basis set group =>   5
Atom  27H    basis set group =>   5
Atom  28H    basis set group =>   5
Atom  29H    basis set group =>   5
Atom  30H    basis set group =>   5
Atom  31H    basis set group =>   5
Atom  32H    basis set group =>   5
Atom  33H    basis set group =>   5
Atom  34H    basis set group =>   5
Atom  35H    basis set group =>   5
Atom  36H    basis set group =>   5
Atom  37H    basis set group =>   5
Atom  38H    basis set group =>   5
Atom  39H    basis set group =>   5
Atom  40H    basis set group =>   5
Atom  41H    basis set group =>   5


           ************************************************************
           *        Program running with 6 parallel MPI-processes     *
           *              working on a common directory               *
           ************************************************************
------------------------------------------------------------------------------
                             ORCA STARTUP CALCULATIONS
                           -- RI-GTO INTEGRALS CHOSEN --
------------------------------------------------------------------------------
------------------------------------------------------------------------------
                   ___                                                        
                  /   \      - P O W E R E D   B Y -                         
                 /     \                                                     
                 |  |  |   _    _      __       _____    __    __             
                 |  |  |  | |  | |    /  \     |  _  \  |  |  /  |          
                  \  \/   | |  | |   /    \    | | | |  |  | /  /          
                 / \  \   | |__| |  /  /\  \   | |_| |  |  |/  /          
                |  |  |   |  __  | /  /__\  \  |    /   |      \           
                |  |  |   | |  | | |   __   |  |    \   |  |\   \          
                \     /   | |  | | |  |  |  |  | |\  \  |  | \   \       
                 \___/    |_|  |_| |__|  |__|  |_| \__\ |__|  \__/        
                                                                              
                      - O R C A' S   B I G   F R I E N D -                    
                                      &                                       
                       - I N T E G R A L  F E E D E R -                       
                                                                              
 v1 FN, 2020, v2 2021, v3 2022-2024                                           
------------------------------------------------------------------------------


----------------------
SHARK INTEGRAL PACKAGE
----------------------

Number of atoms                             ...     42
Number of basis functions                   ...    394
Number of shells                            ...    188
Maximum angular momentum                    ...      2
Integral batch strategy                     ... SHARK/LIBINT Hybrid
RI-J (if used) integral strategy            ... SPLIT-RIJ (Revised 2003 algorithm where possible)
Printlevel                                  ...      1
Contraction scheme used                     ... SEGMENTED contraction
Prescreening option                         ... SCHWARTZ
   Thresh                                   ... 2.500e-11
   Tcut                                     ... 2.500e-12
   Tpresel                                  ... 2.500e-12 
Coulomb Range Separation                    ... NOT USED
Exchange Range Separation                   ... NOT USED
Multipole approximations                    ... NOT USED
Finite Nucleus Model                        ... NOT USED
CABS basis                                  ... NOT available
Auxiliary Coulomb fitting basis             ... AVAILABLE
   # of basis functions in Aux-J            ...   1224
   # of shells in Aux-J                     ...    412
   Maximum angular momentum in Aux-J        ...      4
Auxiliary J/K fitting basis                 ... NOT available
Auxiliary Correlation fitting basis         ... NOT available
Auxiliary 'external' fitting basis          ... NOT available

Checking pre-screening integrals            ... done (  0.0 sec) Dimension = 188
Check shell pair data                       ... done (  0.0 sec)
Shell pair information
Shell pair cut-off parameter TPreSel        ...   2.5e-12
Total number of shell pairs                 ...     17766
Shell pairs after pre-screening             ...     13240
Total number of primitive shell pairs       ...     63882
Primitive shell pairs kept                  ...     30548
          la=0 lb=0:   4325 shell pairs
          la=1 lb=0:   5031 shell pairs
          la=1 lb=1:   1483 shell pairs
          la=2 lb=0:   1456 shell pairs
          la=2 lb=1:    829 shell pairs
          la=2 lb=2:    116 shell pairs

Calculating one electron integrals          ... done (  0.0 sec)
Calculating RI/J V-Matrix + Cholesky decomp.... done (  0.1 sec)
Calculating Nuclear repulsion               ... done (  0.0 sec) ENN=   1672.735214352079 Eh

Diagonalization of the overlap matrix:
Smallest eigenvalue                        ... 2.775e-04
Time for diagonalization                   ...    0.022 sec
Threshold for overlap eigenvalues          ... 1.000e-07
Number of eigenvalues below threshold      ... 0
Time for construction of square roots      ...    0.013 sec
Total time needed                          ...    0.036 sec

-------------------
DFT GRID GENERATION
-------------------

General Integration Accuracy     IntAcc      ... 4.388
Radial Grid Type                 RadialGrid  ... OptM3 with GC (2021)
Angular Grid (max. ang.)         AngularGrid ... 4 (Lebedev-302)
Angular grid pruning method      GridPruning ... 4 (adaptive)
Weight generation scheme         WeightScheme... mBecke (2022)
Basis function cutoff            BFCut       ... 1.0000e-11
Integration weight cutoff        WCut        ... 1.0000e-14
Partially contracted basis set               ... off
Rotationally invariant grid construction     ... off
Angular grids for H and He will be reduced by one unit

Total number of grid points                  ...   190608
Total number of batches                      ...     2999
Average number of points per batch           ...       63
Average number of grid points per atom       ...     4538
Initializing property integral containers    ... done (  0.0 sec)

SHARK setup successfully completed in   1.4 seconds

Maximum memory used throughout the entire STARTUP-calculation: 53.9 MB


           ************************************************************
           *        Program running with 6 parallel MPI-processes     *
           *              working on a common directory               *
           ************************************************************
-------------------------------------------------------------------------------
                                 ORCA GUESS
                   Start orbitals & Density for SCF / CASSCF
-------------------------------------------------------------------------------

------------
SCF SETTINGS
------------
Hamiltonian:
 Density Functional     Method          .... DFT(GTOs)
 Exchange Functional    Exchange        .... B88
   X-Alpha parameter    XAlpha          ....  0.666667
   Becke's b parameter  XBeta           ....  0.004200
 Correlation Functional Correlation     .... P86
 LDA part of GGA corr.  LDAOpt          .... PW91-LDA
 Gradients option       PostSCFGGA      .... off
   NL short-range parameter             ....  4.400000
 RI-approximation to the Coulomb term is turned on
   Number of AuxJ basis functions       .... 1224


General Settings:
 Integral files         IntName         .... data/geom_opt_PO_BP86/120481/120481
 Hartree-Fock type      HFTyp           .... RHF
 Total Charge           Charge          ....    0
 Multiplicity           Mult            ....    1
 Number of Electrons    NEL             ....  154
 Basis Dimension        Dim             ....  394
 Nuclear Repulsion      ENuc            ....   1672.7352143521 Eh

Convergence Acceleration:
 AO-DIIS                CNVDIIS         .... on
   Start iteration      DIISMaxIt       ....    12
   Startup error        DIISStart       ....  0.200000
   # of expansion vecs  DIISMaxEq       ....     5
   Bias factor          DIISBfac        ....   1.050
   Max. coefficient     DIISMaxC        ....  10.000
 MO-DIIS                CNVKDIIS        .... off
 Trust-Rad. Augm. Hess. CNVTRAH         .... auto
   Auto Start mean grad. ratio tolernc. ....  1.125000
   Auto Start start iteration           ....    50
   Auto Start num. interpolation iter.  ....    10
   Max. Number of Micro iterations      ....    24
   Max. Number of Macro iterations      .... Maxiter - #DIIS iter
   Number of Davidson start vectors     ....     2
   Converg. threshold    (grad. norm)   ....   1.000e-05
   Grad. Scal. Fac. for Micro threshold ....   0.100
   Minimum threshold for Micro iter.    ....   1.000e-02
   NR start threshold (gradient norm)   ....   1.000e-04
   Initial trust radius                 ....   0.400
   Minimum AH scaling param. (alpha)    ....   1.000
   Maximum AH scaling param. (alpha)    .... 1000.000
   Quad. conv. algorithm                .... NR
   White noise on init. David. guess    .... on
   Maximum white noise                  ....   0.010
   Pseudo random numbers                .... off
   Inactive MOs                         .... canonical
   Orbital update algorithm             .... Taylor
   Preconditioner                       .... Diag
   Full preconditioner red. dimension   ....   250
 SOSCF                  CNVSOSCF        .... on
   Start iteration      SOSCFMaxIt      ....   150
   Startup grad/error   SOSCFStart      ....  0.003300
   Hessian update       SOSCFHessUp     .... L-BFGS
 Level Shifting         CNVShift        .... on
   Level shift para.    LevelShift      ....    0.2500
   Turn off err/grad.   ShiftErr        ....    0.0010
 Zerner damping         CNVZerner       .... off
 Static damping         CNVDamp         .... on
   Fraction old density DampFac         ....    0.7000
   Max. Damping (<1)    DampMax         ....    0.9800
   Min. Damping (>=0)   DampMin         ....    0.0000
   Turn off err/grad.   DampErr         ....    0.1000

SCF Procedure:
 Maximum # iterations   MaxIter         ....   125
 SCF integral mode      SCFMode         .... Direct
   Integral package                     .... SHARK and LIBINT hybrid scheme
 Reset frequency        DirectResetFreq ....    20
 Integral Threshold     Thresh          ....  2.500e-11 Eh
 Primitive CutOff       TCut            ....  2.500e-12 Eh

Convergence Tolerance:
 Convergence Check Mode ConvCheckMode   .... Total+1el-Energy
 Convergence forced     ConvForced      .... 0
 Energy Change          TolE            ....  1.000e-08 Eh
 1-El. energy change                    ....  1.000e-05 Eh
 Orbital Gradient       TolG            ....  1.000e-05
 Orbital Rotation angle TolX            ....  1.000e-05
 DIIS Error             TolErr          ....  5.000e-07

------------------------------
INITIAL GUESS: MODEL POTENTIAL
------------------------------
Loading Hartree-Fock densities                     ... done
Calculating cut-offs                               ... done
Initializing the effective Hamiltonian             ... done
Setting up the integral package (SHARK)            ... done
Starting the Coulomb interaction                   ... done (   0.2 sec)
Making the grid                                    ... done (   0.3 sec)
Mapping shells                                     ... done
Starting the XC term evaluation                    ... done (   0.2 sec)
  promolecular density results
     # of electrons  =    153.995405393
     EX              =   -131.400492244
     EC              =     -5.695945013
     EX+EC           =   -137.096437257
Transforming the Hamiltonian                       ... done (   0.0 sec)
Diagonalizing the Hamiltonian                      ... done (   0.0 sec)
Back transforming the eigenvectors                 ... done (   0.0 sec)
Now organizing SCF variables                       ... done
                      ------------------
                      INITIAL GUESS DONE (   0.7 sec)
                      ------------------
             **** ENERGY FILE WAS UPDATED (data/geom_opt_PO_BP86/120481/120481.en.tmp) ****
Finished Guess after   0.8 sec
Maximum memory used throughout the entire GUESS-calculation: 30.0 MB


           ************************************************************
           *        Program running with 6 parallel MPI-processes     *
           *              working on a common directory               *
           ************************************************************

-------------------------------------------------------------------------------------------
                                      ORCA LEAN-SCF
                              memory conserving SCF solver
-------------------------------------------------------------------------------------------

----------------------------------------D-I-I-S--------------------------------------------
Iteration    Energy (Eh)           Delta-E    RMSDP     MaxDP     DIISErr   Damp  Time(sec)
-------------------------------------------------------------------------------------------
               ***  Starting incremental Fock matrix formation  ***
    1    -1131.2446605619657021     0.00e+00  3.16e-03  1.53e-01  3.34e-01  0.700   1.1
Warning: op=0 Small HOMO/LUMO gap (   0.092) - skipping pre-diagonalization
         Will do a full diagonalization
    2    -1131.4914891237599477    -2.47e-01  1.78e-03  5.94e-02  8.08e-02  0.700   1.1
                               ***Turning on AO-DIIS***
    3    -1131.5739800992027995    -8.25e-02  6.37e-04  1.79e-02  2.18e-02  0.700   1.1
    4    -1131.6248979802280701    -5.09e-02  1.00e-03  3.28e-02  9.12e-03  0.000   1.0
    5    -1131.7397611565338593    -1.15e-01  2.78e-04  8.42e-03  5.78e-03  0.000   1.0
                              *** Initializing SOSCF ***
---------------------------------------S-O-S-C-F--------------------------------------
Iteration    Energy (Eh)           Delta-E    RMSDP     MaxDP     MaxGrad    Time(sec)
--------------------------------------------------------------------------------------
    6    -1131.7406962689087777    -9.35e-04  1.09e-04  3.59e-03  2.85e-03     1.0
               *** Restarting incremental Fock matrix formation ***
    7    -1131.7407761630547611    -7.99e-05  1.07e-04  4.99e-03  4.16e-04     1.1
    8    -1131.7407379013379796     3.83e-05  7.00e-05  3.49e-03  1.27e-03     0.9
    9    -1131.7407918388466896    -5.39e-05  2.87e-05  1.06e-03  1.44e-04     0.9
   10    -1131.7407863160515262     5.52e-06  1.85e-05  7.26e-04  3.83e-04     0.9
   11    -1131.7407935176047431    -7.20e-06  9.64e-06  2.79e-04  7.55e-05     1.0
   12    -1131.7407928820716734     6.36e-07  6.05e-06  2.24e-04  1.52e-04     0.8
   13    -1131.7407937333355221    -8.51e-07  3.24e-06  1.09e-04  1.61e-05     0.9
   14    -1131.7407936833546955     5.00e-08  1.80e-06  5.23e-05  1.87e-05     0.9
   15    -1131.7407937501779998    -6.68e-08  1.07e-06  2.83e-05  8.03e-06     0.9
   16    -1131.7407937176944870     3.25e-08  7.12e-07  1.85e-05  1.61e-05     0.8
   17    -1131.7407937470975412    -2.94e-08  2.27e-07  1.44e-05  7.98e-07     0.8
                  *** Gradient check signals convergence ***

               *****************************************************
               *                     SUCCESS                       *
               *           SCF CONVERGED AFTER  17 CYCLES          *
               *****************************************************

             **** ENERGY FILE WAS UPDATED (data/geom_opt_PO_BP86/120481/120481.en.tmp) ****

----------------
TOTAL SCF ENERGY
----------------

Total Energy       :      -1131.74079374709754 Eh          -30796.23265 eV

Components:
Nuclear Repulsion  :       1672.73521435207886 Eh           45517.43924 eV
Electronic Energy  :      -2804.47600809917640 Eh          -76313.67189 eV
One Electron Energy:      -4866.20535297646893 Eh         -132416.17956 eV
Two Electron Energy:       2061.72934487729253 Eh           56102.50767 eV

Virial components:
Potential Energy   :      -2253.44490336715535 Eh          -61319.35324 eV
Kinetic Energy     :       1121.70410962005758 Eh           30523.12059 eV
Virial Ratio       :          2.00894771093461

DFT components:
N(Alpha)           :       76.999943964469 electrons
N(Beta)            :       76.999943964469 electrons
N(Total)           :      153.999887928939 electrons
E(X)               :     -133.537729520040 Eh       
E(C)               :       -5.691215582515 Eh       
E(XC)              :     -139.228945102555 Eh       

---------------
SCF CONVERGENCE
---------------

  Last Energy change         ...    2.9403e-08  Tolerance :   1.0000e-08
  Last MAX-Density change    ...    1.4436e-05  Tolerance :   1.0000e-07
  Last RMS-Density change    ...    2.2742e-07  Tolerance :   5.0000e-09
  Last DIIS Error            ...    2.8451e-03  Tolerance :   5.0000e-07
  Last Orbital Gradient      ...    7.9843e-07  Tolerance :   1.0000e-05
  Last Orbital Rotation      ...    2.1664e-06  Tolerance :   1.0000e-05


----------------
ORBITAL ENERGIES
----------------

  NO   OCC          E(Eh)            E(eV) 
   0   2.0000     -76.402322     -2079.0129 
   1   2.0000     -18.699493      -508.8391 
   2   2.0000     -14.008056      -381.1786 
   3   2.0000      -9.933041      -270.2918 
   4   2.0000      -9.931258      -270.2433 
   5   2.0000      -9.930315      -270.2176 
   6   2.0000      -9.929139      -270.1856 
   7   2.0000      -9.928901      -270.1791 
   8   2.0000      -9.926812      -270.1223 
   9   2.0000      -9.926598      -270.1165 
  10   2.0000      -9.925723      -270.0927 
  11   2.0000      -9.925465      -270.0856 
  12   2.0000      -9.925071      -270.0749 
  13   2.0000      -9.924845      -270.0688 
  14   2.0000      -9.924140      -270.0496 
  15   2.0000      -9.923744      -270.0388 
  16   2.0000      -9.923593      -270.0347 
  17   2.0000      -9.923469      -270.0313 
  18   2.0000      -9.911086      -269.6944 
  19   2.0000      -9.910509      -269.6787 
  20   2.0000      -6.362502      -173.1325 
  21   2.0000      -4.583654      -124.7276 
  22   2.0000      -4.583553      -124.7248 
  23   2.0000      -4.583258      -124.7168 
  24   2.0000      -0.840915       -22.8825 
  25   2.0000      -0.834762       -22.7150 
  26   2.0000      -0.784154       -21.3379 
  27   2.0000      -0.782690       -21.2981 
  28   2.0000      -0.712592       -19.3906 
  29   2.0000      -0.692701       -18.8494 
  30   2.0000      -0.680336       -18.5129 
  31   2.0000      -0.679962       -18.5027 
  32   2.0000      -0.679022       -18.4771 
  33   2.0000      -0.634711       -17.2714 
  34   2.0000      -0.631270       -17.1777 
  35   2.0000      -0.581730       -15.8297 
  36   2.0000      -0.558367       -15.1939 
  37   2.0000      -0.551182       -14.9984 
  38   2.0000      -0.549723       -14.9587 
  39   2.0000      -0.546136       -14.8611 
  40   2.0000      -0.511681       -13.9236 
  41   2.0000      -0.499605       -13.5949 
  42   2.0000      -0.478276       -13.0146 
  43   2.0000      -0.455308       -12.3896 
  44   2.0000      -0.438029       -11.9194 
  45   2.0000      -0.425712       -11.5842 
  46   2.0000      -0.418173       -11.3791 
  47   2.0000      -0.415656       -11.3106 
  48   2.0000      -0.413384       -11.2487 
  49   2.0000      -0.410472       -11.1695 
  50   2.0000      -0.404674       -11.0117 
  51   2.0000      -0.391948       -10.6655 
  52   2.0000      -0.384405       -10.4602 
  53   2.0000      -0.382947       -10.4205 
  54   2.0000      -0.381707       -10.3868 
  55   2.0000      -0.379350       -10.3226 
  56   2.0000      -0.358321        -9.7504 
  57   2.0000      -0.351264        -9.5584 
  58   2.0000      -0.345091        -9.3904 
  59   2.0000      -0.340728        -9.2717 
  60   2.0000      -0.332259        -9.0412 
  61   2.0000      -0.327821        -8.9205 
  62   2.0000      -0.323328        -8.7982 
  63   2.0000      -0.317586        -8.6420 
  64   2.0000      -0.312073        -8.4919 
  65   2.0000      -0.310983        -8.4623 
  66   2.0000      -0.305825        -8.3219 
  67   2.0000      -0.298203        -8.1145 
  68   2.0000      -0.292504        -7.9594 
  69   2.0000      -0.282750        -7.6940 
  70   2.0000      -0.249539        -6.7903 
  71   2.0000      -0.242259        -6.5922 
  72   2.0000      -0.240041        -6.5318 
  73   2.0000      -0.237146        -6.4531 
  74   2.0000      -0.206629        -5.6227 
  75   2.0000      -0.202094        -5.4993 
  76   2.0000      -0.180518        -4.9121 
  77   0.0000      -0.071726        -1.9518 
  78   0.0000      -0.055266        -1.5039 
  79   0.0000      -0.049419        -1.3448 
  80   0.0000      -0.046852        -1.2749 
  81   0.0000       0.022124         0.6020 
  82   0.0000       0.035290         0.9603 
  83   0.0000       0.037923         1.0319 
  84   0.0000       0.047040         1.2800 
  85   0.0000       0.058690         1.5970 
  86   0.0000       0.063316         1.7229 
  87   0.0000       0.069368         1.8876 
*Only the first 10 virtual orbitals were printed.

                    ********************************
                    * MULLIKEN POPULATION ANALYSIS *
                    ********************************

-----------------------
MULLIKEN ATOMIC CHARGES
-----------------------
   0 C :    0.086995
   1 N :   -0.346262
   2 C :    0.075415
   3 C :    0.108286
   4 C :    0.000423
   5 C :   -0.118543
   6 P :    0.511630
   7 O :   -0.471311
   8 C :   -0.051418
   9 C :   -0.021246
  10 C :    0.014108
  11 C :    0.014603
  12 C :    0.013132
  13 C :    0.002980
  14 C :   -0.085262
  15 C :   -0.000204
  16 C :    0.007312
  17 C :    0.015073
  18 C :    0.012488
  19 C :   -0.003863
  20 H :   -0.009382
  21 H :    0.023876
  22 H :    0.025706
  23 H :    0.023374
  24 H :   -0.007230
  25 H :    0.034064
  26 H :    0.008866
  27 H :   -0.010331
  28 H :    0.021760
  29 H :    0.036742
  30 H :    0.049705
  31 H :    0.030138
  32 H :   -0.006365
  33 H :   -0.003200
  34 H :    0.000686
  35 H :    0.002262
  36 H :    0.011408
  37 H :   -0.009588
  38 H :   -0.002910
  39 H :    0.000954
  40 H :    0.002375
  41 H :    0.012754
Sum of atomic charges:   -0.0000000

--------------------------------
MULLIKEN REDUCED ORBITAL CHARGES
--------------------------------
  0 C s       :     2.990773  s :     2.990773
      pz      :     1.020726  p :     2.882802
      px      :     0.845464
      py      :     1.016613
      dz2     :     0.005267  d :     0.039430
      dxz     :     0.008804
      dyz     :     0.005462
      dx2y2   :     0.009538
      dxy     :     0.010360

  1 N s       :     3.545679  s :     3.545679
      pz      :     1.187749  p :     3.772695
      px      :     1.160464
      py      :     1.424481
      dz2     :     0.006561  d :     0.027889
      dxz     :     0.005076
      dyz     :     0.005338
      dx2y2   :     0.007189
      dxy     :     0.003724

  2 C s       :     2.989900  s :     2.989900
      pz      :     0.962824  p :     2.895542
      px      :     1.037943
      py      :     0.894774
      dz2     :     0.008463  d :     0.039143
      dxz     :     0.005067
      dyz     :     0.009042
      dx2y2   :     0.011363
      dxy     :     0.005207

  3 C s       :     2.974968  s :     2.974968
      pz      :     0.876221  p :     2.870004
      px      :     0.993069
      py      :     1.000715
      dz2     :     0.009206  d :     0.046742
      dxz     :     0.010967
      dyz     :     0.012459
      dx2y2   :     0.008359
      dxy     :     0.005751

  4 C s       :     2.999505  s :     2.999505
      pz      :     1.017921  p :     2.966526
      px      :     0.961519
      py      :     0.987086
      dz2     :     0.007044  d :     0.033545
      dxz     :     0.004860
      dyz     :     0.005799
      dx2y2   :     0.008212
      dxy     :     0.007630

  5 C s       :     3.050197  s :     3.050197
      pz      :     1.005203  p :     3.041171
      px      :     1.004001
      py      :     1.031967
      dz2     :     0.006607  d :     0.027175
      dxz     :     0.003257
      dyz     :     0.006222
      dx2y2   :     0.007528
      dxy     :     0.003561

  6 P s       :     5.254251  s :     5.254251
      pz      :     2.846866  p :     8.747809
      px      :     2.958135
      py      :     2.942807
      dz2     :     0.110895  d :     0.486311
      dxz     :     0.089646
      dyz     :     0.146028
      dx2y2   :     0.097781
      dxy     :     0.041960

  7 O s       :     3.820282  s :     3.820282
      pz      :     1.372843  p :     4.639302
      px      :     1.632221
      py      :     1.634238
      dz2     :     0.004376  d :     0.011727
      dxz     :     0.003375
      dyz     :     0.003000
      dx2y2   :     0.000465
      dxy     :     0.000511

  8 C s       :     3.046644  s :     3.046644
      pz      :     0.995129  p :     2.971459
      px      :     0.997604
      py      :     0.978726
      dz2     :     0.006057  d :     0.033315
      dxz     :     0.006425
      dyz     :     0.005702
      dx2y2   :     0.007956
      dxy     :     0.007175

  9 C s       :     3.221097  s :     3.221097
      pz      :     0.954332  p :     2.767061
      px      :     0.877425
      py      :     0.935304
      dz2     :     0.005730  d :     0.033088
      dxz     :     0.005082
      dyz     :     0.006932
      dx2y2   :     0.007773
      dxy     :     0.007572

 10 C s       :     3.168093  s :     3.168093
      pz      :     0.913763  p :     2.785089
      px      :     0.931588
      py      :     0.939738
      dz2     :     0.004039  d :     0.032709
      dxz     :     0.005930
      dyz     :     0.006105
      dx2y2   :     0.007969
      dxy     :     0.008667

 11 C s       :     3.169104  s :     3.169104
      pz      :     0.953671  p :     2.783208
      px      :     0.954008
      py      :     0.875529
      dz2     :     0.005782  d :     0.033084
      dxz     :     0.006626
      dyz     :     0.005225
      dx2y2   :     0.007999
      dxy     :     0.007452

 12 C s       :     3.171866  s :     3.171866
      pz      :     0.953614  p :     2.782196
      px      :     0.880163
      py      :     0.948419
      dz2     :     0.005639  d :     0.032807
      dxz     :     0.005022
      dyz     :     0.006819
      dx2y2   :     0.007591
      dxy     :     0.007735

 13 C s       :     3.244404  s :     3.244404
      pz      :     0.895914  p :     2.719940
      px      :     0.937110
      py      :     0.886916
      dz2     :     0.004096  d :     0.032676
      dxz     :     0.005856
      dyz     :     0.006207
      dx2y2   :     0.008001
      dxy     :     0.008516

 14 C s       :     3.057130  s :     3.057130
      pz      :     0.984701  p :     2.994775
      px      :     1.004984
      py      :     1.005089
      dz2     :     0.007591  d :     0.033358
      dxz     :     0.006779
      dyz     :     0.009197
      dx2y2   :     0.005362
      dxy     :     0.004428

 15 C s       :     3.219843  s :     3.219843
      pz      :     0.942424  p :     2.747282
      px      :     0.921062
      py      :     0.883797
      dz2     :     0.009288  d :     0.033079
      dxz     :     0.006916
      dyz     :     0.008657
      dx2y2   :     0.003036
      dxy     :     0.005182

 16 C s       :     3.172564  s :     3.172564
      pz      :     0.856996  p :     2.787349
      px      :     0.958447
      py      :     0.971906
      dz2     :     0.008026  d :     0.032775
      dxz     :     0.005860
      dyz     :     0.006953
      dx2y2   :     0.006245
      dxy     :     0.005692

 17 C s       :     3.169022  s :     3.169022
      pz      :     0.917784  p :     2.782833
      px      :     0.958677
      py      :     0.906372
      dz2     :     0.007388  d :     0.033072
      dxz     :     0.006854
      dyz     :     0.009330
      dx2y2   :     0.005107
      dxy     :     0.004393

 18 C s       :     3.172309  s :     3.172309
      pz      :     0.949809  p :     2.782412
      px      :     0.922795
      py      :     0.909808
      dz2     :     0.009272  d :     0.032790
      dxz     :     0.006714
      dyz     :     0.008488
      dx2y2   :     0.003188
      dxy     :     0.005129

 19 C s       :     3.253660  s :     3.253660
      pz      :     0.839566  p :     2.717482
      px      :     0.942094
      py      :     0.935822
      dz2     :     0.007868  d :     0.032721
      dxz     :     0.005796
      dyz     :     0.006994
      dx2y2   :     0.006311
      dxy     :     0.005752

 20 H s       :     0.987030  s :     0.987030
      pz      :     0.007210  p :     0.022352
      px      :     0.005336
      py      :     0.009806

 21 H s       :     0.954259  s :     0.954259
      pz      :     0.011599  p :     0.021865
      px      :     0.004503
      py      :     0.005763

 22 H s       :     0.952341  s :     0.952341
      pz      :     0.007588  p :     0.021953
      px      :     0.003326
      py      :     0.011039

 23 H s       :     0.954656  s :     0.954656
      pz      :     0.011091  p :     0.021970
      px      :     0.007007
      py      :     0.003872

 24 H s       :     0.984989  s :     0.984989
      pz      :     0.005841  p :     0.022241
      px      :     0.006277
      py      :     0.010122

 25 H s       :     0.943517  s :     0.943517
      pz      :     0.005356  p :     0.022419
      px      :     0.013069
      py      :     0.003993

 26 H s       :     0.970120  s :     0.970120
      pz      :     0.006164  p :     0.021014
      px      :     0.004989
      py      :     0.009862

 27 H s       :     0.989419  s :     0.989419
      pz      :     0.005249  p :     0.020912
      px      :     0.004818
      py      :     0.010844

 28 H s       :     0.955420  s :     0.955420
      pz      :     0.007401  p :     0.022821
      px      :     0.005572
      py      :     0.009848

 29 H s       :     0.941250  s :     0.941250
      pz      :     0.012084  p :     0.022008
      px      :     0.005380
      py      :     0.004544

 30 H s       :     0.927479  s :     0.927479
      pz      :     0.007583  p :     0.022816
      px      :     0.005461
      py      :     0.009772

 31 H s       :     0.946169  s :     0.946169
      pz      :     0.011791  p :     0.023693
      px      :     0.007162
      py      :     0.004740

 32 H s       :     0.983555  s :     0.983555
      pz      :     0.005830  p :     0.022811
      px      :     0.011573
      py      :     0.005408

 33 H s       :     0.980795  s :     0.980795
      pz      :     0.009082  p :     0.022405
      px      :     0.006782
      py      :     0.006541

 34 H s       :     0.976998  s :     0.976998
      pz      :     0.005487  p :     0.022317
      px      :     0.005102
      py      :     0.011727

 35 H s       :     0.975396  s :     0.975396
      pz      :     0.005613  p :     0.022342
      px      :     0.011353
      py      :     0.005376

 36 H s       :     0.965868  s :     0.965868
      pz      :     0.009563  p :     0.022723
      px      :     0.006413
      py      :     0.006747

 37 H s       :     0.986840  s :     0.986840
      pz      :     0.004843  p :     0.022748
      px      :     0.008744
      py      :     0.009162

 38 H s       :     0.980524  s :     0.980524
      pz      :     0.012414  p :     0.022386
      px      :     0.005827
      py      :     0.004145

 39 H s       :     0.976734  s :     0.976734
      pz      :     0.007963  p :     0.022312
      px      :     0.005162
      py      :     0.009187

 40 H s       :     0.975292  s :     0.975292
      pz      :     0.004632  p :     0.022333
      px      :     0.008630
      py      :     0.009071

 41 H s       :     0.964383  s :     0.964383
      pz      :     0.013481  p :     0.022863
      px      :     0.005397
      py      :     0.003985



                     *******************************
                     * LOEWDIN POPULATION ANALYSIS *
                     *******************************

----------------------
LOEWDIN ATOMIC CHARGES
----------------------
   0 C :    0.003423
   1 N :   -0.127862
   2 C :    0.001541
   3 C :    0.022502
   4 C :   -0.050773
   5 C :   -0.178937
   6 P :    0.877794
   7 O :   -0.508790
   8 C :   -0.184513
   9 C :   -0.031319
  10 C :   -0.026692
  11 C :   -0.017768
  12 C :   -0.024009
  13 C :   -0.007223
  14 C :   -0.187135
  15 C :   -0.028182
  16 C :   -0.027715
  17 C :   -0.017855
  18 C :   -0.024798
  19 C :   -0.010042
  20 H :   -0.001306
  21 H :    0.022062
  22 H :    0.022870
  23 H :    0.023939
  24 H :   -0.000413
  25 H :    0.021580
  26 H :    0.022400
  27 H :    0.001375
  28 H :    0.023508
  29 H :    0.038585
  30 H :    0.038715
  31 H :    0.019294
  32 H :    0.025344
  33 H :    0.031552
  34 H :    0.031889
  35 H :    0.033421
  36 H :    0.035344
  37 H :    0.025285
  38 H :    0.031566
  39 H :    0.031929
  40 H :    0.033309
  41 H :    0.036108

-------------------------------
LOEWDIN REDUCED ORBITAL CHARGES
-------------------------------
  0 C s       :     2.844003  s :     2.844003
      pz      :     1.075882  p :     3.055015
      px      :     0.910671
      py      :     1.068462
      dz2     :     0.013986  d :     0.097559
      dxz     :     0.020232
      dyz     :     0.014877
      dx2y2   :     0.024355
      dxy     :     0.024110

  1 N s       :     3.158121  s :     3.158121
      pz      :     1.239459  p :     3.910712
      px      :     1.210710
      py      :     1.460542
      dz2     :     0.014370  d :     0.059029
      dxz     :     0.011435
      dyz     :     0.011048
      dx2y2   :     0.015479
      dxy     :     0.006698

  2 C s       :     2.841780  s :     2.841780
      pz      :     1.018396  p :     3.059687
      px      :     1.074768
      py      :     0.966522
      dz2     :     0.019897  d :     0.096992
      dxz     :     0.012172
      dyz     :     0.023272
      dx2y2   :     0.029985
      dxy     :     0.011667

  3 C s       :     2.844213  s :     2.844213
[...]
      dxz     :     0.015803
      dyz     :     0.024988
      dx2y2   :     0.012633
      dxy     :     0.012513

 18 C s       :     2.873186  s :     2.873186
      pz      :     1.049958  p :     3.068770
      px      :     0.992109
      py      :     1.026702
      dz2     :     0.024867  d :     0.086028
      dxz     :     0.016090
      dyz     :     0.024019
      dx2y2   :     0.008272
      dxy     :     0.012781

 19 C s       :     2.877050  s :     2.877050
      pz      :     1.040720  p :     3.055887
      px      :     0.983614
      py      :     1.031553
      dz2     :     0.020152  d :     0.086835
      dxz     :     0.012761
      dyz     :     0.021802
      dx2y2   :     0.015345
      dxy     :     0.016774

 20 H s       :     0.936131  s :     0.936131
      pz      :     0.014501  p :     0.063017
      px      :     0.020967
      py      :     0.027550

 21 H s       :     0.914248  s :     0.914248
      pz      :     0.038607  p :     0.062048
      px      :     0.010619
      py      :     0.012823

 22 H s       :     0.913630  s :     0.913630
      pz      :     0.019034  p :     0.062134
      px      :     0.011394
      py      :     0.031705

 23 H s       :     0.913294  s :     0.913294
      pz      :     0.037658  p :     0.062282
      px      :     0.014013
      py      :     0.010610

 24 H s       :     0.934763  s :     0.934763
      pz      :     0.012654  p :     0.063171
      px      :     0.015803
      py      :     0.034713

 25 H s       :     0.909250  s :     0.909250
      pz      :     0.012213  p :     0.065615
      px      :     0.042713
      py      :     0.010689

 26 H s       :     0.914100  s :     0.914100
      pz      :     0.016326  p :     0.062604
      px      :     0.018581
      py      :     0.027697

 27 H s       :     0.931467  s :     0.931467
      pz      :     0.016097  p :     0.063724
      px      :     0.014774
      py      :     0.032853

 28 H s       :     0.905252  s :     0.905252
      pz      :     0.018456  p :     0.067111
      px      :     0.019549
      py      :     0.029105

 29 H s       :     0.894235  s :     0.894235
      pz      :     0.038754  p :     0.065346
      px      :     0.014252
      py      :     0.012340

 30 H s       :     0.891773  s :     0.891773
      pz      :     0.022577  p :     0.068810
      px      :     0.016627
      py      :     0.029606

 31 H s       :     0.898386  s :     0.898386
      pz      :     0.036059  p :     0.074342
      px      :     0.024714
      py      :     0.013569

 32 H s       :     0.905151  s :     0.905151
      pz      :     0.015748  p :     0.067469
      px      :     0.035164
      py      :     0.016556

 33 H s       :     0.900085  s :     0.900085
      pz      :     0.027022  p :     0.065967
      px      :     0.020427
      py      :     0.018518

 34 H s       :     0.899648  s :     0.899648
      pz      :     0.016651  p :     0.065826
      px      :     0.014719
      py      :     0.034456

 35 H s       :     0.898516  s :     0.898516
      pz      :     0.015462  p :     0.065886
      px      :     0.034116
      py      :     0.016308

 36 H s       :     0.891298  s :     0.891298
      pz      :     0.029836  p :     0.070258
      px      :     0.019207
      py      :     0.021216

 37 H s       :     0.904626  s :     0.904626
      pz      :     0.013582  p :     0.067245
      px      :     0.023396
      py      :     0.030267

 38 H s       :     0.900396  s :     0.900396
      pz      :     0.035993  p :     0.066000
      px      :     0.018410
      py      :     0.011597

 39 H s       :     0.899853  s :     0.899853
      pz      :     0.024302  p :     0.065843
      px      :     0.013324
      py      :     0.028217

 40 H s       :     0.898804  s :     0.898804
      pz      :     0.013069  p :     0.065921
      px      :     0.023150
      py      :     0.029702

 41 H s       :     0.890809  s :     0.890809
      pz      :     0.041471  p :     0.070956
      px      :     0.017569
      py      :     0.011916



                      *****************************
                      * MAYER POPULATION ANALYSIS *
                      *****************************

  NA   - Mulliken gross atomic population
  ZA   - Total nuclear charge
  QA   - Mulliken gross atomic charge
  VA   - Mayer's total valence
  BVA  - Mayer's bonded valence
  FA   - Mayer's free valence

  ATOM       NA         ZA         QA         VA         BVA        FA
  0 C      5.9332     6.0000     0.0668     3.9663     3.9663    -0.0000
  1 N      7.3384     7.0000    -0.3384     3.2373     3.2373    -0.0000
  2 C      5.9477     6.0000     0.0523     3.9459     3.9459    -0.0000
  3 C      5.8992     6.0000     0.1008     4.0389     4.0389    -0.0000
  4 C      6.0169     6.0000    -0.0169     4.0445     4.0445    -0.0000
  5 C      6.1450     6.0000    -0.1450     3.8749     3.8749    -0.0000
  6 P     14.4522    15.0000     0.5478     4.7488     4.7488    -0.0000
  7 O      8.4608     8.0000    -0.4608     2.1414     2.1414    -0.0000
  8 C      6.0851     6.0000    -0.0851     3.7324     3.7324    -0.0000
  9 C      6.0242     6.0000    -0.0242     3.8884     3.8884    -0.0000
 10 C      5.9989     6.0000     0.0011     3.8685     3.8685    -0.0000
 11 C      5.9920     6.0000     0.0080     3.8318     3.8318    -0.0000
 12 C      5.9972     6.0000     0.0028     3.8270     3.8270    -0.0000
 13 C      5.9992     6.0000     0.0008     3.8907     3.8907    -0.0000
 14 C      6.1274     6.0000    -0.1274     3.7490     3.7490    -0.0000
 15 C      6.0037     6.0000    -0.0037     3.8680     3.8680    -0.0000
 16 C      6.0019     6.0000    -0.0019     3.8651     3.8651    -0.0000
 17 C      5.9934     6.0000     0.0066     3.8278     3.8278    -0.0000
 18 C      5.9978     6.0000     0.0022     3.8211     3.8211    -0.0000
 19 C      5.9987     6.0000     0.0013     3.8874     3.8874    -0.0000
 20 H      1.0020     1.0000    -0.0020     0.9885     0.9885    -0.0000
 21 H      0.9711     1.0000     0.0289     0.9885     0.9885    -0.0000
 22 H      0.9689     1.0000     0.0311     0.9905     0.9905     0.0000
 23 H      0.9733     1.0000     0.0267     0.9912     0.9912     0.0000
 24 H      1.0020     1.0000    -0.0020     0.9916     0.9916    -0.0000
 25 H      0.9482     1.0000     0.0518     1.0067     1.0067    -0.0000
 26 H      0.9886     1.0000     0.0114     0.9868     0.9868    -0.0000
 27 H      1.0025     1.0000    -0.0025     0.9865     0.9865    -0.0000
 28 H      0.9644     1.0000     0.0356     1.0055     1.0055    -0.0000
 29 H      0.9592     1.0000     0.0408     0.9891     0.9891    -0.0000
 30 H      0.9408     1.0000     0.0592     0.9875     0.9875    -0.0000
 31 H      0.9551     1.0000     0.0449     1.0360     1.0360    -0.0000
 32 H      0.9967     1.0000     0.0033     0.9884     0.9884     0.0000
 33 H      0.9956     1.0000     0.0044     0.9791     0.9791    -0.0000
 34 H      0.9913     1.0000     0.0087     0.9788     0.9788    -0.0000
 35 H      0.9897     1.0000     0.0103     0.9799     0.9799     0.0000
 36 H      0.9774     1.0000     0.0226     1.0184     1.0184    -0.0000
 37 H      1.0057     1.0000    -0.0057     0.9943     0.9943    -0.0000
 38 H      0.9961     1.0000     0.0039     0.9790     0.9790    -0.0000
 39 H      0.9918     1.0000     0.0082     0.9788     0.9788    -0.0000
 40 H      0.9903     1.0000     0.0097     0.9798     0.9798     0.0000
 41 H      0.9766     1.0000     0.0234     1.0209     1.0209     0.0000

  Mayer bond orders larger than 0.100000
B(  0-C ,  1-N ) :   1.0373 B(  0-C , 20-H ) :   0.9382 B(  0-C , 21-H ) :   0.9670 
B(  0-C , 22-H ) :   0.9664 B(  1-N ,  2-C ) :   1.0235 B(  1-N ,  3-C ) :   1.0266 
B(  2-C , 23-H ) :   0.9654 B(  2-C , 24-H ) :   0.9349 B(  2-C , 25-H ) :   0.9586 
B(  3-C ,  4-C ) :   1.0825 B(  3-C , 26-H ) :   0.9327 B(  3-C , 27-H ) :   0.9130 
B(  4-C ,  5-C ) :   1.0548 B(  4-C , 28-H ) :   0.9281 B(  4-C , 29-H ) :   0.9252 
B(  5-C ,  6-P ) :   0.9351 B(  5-C , 30-H ) :   0.9262 B(  5-C , 31-H ) :   0.8844 
B(  6-P ,  7-O ) :   1.8784 B(  6-P ,  8-C ) :   0.8607 B(  6-P , 14-C ) :   0.8663 
B(  8-C ,  9-C ) :   1.3553 B(  8-C , 13-C ) :   1.3904 B(  9-C , 10-C ) :   1.4019 
B(  9-C , 32-H ) :   0.9678 B( 10-C , 11-C ) :   1.3804 B( 10-C , 33-H ) :   0.9738 
B( 11-C , 12-C ) :   1.3823 B( 11-C , 34-H ) :   0.9758 B( 12-C , 13-C ) :   1.3675 
B( 12-C , 35-H ) :   0.9785 B( 13-C , 36-H ) :   0.9702 B( 14-C , 15-C ) :   1.3474 
B( 14-C , 19-C ) :   1.3921 B( 15-C , 16-C ) :   1.3970 B( 15-C , 37-H ) :   0.9696 
B( 16-C , 17-C ) :   1.3760 B( 16-C , 38-H ) :   0.9752 B( 17-C , 18-C ) :   1.3829 
B( 17-C , 39-H ) :   0.9760 B( 18-C , 19-C ) :   1.3605 B( 18-C , 40-H ) :   0.9790 
B( 19-C , 41-H ) :   0.9689 

-------
TIMINGS
-------

Total SCF time: 0 days 0 hours 0 min 7 sec 

Total time                  ....       7.791 sec
Sum of individual times     ....       7.677 sec  ( 98.5%)

SCF preparation             ....       0.136 sec  (  1.7%)
Fock matrix formation       ....       6.894 sec  ( 88.5%)
  Startup                   ....       0.033 sec  (  0.5% of F)
  Split-RI-J                ....       2.431 sec  ( 35.3% of F)
  XC integration            ....       4.306 sec  ( 62.5% of F)
    Basis function eval.    ....       1.315 sec  ( 30.5% of XC)
    Density eval.           ....       1.311 sec  ( 30.4% of XC)
    XC-Functional eval.     ....       0.116 sec  (  2.7% of XC)
    XC-Potential eval.      ....       0.874 sec  ( 20.3% of XC)
Diagonalization             ....       0.000 sec  (  0.0%)
Density matrix formation    ....       0.078 sec  (  1.0%)
Total Energy calculation    ....       0.028 sec  (  0.4%)
Population analysis         ....       0.102 sec  (  1.3%)
Orbital Transformation      ....       0.050 sec  (  0.6%)
Orbital Orthonormalization  ....       0.000 sec  (  0.0%)
DIIS solution               ....       0.058 sec  (  0.7%)
SOSCF solution              ....       0.331 sec  (  4.2%)
Finished LeanSCF after   7.8 sec

Maximum memory used throughout the entire LEANSCF-calculation: 43.7 MB


-------------------------------------------------------------------------------
                          DFT DISPERSION CORRECTION                            
                                                                               
                              DFTD3 V3.1  Rev 1                                
                          USING Becke-Johnson damping                          
-------------------------------------------------------------------------------
The BP86 functional is recognized
Active option DFTDOPT                   ...         4   

molecular C6(AA) [au] = 19519.272576 


            DFT-D V3
 parameters
 s6 scaling factor         :     1.0000 
 a1 scaling factor         :     0.3946 
 s8 scaling factor         :     3.2822 
 a2 scaling factor         :     4.8516 
 ad hoc parameters k1-k3   :    16.0000     1.3333    -4.0000 

 Edisp/kcal,au: -56.444313942353  -0.089949730250 
 E6   /kcal   : -21.244141368 
 E8   /kcal   : -35.200172575 
 % E8         :  62.362654652 

-------------------------   ----------------
Dispersion correction           -0.089949730
-------------------------   ----------------


-------------------------   --------------------
FINAL SINGLE POINT ENERGY     -1131.840976539615
-------------------------   --------------------

                                *** OPTIMIZATION RUN DONE ***



           ************************************************************
           *        Program running with 6 parallel MPI-processes     *
           *              working on a common directory               *
           ************************************************************

------------------------------------------------------------------------------
                              ORCA PROPERTY CALCULATIONS
------------------------------------------------------------------------------

GBWName                                 ... data/geom_opt_PO_BP86/120481/120481.gbw
Number of atoms                         ...     42
Number of basis functions               ...    394
Max core memory                         ...   1024 MB

Electric properties:
Dipole moment                           ... YES
Quadrupole moment                       ...  NO
Static polarizability (Dipole/Dipole)   ...  NO
Static polarizability (Dipole/Quad.)    ...  NO
Static polarizability (Quad./Quad.)     ...  NO
Static polarizability (Velocity)        ...  NO

Atomic electric properties:
Dipole moment                           ...  NO
Quadrupole moment                       ...  NO
Static polarizability                   ...  NO

Choice of electric origin               ... Center of mass
Position of electric origin             ...    -0.995777     0.333357    -0.222489

General magnetic properties:
Magnetizability                         ...  NO

EPR properties:
g-Tensor (aka g-matrix)                 ...  NO
Zero-Field splitting spin-orbit         ...  NO
Zero-field splitting spin-spin          ...  NO
Hyperfine couplings                     ...  NO (   0 nuclei)
Quadrupole couplings                    ...  NO (   0 nuclei)
Contact density                         ...  NO (   0 nuclei)

NMR properties:
Chemical shifts                         ...  NO (   0 nuclei)
Spin-rotation constants                 ...  NO (   0 nuclei)
Spin-spin couplings                     ...  NO (   0 nuclei,    0 pairs)

Choice of magnetic origin               ... GIAO
Position of magnetic origin             ...     0.000000     0.000000     0.000000

Properties with geometric perturbations:
SCF Hessian                             ...  NO
IR spectrum                             ...  NO
VCD spectrum                            ...  NO
X-ray spectroscopy properties:
SCF XES/XAS/RIXS spectra                ...  NO


-------------
DIPOLE MOMENT
-------------

Method             : SCF
Type of density    : Electron Density
Multiplicity       :   1
Irrep              :   0
Energy             : -1131.7510268093647028 Eh
Relativity type    : 
Basis              : AO
                                X                 Y                 Z
Electronic contribution:    -21.400109178       7.717956767      -2.345761473
Nuclear contribution   :     22.280697711      -7.609845066       3.537305180
                        -----------------------------------------
Total Dipole Moment    :      0.880588533       0.108111701       1.191543707
                        -----------------------------------------
Magnitude (a.u.)       :      1.485564105
Magnitude (Debye)      :      3.776003871



--------------------
Rotational spectrum 
--------------------
 
Rotational constants in cm-1:             0.012425             0.007434             0.006069 
Rotational constants in MHz :           372.502689           222.875880           181.938187 

Dipole components along the rotational axes: 
x,y,z [a.u.] :     0.533399     0.278736     1.358194 
x,y,z [Debye]:     1.355793     0.708492     3.452256 

 

Dipole moment calculation done in   0.0 sec 

Maximum memory used throughout the entire PROP-calculation: 22.1 MB

--------------------------------
SUGGESTED CITATIONS FOR THIS RUN
--------------------------------

Below you find a list of papers that are relevant to this ORCA run
We neither can nor want to force you to cite these papers, but we appreciate if you do
You receive ORCA, which is the product of decades of hard work by many enthusiastic individuals, for free
The only thing we kindly ask in return is that you cite our papers,
We deeply appreciate it, if you show your appreciation for ORCA by not just citing the generic ORCA reference.

Please note that relegating all ORCA citations to the supporting information does *not* help us.
SI sections are not indexed - citations you put there will not count into any citation statistics
But we need these citations in order to attract the funding resources that allow us to do what we are doing

Therefore, if you are a happy ORCA user, please consider citing a few of the papers listed below in the main body of your paper

In addition to the list printed below, the program has created the file data/geom_opt_PO_BP86/120481/120481.bibtex that contains the list in bibtex format
You can import this file easily into all common literature databanks and citation aid programs


List of essential papers. We consider these as the minimum necessary citations

  1. Neese,F.
     Software update: the ORCA program system, version 5.0
     WIRES Comput. Molec. Sci., 2022 12(1)e1606
     doi.org/10.1002/wcms.1606

List of papers to cite with high priority. The work reported in these papers was absolutely
necessary for this run to complete.
Our perspective: the developers of density functionals and basis sets usually get cited in chemistry papers
Good! But without the algorithms to do something with them, the functionals or basis sets would not do anything.
Hence, in our opinion, the algorithm design and method developments papers are equally worthy of getting cited

  1. Neese,F.
     An improvement of the resolution of the identity approximation for the formation of the Coulomb matrix
     J. Comp. Chem., 2003 24(14)1740-1747
     doi.org/10.1002/jcc.10318
  2. Neese,F.
     The SHARK Integral Generation and Digestion System
     J. Comp. Chem., 2022  1-16
     doi.org/10.1002/jcc.26942
  3. Grimme,S.; Antony,J.; Ehrlich,S.; Krieg,H.
     A consistent and accurate ab initio parametrization of density functional dispersion correction (DFT-D) for the 94 elements H-Pu
     J. Chem. Phys., 2010 132 154104-XXXX
     doi.org/10.1063/1.3382344
  4. Grimme,S.; Ehrlich,S.; Goerigk,L.
     Effect of the damping function in dispersion corrected density functional theory
     J. Comput. Chem., 2011 32(7)1456-1465
     doi.org/10.1002/jcc.21759

List of suggested additional citations. These are papers that are important in the 'surrounding' of 
of this run, or papers that preceded the highly important papers. If you like your results we are grateful for a citation.

  1. Neese,F.
     The ORCA program system
     WIRES Comput. Molec. Sci., 2012 2(1)73-78
     doi.org/10.1002/wcms.81
  2. Neese,F.
     Software update: the ORCA program system, version 4.0
     WIRES Comput. Molec. Sci., 2018 8(1)1-6
     doi.org/10.1002/wcms.1327
  3. Neese,F.; Wennmohs,F.; Becker,U.; Riplinger,C.
     The ORCA quantum chemistry program package
     J. Chem. Phys., 2020 152 Art. No. L224108
     doi.org/10.1063/5.0004608

List of optional additional citations

  1. Neese,F.
     Approximate second-order SCF convergence for spin unrestricted wavefunctions
     Chem. Phys. Lett., 2000 325(1-3)93-98
     doi.org/10.1016/s0009-2614(00)00662-x

Timings for individual modules:

Sum of individual times          ...      187.805 sec (=   3.130 min)
Startup calculation              ...       14.581 sec (=   0.243 min)   7.8 %
SCF iterations                   ...      114.214 sec (=   1.904 min)  60.8 %
Property calculations            ...        0.185 sec (=   0.003 min)   0.1 %
SCF Gradient evaluation          ...       58.634 sec (=   0.977 min)  31.2 %
Geometry relaxation              ...        0.191 sec (=   0.003 min)   0.1 %
                             ****ORCA TERMINATED NORMALLY****
TOTAL RUN TIME: 0 days 0 hours 3 minutes 9 seconds 729 msec
