
                                 *****************
                                 * O   R   C   A *
                                 *****************

                                            #,                                       
                                            ###                                      
                                            ####                                     
                                            #####                                    
                                            ######                                   
                                           ########,                                 
                                     ,,################,,,,,                         
                               ,,#################################,,                 
                          ,,##########################################,,             
                       ,#########################################, ''#####,          
                    ,#############################################,,   '####,        
                  ,##################################################,,,,####,       
                ,###########''''           ''''###############################       
              ,#####''   ,,,,##########,,,,          '''####'''          '####       
            ,##' ,,,,###########################,,,                        '##       
           ' ,,###''''                  '''############,,,                           
         ,,##''                                '''############,,,,        ,,,,,,###''
      ,#''                                            '''#######################'''  
     '                                                          ''''####''''         
             ,#######,   #######,   ,#######,      ##                                
            ,#'     '#,  ##    ##  ,#'     '#,    #''#        ,####,   ,####,        
            ##       ##  ##   ,#'  ##            #'  '#       #'       #'  '#        
            ##       ##  #######   ##           ,######,      #####,   #    #        
            '#,     ,#'  ##    ##  '#,     ,#' ,#      #,     #,   #   #,  ,#        
             '#######'   ##     ##  '#######'  #'      '#     '####' # '####'        



                #########################################################
                #                        -***-                          #
                #          Department of theory and spectroscopy        #
                #                                                       #
                #                      Frank Neese                      #
                #                                                       #
                #     Directorship, Architecture, Infrastructure        #
                #                    SHARK, DRIVERS                     #
                #        Core code/Algorithms in most modules           #
                #                                                       #
                #        Max Planck Institute fuer Kohlenforschung      #
                #                Kaiser Wilhelm Platz 1                 #
                #                 D-45470 Muelheim/Ruhr                 #
                #                      Germany                          #
                #                                                       #
                #                  All rights reserved                  #
                #                        -***-                          #
                #########################################################


                         Program Version 6.0.0  -   RELEASE   -


 With contributions from (in alphabetic order):
   Daniel Aravena         : Magnetic Suceptibility
   Michael Atanasov       : Ab Initio Ligand Field Theory (pilot matlab implementation)
   Alexander A. Auer      : GIAO ZORA, VPT2 properties, NMR spectrum
   Ute Becker             : All parallelization in ORCA, NUMFREQ, NUMCALC
   Giovanni Bistoni       : ED, misc. LED, open-shell LED, HFLD
   Martin Brehm           : Molecular dynamics
   Dmytro Bykov           : pre 5.0 version of the SCF Hessian
   Marcos Casanova-Páez   : Triplet and SCS-CIS(D). UHF-(DLPNO)-IP/EA/STEOM-CCSD. UHF-CVS-IP/STEOM-CCSD
   Vijay G. Chilkuri      : MRCI spin determinant printing, contributions to CSF-ICE
   Pauline Colinet        : FMM embedding
   Dipayan Datta          : RHF DLPNO-CCSD density
   Achintya Kumar Dutta   : EOM-CC, STEOM-CC
   Nicolas Foglia         : Exact transition moments, OPA infrastructure, MCD improvements
   Dmitry Ganyushin       : Spin-Orbit,Spin-Spin,Magnetic field MRCI
   Miquel Garcia          : C-PCM and meta-GGA Hessian, CCSD/C-PCM, Gaussian charge scheme
   Tiago L. C. Gouveia    : GS-ROHF, GS-ROCIS
   Yang Guo               : DLPNO-NEVPT2, F12-NEVPT2, CIM, IAO-localization
   Andreas Hansen         : Spin unrestricted coupled pair/coupled cluster methods
   Ingolf Harden          : AUTO-CI MPn and infrastructure 
   Benjamin Helmich-Paris : MC-RPA, TRAH-(SCF,CASSCF), AVAS, COSX integrals, SCF dyn. polar.
   Lee Huntington         : MR-EOM, pCC
   Robert Izsak           : Overlap fitted RIJCOSX, COSX-SCS-MP3, EOM
   Riya Kayal             : Wick's Theorem for AUTO-CI, AUTO-CI UHF-CCSDT
   Emily Kempfer          : AUTO-CI, RHF CISDT and CCSDT
   Christian Kollmar      : KDIIS, OOCD, Brueckner-CCSD(T), CCSD density, CASPT2, CASPT2-K, improved NEVPT2
   Axel Koslowski         : Symmetry handling
   Simone Kossmann        : Meta GGA functionals, TD-DFT gradient, OOMP2, (MP2 Hessian; deprecated post 5.0)
   Lucas Lang             : DCDCAS
   Marvin Lechner         : AUTO-CI (C++ implementation), FIC-MRCC
   Spencer Leger          : CASSCF response
   Dagmar Lenk            : GEPOL surface, SMD, ORCA-2-JSON
   Dimitrios Liakos       : Extrapolation schemes; Compound Job, initial MDCI parallelization
   Dimitrios Manganas     : Further ROCIS development; embedding schemes. LFT, Crystal Embedding
   Dimitrios Pantazis     : SARC Basis sets
   Anastasios Papadopoulos: AUTO-CI, single reference methods and gradients
   Taras Petrenko         : pre 6.0 DFT Hessian and TD-DFT gradient, (ASA, deprecated), ECA, 1-Electron XAS/XES, NRVS
   Peter Pinski           : DLPNO-MP2, DLPNO-MP2 Gradient
   Christoph Reimann      : Effective Core Potentials
   Marius Retegan         : Local ZFS, SOC
   Christoph Riplinger    : Optimizer, TS searches, QM/MM, DLPNO-CCSD(T), (RO)-DLPNO pert. Triples
   Michael Roemelt        : Original ROCIS implementation
   Masaaki Saitow         : Open-shell DLPNO-CCSD energy and density
   Barbara Sandhoefer     : DKH picture change effects
   Kantharuban Sivalingam : CASSCF convergence/infrastructure, NEVPT2 and variants, FIC-MRCI
   Bernardo de Souza      : ESD, SOC TD-DFT
   Georgi Stoychev        : AutoAux, RI-MP2 NMR, DLPNO-MP2 response, X2C
   Van Anh Tran           : RI-MP2 g-tensors
   Willem Van den Heuvel  : Paramagnetic NMR
   Zikuan Wang            : NOTCH, Electric field optimization 
   Frank Wennmohs         : Technical directorship and infrastructure
   Hang Xu                : AUTO-CI-Response properties 


 We gratefully acknowledge several colleagues who have allowed us to
 interface, adapt or use parts of their codes:
   Stefan Grimme, W. Hujo, H. Kruse, P. Pracht,  : VdW corrections, initial TS optimization,
                  C. Bannwarth, S. Ehlert,         DFT functionals, gCP, sTDA/sTD-DF
                  L. Wittmann, M. Mueller
   Ed Valeev, F. Pavosevic, A. Kumar             : LibInt (2-el integral package), F12 methods
   Garnet Chan, S. Sharma, J. Yang, R. Olivares  : DMRG
   Ulf Ekstrom                                   : XCFun DFT Library
   Mihaly Kallay                                 : mrcc  (arbitrary order and MRCC methods)
   Frank Weinhold                                : gennbo (NPA and NBO analysis)
   Simon Mueller                                 : openCOSMO-RS
   Christopher J. Cramer and Donald G. Truhlar   : smd solvation model
   Lars Goerigk                                  : TD-DFT with DH, B97 family of functionals
   V. Asgeirsson, H. Jonsson                     : NEB implementation
   FAccTs GmbH                                   : IRC, NEB, NEB-TS, DLPNO-Multilevel, CI-OPT
                                                   MM, QMMM, 2- and 3-layer-ONIOM, Crystal-QMMM,
                                                   LR-CPCM, SF, NACMEs, symmetry and pop. for TD-DFT,
                                                   nearIR, NL-DFT gradient (VV10), updates on ESD,
                                                   ML-optimized integration grids, MBIS, APM,
                                                   GOAT, DOCKER, SOLVATOR, interface openCOSMO-RS
   S Lehtola, MJT Oliveira, MAL Marques          : LibXC Library
   Liviu Ungur et al                             : ANISO software


 Your calculation uses the libint2 library for the computation of 2-el integrals
 For citations please refer to: http://libint.valeyev.net

 Your ORCA version has been built with support for libXC version: 6.2.2
 For citations please refer to: https://libxc.gitlab.io

 This ORCA versions uses:
   CBLAS   interface :  Fast vector & matrix operations
   LAPACKE interface :  Fast linear algebra routines
   Shared memory     :  Shared parallel matrices


Your calculation utilizes the atom-pairwise dispersion correction
with the Becke-Johnson damping scheme (D3BJ)


Warning: RI is on but no J-basis has been assigned. Assigning Def2/J (nothing to worry about!)
================================================================================

----- Orbital basis set information -----
Your calculation utilizes the basis: def2-SVP
   F. Weigend and R. Ahlrichs, Phys. Chem. Chem. Phys. 7, 3297 (2005).

----- AuxJ basis set information -----
Your calculation utilizes the auxiliary basis: def2/J
   F. Weigend, Phys. Chem. Chem. Phys. 8, 1057 (2006).

================================================================================
                                        WARNINGS
                       Please study these warnings very carefully!
================================================================================


WARNING: Geometry Optimization
  ===> : Switching off AutoStart
         For restart on a previous wavefunction, please use MOREAD

================================================================================
                                       INPUT FILE
================================================================================
NAME = data/geom_opt/78464/78464.inp
|  1> ! RIJONX B3LYP def2-SVP D3BJ TIGHTSCF Opt
|  2> %pal
|  3> nprocs 6
|  4> end
|  5> 
|  6> * xyz 0 1
|  7> C      2.442481    3.180893   -1.635095
|  8> O      1.557055    2.154285   -1.213575
|  9> C      0.806567    2.371780   -0.081978
| 10> C      0.854881    3.562342    0.658695
| 11> C      0.070391    3.724002    1.801085
| 12> C     -0.768982    2.699114    2.216160
| 13> C     -0.827244    1.509521    1.488309
| 14> C     -0.049308    1.318509    0.329523
| 15> P     -0.112127   -0.249858   -0.638304
| 16> C     -1.605901   -1.133178   -0.034227
| 17> C     -1.507365   -2.370806    0.629951
| 18> C     -2.641474   -3.051564    1.078229
| 19> C     -3.903473   -2.517868    0.857199
| 20> C     -4.036446   -1.307795    0.177285
| 21> C     -2.905041   -0.613885   -0.277682
| 22> O     -2.977195    0.569899   -0.972689
| 23> C     -4.253745    1.161120   -1.161879
| 24> C      1.315596   -1.170475    0.045468
| 25> C      1.681710   -1.090541    1.401727
| 26> C      2.766668   -1.815144    1.908047
| 27> C      3.507445   -2.643298    1.070777
| 28> C      3.169505   -2.740528   -0.275592
| 29> C      2.098802   -1.996200   -0.785597
| 30> O      1.791253   -2.157461   -2.116039
| 31> C      2.629403   -1.322876   -2.916718
| 32> H      2.958692    2.828000   -2.533183
| 33> H      1.894468    4.089863   -1.903695
| 34> H      3.203365    3.384493   -0.874550
| 35> H      1.495370    4.388785    0.370563
| 36> H      0.116426    4.651827    2.365132
| 37> H     -1.381370    2.819828    3.105784
| 38> H     -1.489850    0.728733    1.851602
| 39> H     -0.543495   -2.841583    0.803609
| 40> H     -2.532415   -4.004167    1.590257
| 41> H     -4.787048   -3.049540    1.200297
| 42> H     -5.041133   -0.935863    0.008104
| 43> H     -4.108264    2.107356   -1.691937
| 44> H     -4.893248    0.527316   -1.784669
| 45> H     -4.731430    1.388521   -0.203204
| 46> H      1.118567   -0.470327    2.093962
| 47> H      3.023851   -1.735195    2.961235
| 48> H      4.341790   -3.215709    1.466452
| 49> H      3.733231   -3.398489   -0.930631
| 50> H      3.657522   -1.700234   -2.926220
| 51> H      2.249205   -1.353042   -3.942186
| 52> H      2.612312   -0.280562   -2.579799
| 53> **                         ****END OF INPUT****
================================================================================

                       *****************************
                       * Geometry Optimization Run *
                       *****************************

Geometry optimization settings:
Update method            Update   .... BFGS
Choice of coordinates    CoordSys .... (2022) Redundant Internals
Initial Hessian          InHess   .... Almloef's Model
Max. no of cycles        MaxIter  .... 138

Convergence Tolerances:
Energy Change            TolE     ....  5.0000e-06 Eh
Max. Gradient            TolMAXG  ....  3.0000e-04 Eh/bohr
RMS Gradient             TolRMSG  ....  1.0000e-04 Eh/bohr
Max. Displacement        TolMAXD  ....  4.0000e-03 bohr
RMS Displacement         TolRMSD  ....  2.0000e-03 bohr
Strict Convergence                .... False

------------------------------------------------------------------------------
                        ORCA OPTIMIZATION COORDINATE SETUP
------------------------------------------------------------------------------

The optimization will be done in redundant internal coordinates (2022)
Making redundant internal coordinates   ...  (2022 redundants) done
Evaluating the initial hessian          ...  (Almloef) done
Evaluating the coordinates              ...  done
Calculating the B-matrix                .... done
Calculating the G-matrix                .... done
Diagonalizing the G-matrix              .... done
Small eigenvalue found = 3.061e-03
Small eigenvalue found = 4.332e-03
Small eigenvalue found = 5.836e-03
Small eigenvalue found = 7.321e-03
Small eigenvalue found = 1.087e-02
Small eigenvalue found = 1.254e-02
Small eigenvalue found = 1.638e-02
Small eigenvalue found = 2.016e-02
Small eigenvalue found = 2.462e-02
The first mode is                       ....   93
The number of degrees of freedom        ....  132

    -----------------------------------------------------------------
                    Redundant Internal Coordinates


    -----------------------------------------------------------------
         Definition                    Initial Value    Approx d2E/dq
    -----------------------------------------------------------------
      1. B(O   1,C   0)                  1.4197         0.501732   
      2. B(C   2,O   1)                  1.3752         0.590965   
      3. B(C   3,C   2)                  1.4030         0.595691   
      4. B(C   4,C   3)                  1.3952         0.612950   
      5. B(C   5,C   4)                  1.3882         0.628833   
      6. B(C   6,C   5)                  1.3958         0.611596   
      7. B(C   7,C   2)                  1.4182         0.563351   
      8. B(C   7,C   6)                  1.4087         0.583301   
      9. B(P   8,C   7)                  1.8440         0.396162   
     10. B(C   9,P   8)                  1.8375         0.405717   
     11. B(C  10,C   9)                  1.4080         0.584741   
     12. B(C  11,C  10)                  1.3966         0.609753   
     13. B(C  12,C  11)                  1.3879         0.629585   
     14. B(C  13,C  12)                  1.3944         0.614867   
     15. B(C  14,C   9)                  1.4201         0.559380   
     16. B(C  14,C  13)                  1.4031         0.595523   
     17. B(O  15,C  14)                  1.3746         0.592121   
     18. B(C  16,O  15)                  1.4195         0.502165   
     19. B(C  17,P   8)                  1.8312         0.415191   
     20. B(C  18,C  17)                  1.4071         0.586803   
     21. B(C  19,C  18)                  1.3995         0.603413   
     22. B(C  20,C  19)                  1.3913         0.621906   
     23. B(C  21,C  20)                  1.3915         0.621286   
     24. B(C  22,C  21)                  1.4002         0.601838   
     25. B(C  22,C  17)                  1.4092         0.582202   
     26. B(O  23,C  22)                  1.3750         0.591265   
     27. B(C  24,O  23)                  1.4283         0.486104   
     28. B(H  25,C   0)                  1.0943         0.354411   
     29. B(H  26,C   0)                  1.0948         0.353744   
     30. B(H  27,C   0)                  1.0949         0.353664   
     31. B(H  28,C   3)                  1.0846         0.367379   
     32. B(H  29,C   4)                  1.0868         0.364362   
     33. B(H  30,C   5)                  1.0867         0.364427   
     34. B(H  31,C   6)                  1.0866         0.364651   
     35. B(H  32,C  10)                  1.0867         0.364543   
     36. B(H  33,C  11)                  1.0870         0.364121   
     37. B(H  34,C  12)                  1.0868         0.364382   
     38. B(H  35,C  13)                  1.0846         0.367318   
     39. B(H  36,C  16)                  1.0943         0.354459   
     40. B(H  37,C  16)                  1.0948         0.353834   
     41. B(H  38,C  16)                  1.0950         0.353589   
     42. B(H  39,C  18)                  1.0867         0.364450   
     43. B(H  40,C  19)                  1.0871         0.363985   
     44. B(H  41,C  20)                  1.0864         0.364845   
     45. B(H  42,C  21)                  1.0862         0.365196   
     46. B(H  43,C  24)                  1.0952         0.353254   
     47. B(H  44,C  24)                  1.0941         0.354723   
     48. B(H  45,C  24)                  1.0955         0.352835   
     49. A(O   1,C   0,H  27)          111.2004         0.337478   
     50. A(O   1,C   0,H  25)          107.7382         0.337597   
     51. A(H  25,C   0,H  27)          107.5905         0.289294   
     52. A(O   1,C   0,H  26)          111.1626         0.337491   
     53. A(H  25,C   0,H  26)          107.6078         0.289304   
     54. A(H  26,C   0,H  27)          111.3380         0.289209   
     55. A(C   0,O   1,C   2)          118.0549         0.409041   
     56. A(O   1,C   2,C   7)          116.7864         0.420269   
     57. A(O   1,C   2,C   3)          123.3563         0.424481   
     58. A(C   3,C   2,C   7)          119.8573         0.423620   
     59. A(C   4,C   3,H  28)          117.4703         0.353422   
     60. A(C   2,C   3,C   4)          120.7454         0.430072   
     61. A(C   2,C   3,H  28)          121.7842         0.351718   
     62. A(C   3,C   4,C   5)          119.9496         0.434278   
     63. A(C   5,C   4,H  29)          120.0467         0.354461   
     64. A(C   3,C   4,H  29)          120.0037         0.352929   
     65. A(C   4,C   5,C   6)          119.9019         0.434105   
     66. A(C   6,C   5,H  30)          119.8687         0.352807   
     67. A(C   4,C   5,H  30)          120.2295         0.354472   
     68. A(C   5,C   6,H  31)          117.6144         0.352844   
     69. A(C   7,C   6,H  31)          120.9541         0.350030   
     70. A(C   5,C   6,C   7)          121.4297         0.428284   
     71. A(C   6,C   7,P   8)          121.8869         0.422651   
     72. A(C   2,C   7,P   8)          119.9960         0.420033   
     73. A(C   2,C   7,C   6)          118.1157         0.422032   
     74. A(C   9,P   8,C  17)          105.6272         0.426002   
     75. A(C   7,P   8,C   9)          105.3078         0.422442   
     76. A(C   7,P   8,C  17)          101.8321         0.424189   
     77. A(P   8,C   9,C  10)          121.3801         0.424643   
     78. A(P   8,C   9,C  14)          120.7664         0.421291   
     79. A(C  10,C   9,C  14)          117.7946         0.421685   
     80. A(C  11,C  10,H  32)          117.2458         0.352646   
     81. A(C   9,C  10,H  32)          121.2154         0.350159   
     82. A(C   9,C  10,C  11)          121.5346         0.428241   
     83. A(C  12,C  11,H  33)          120.2145         0.354493   
     84. A(C  10,C  11,H  33)          119.7947         0.352577   
     85. A(C  10,C  11,C  12)          119.9875         0.433963   
     86. A(C  13,C  12,H  34)          120.0639         0.353119   
     87. A(C  11,C  12,H  34)          120.0570         0.354536   
     88. A(C  11,C  12,C  13)          119.8727         0.434615   
     89. A(C  14,C  13,H  35)          121.7889         0.351691   
     90. A(C  12,C  13,H  35)          117.5161         0.353599   
     91. A(C  12,C  13,C  14)          120.6918         0.430292   
     92. A(C  13,C  14,O  15)          123.1977         0.424608   
     93. A(C   9,C  14,O  15)          116.7181         0.419885   
     94. A(C   9,C  14,C  13)          120.0830         0.423063   
     95. A(C  14,O  15,C  16)          118.2471         0.409245   
     96. A(O  15,C  16,H  38)          111.2315         0.337515   
     97. A(O  15,C  16,H  37)          111.1010         0.337554   
     98. A(O  15,C  16,H  36)          107.7673         0.337653   
     99. A(H  36,C  16,H  37)          107.6204         0.289322   
    100. A(H  37,C  16,H  38)          111.3130         0.289211   
    101. A(H  36,C  16,H  38)          107.6084         0.289291   
    102. A(C  18,C  17,C  22)          117.2009         0.424977   
    103. A(P   8,C  17,C  22)          120.5090         0.426069   
    104. A(P   8,C  17,C  18)          122.2901         0.426670   
    105. A(C  17,C  18,C  19)          121.4013         0.427709   
    106. A(C  19,C  18,H  39)          117.8253         0.352008   
    107. A(C  17,C  18,H  39)          120.7686         0.350352   
    108. A(C  18,C  19,C  20)          120.2159         0.432193   
    109. A(C  20,C  19,H  40)          120.0565         0.353735   
    110. A(C  18,C  19,H  40)          119.7255         0.351932   
    111. A(C  19,C  20,C  21)          119.6406         0.434468   
    112. A(C  21,C  20,H  41)          120.1367         0.353816   
    113. A(C  19,C  20,H  41)          120.2218         0.353876   
    114. A(C  22,C  21,H  42)          119.9488         0.351974   
    115. A(C  20,C  21,H  42)          119.9855         0.353874   
    116. A(C  20,C  21,C  22)          120.0649         0.431913   
    117. A(C  21,C  22,O  23)          117.4597         0.425300   
    118. A(C  17,C  22,O  23)          120.9992         0.422784   
    119. A(C  17,C  22,C  21)          121.4442         0.426907   
    120. A(C  22,O  23,C  24)          110.0367         0.406794   
    121. A(H  44,C  24,H  45)          108.0023         0.289227   
    122. A(H  43,C  24,H  45)          110.1891         0.289040   
    123. A(O  23,C  24,H  45)          111.9853         0.335574   
    124. A(H  43,C  24,H  44)          107.9735         0.289281   
    125. A(O  23,C  24,H  44)          107.7813         0.335872   
    126. A(O  23,C  24,H  43)          110.7562         0.335640   
    127. D(C   2,O   1,C   0,H  25)    179.2321         0.019906   
    128. D(C   2,O   1,C   0,H  26)    -63.0966         0.019906   
    129. D(C   2,O   1,C   0,H  27)     61.5605         0.019906   
    130. D(C   7,C   2,O   1,C   0)   -178.8003         0.025457   
    131. D(C   3,C   2,O   1,C   0)      1.2033         0.025457   
    132. D(C   4,C   3,C   2,O   1)   -179.8958         0.024444   
    133. D(H  28,C   3,C   2,O   1)      0.2058         0.024444   
    134. D(H  28,C   3,C   2,C   7)   -179.7905         0.024444   
    135. D(C   4,C   3,C   2,C   7)      0.1079         0.024444   
    136. D(H  29,C   4,C   3,C   2)   -179.9274         0.025963   
    137. D(C   5,C   4,C   3,H  28)    179.9558         0.025963   
    138. D(H  29,C   4,C   3,H  28)     -0.0247         0.025963   
    139. D(C   5,C   4,C   3,C   2)      0.0532         0.025963   
    140. D(C   6,C   5,C   4,C   3)     -0.0778         0.027411   
    141. D(C   6,C   5,C   4,H  29)    179.9027         0.027411   
    142. D(H  30,C   5,C   4,C   3)    179.9472         0.027411   
    143. D(H  30,C   5,C   4,H  29)     -0.0723         0.027411   
    144. D(H  31,C   6,C   5,H  30)     -0.5740         0.025841   
    145. D(C   7,C   6,C   5,C   4)     -0.0601         0.025841   
    146. D(C   7,C   6,C   5,H  30)    179.9150         0.025841   
    147. D(H  31,C   6,C   5,C   4)    179.4509         0.025841   
    148. D(P   8,C   7,C   6,H  31)      0.2949         0.023388   
    149. D(P   8,C   7,C   6,C   5)    179.7897         0.023388   
    150. D(C   2,C   7,C   6,H  31)   -179.2782         0.023388   
    151. D(C   2,C   7,C   6,C   5)      0.2165         0.023388   
    152. D(P   8,C   7,C   2,C   3)   -179.8194         0.021749   
    153. D(P   8,C   7,C   2,O   1)      0.1840         0.021749   
    154. D(C   6,C   7,C   2,C   3)     -0.2379         0.021749   
    155. D(C   6,C   7,C   2,O   1)    179.7655         0.021749   
    156. D(C   9,P   8,C   7,C   6)     14.2915         0.003445   
    157. D(C   9,P   8,C   7,C   2)   -166.1432         0.003445   
    158. D(C  17,P   8,C   7,C   6)    -95.7494         0.003445   
    159. D(C  17,P   8,C   7,C   2)     83.8159         0.003445   
    160. D(C  14,C   9,P   8,C  17)    174.2142         0.003542   
    161. D(C  14,C   9,P   8,C   7)     66.9182         0.003542   
    162. D(C  10,C   9,P   8,C  17)     -8.6406         0.003542   
    163. D(C  10,C   9,P   8,C   7)   -115.9366         0.003542   
    164. D(H  32,C  10,C   9,C  14)    177.1209         0.023509   
    165. D(H  32,C  10,C   9,P   8)     -0.1062         0.023509   
    166. D(C  11,C  10,C   9,C  14)     -2.1043         0.023509   
    167. D(C  11,C  10,C   9,P   8)   -179.3314         0.023509   
    168. D(H  33,C  11,C  10,H  32)      0.9121         0.025677   
    169. D(H  33,C  11,C  10,C   9)   -179.8333         0.025677   
    170. D(C  12,C  11,C  10,H  32)   -178.4289         0.025677   
    171. D(C  12,C  11,C  10,C   9)      0.8257         0.025677   
    172. D(H  34,C  12,C  11,H  33)      0.2965         0.027481   
    173. D(H  34,C  12,C  11,C  10)    179.6347         0.027481   
    174. D(C  13,C  12,C  11,C  10)      0.5521         0.027481   
    175. D(C  13,C  12,C  11,H  33)   -178.7861         0.027481   
    176. D(H  35,C  13,C  12,H  34)     -0.2894         0.026135   
    177. D(H  35,C  13,C  12,C  11)    178.7931         0.026135   
    178. D(C  14,C  13,C  12,H  34)   -179.6616         0.026135   
    179. D(C  14,C  13,C  12,C  11)     -0.5790         0.026135   
    180. D(O  15,C  14,C  13,H  35)     -0.5020         0.024429   
    181. D(O  15,C  14,C  13,C  12)    178.8428         0.024429   
    182. D(C   9,C  14,C  13,H  35)    179.9016         0.024429   
    183. D(C   9,C  14,C  13,C  12)     -0.7535         0.024429   
    184. D(O  15,C  14,C   9,C  10)   -177.5720         0.021432   
    185. D(O  15,C  14,C   9,P   8)     -0.3270         0.021432   
    186. D(C  13,C  14,C   9,C  10)      2.0498         0.021432   
    187. D(C  13,C  14,C   9,P   8)    179.2948         0.021432   
    188. D(C  16,O  15,C  14,C  13)      4.2501         0.025563   
    189. D(C  16,O  15,C  14,C   9)   -176.1409         0.025563   
    190. D(H  38,C  16,O  15,C  14)     59.8590         0.019941   
    191. D(H  37,C  16,O  15,C  14)    -64.7432         0.019941   
    192. D(H  36,C  16,O  15,C  14)    177.5875         0.019941   
    193. D(C  22,C  17,P   8,C   9)    105.8959         0.003642   
    194. D(C  22,C  17,P   8,C   7)   -144.3071         0.003642   
    195. D(C  18,C  17,P   8,C   9)    -74.1794         0.003642   
    196. D(C  18,C  17,P   8,C   7)     35.6175         0.003642   
    197. D(H  39,C  18,C  17,C  22)    179.9422         0.023684   
    198. D(H  39,C  18,C  17,P   8)      0.0152         0.023684   
    199. D(C  19,C  18,C  17,C  22)     -0.8693         0.023684   
    200. D(C  19,C  18,C  17,P   8)    179.2036         0.023684   
    201. D(H  40,C  19,C  18,H  39)     -0.6168         0.025116   
    202. D(H  40,C  19,C  18,C  17)   -179.8282         0.025116   
    203. D(C  20,C  19,C  18,H  39)    178.8601         0.025116   
    204. D(C  20,C  19,C  18,C  17)     -0.3514         0.025116   
    205. D(H  41,C  20,C  19,H  40)      0.2648         0.026773   
    206. D(H  41,C  20,C  19,C  18)   -179.2103         0.026773   
    207. D(C  21,C  20,C  19,H  40)    179.9122         0.026773   
    208. D(C  21,C  20,C  19,C  18)      0.4370         0.026773   
    209. D(H  42,C  21,C  20,H  41)      0.7055         0.026717   
    210. D(H  42,C  21,C  20,C  19)   -178.9422         0.026717   
    211. D(C  22,C  21,C  20,H  41)   -179.6284         0.026717   
    212. D(C  22,C  21,C  20,C  19)      0.7239         0.026717   
    213. D(O  23,C  22,C  21,H  42)      1.1972         0.024978   
    214. D(O  23,C  22,C  21,C  20)   -178.4690         0.024978   
    215. D(C  17,C  22,C  21,H  42)    177.6518         0.024978   
    216. D(C  17,C  22,C  21,C  20)     -2.0144         0.024978   
    217. D(O  23,C  22,C  17,C  18)    178.3774         0.023296   
    218. D(O  23,C  22,C  17,P   8)     -1.6942         0.023296   
    219. D(C  21,C  22,C  17,C  18)      2.0477         0.023296   
    220. D(C  21,C  22,C  17,P   8)   -178.0239         0.023296   
    221. D(C  24,O  23,C  22,C  21)    -83.6697         0.025485   
    222. D(C  24,O  23,C  22,C  17)     99.8591         0.025485   
    223. D(H  45,C  24,O  23,C  22)    -52.2011         0.018651   
    224. D(H  44,C  24,O  23,C  22)   -170.8532         0.018651   
    225. D(H  43,C  24,O  23,C  22)     71.2362         0.018651   
    -----------------------------------------------------------------

Number of atoms                         .... 46
Number of degrees of freedom            .... 225


         *************************************************************
         *                GEOMETRY OPTIMIZATION CYCLE   1            *
         *************************************************************
---------------------------------
CARTESIAN COORDINATES (ANGSTROEM)
---------------------------------
  C      2.442481    3.180893   -1.635095
  O      1.557055    2.154285   -1.213575
  C      0.806567    2.371780   -0.081978
  C      0.854881    3.562342    0.658695
  C      0.070391    3.724002    1.801085
  C     -0.768982    2.699114    2.216160
  C     -0.827244    1.509521    1.488309
  C     -0.049308    1.318509    0.329523
  P     -0.112127   -0.249858   -0.638304
  C     -1.605901   -1.133178   -0.034227
  C     -1.507365   -2.370806    0.629951
  C     -2.641474   -3.051564    1.078229
  C     -3.903473   -2.517868    0.857199
  C     -4.036446   -1.307795    0.177285
  C     -2.905041   -0.613885   -0.277682
  O     -2.977195    0.569899   -0.972689
  C     -4.253745    1.161120   -1.161879
  C      1.315596   -1.170475    0.045468
  C      1.681710   -1.090541    1.401727
  C      2.766668   -1.815144    1.908047
  C      3.507445   -2.643298    1.070777
  C      3.169505   -2.740528   -0.275592
  C      2.098802   -1.996200   -0.785597
  O      1.791253   -2.157461   -2.116039
  C      2.629403   -1.322876   -2.916718
  H      2.958692    2.828000   -2.533183
  H      1.894468    4.089863   -1.903695
  H      3.203365    3.384493   -0.874550
  H      1.495370    4.388785    0.370563
  H      0.116426    4.651827    2.365132
  H     -1.381370    2.819828    3.105784
  H     -1.489850    0.728733    1.851602
  H     -0.543495   -2.841583    0.803609
  H     -2.532415   -4.004167    1.590257
  H     -4.787048   -3.049540    1.200297
  H     -5.041133   -0.935863    0.008104
  H     -4.108264    2.107356   -1.691937
  H     -4.893248    0.527316   -1.784669
  H     -4.731430    1.388521   -0.203204
  H      1.118567   -0.470327    2.093962
  H      3.023851   -1.735195    2.961235
  H      4.341790   -3.215709    1.466452
  H      3.733231   -3.398489   -0.930631
  H      3.657522   -1.700234   -2.926220
  H      2.249205   -1.353042   -3.942186
  H      2.612312   -0.280562   -2.579799

----------------------------
CARTESIAN COORDINATES (A.U.)
----------------------------
  NO LB      ZA    FRAG     MASS         X           Y           Z
   0 C     6.0000    0    12.011    4.615620    6.011017   -3.089882
   1 O     8.0000    0    15.999    2.942408    4.071009   -2.293324
   2 C     6.0000    0    12.011    1.524191    4.482015   -0.154916
   3 C     6.0000    0    12.011    1.615491    6.731851    1.244753
   4 C     6.0000    0    12.011    0.133020    7.037344    3.403557
   5 C     6.0000    0    12.011   -1.453165    5.100586    4.187935
   6 C     6.0000    0    12.011   -1.563265    2.852581    2.812496
   7 C     6.0000    0    12.011   -0.093179    2.491621    0.622708
   8 P    15.0000    0    30.974   -0.211889   -0.472163   -1.206220
   9 C     6.0000    0    12.011   -3.034713   -2.141396   -0.064680
  10 C     6.0000    0    12.011   -2.848507   -4.480174    1.190435
  11 C     6.0000    0    12.011   -4.991662   -5.766620    2.037558
  12 C     6.0000    0    12.011   -7.376495   -4.758081    1.619871
  13 C     6.0000    0    12.011   -7.627777   -2.471374    0.335020
  14 C     6.0000    0    12.011   -5.489732   -1.160075   -0.524743
  15 O     8.0000    0    15.999   -5.626083    1.076953   -1.838116
  16 C     6.0000    0    12.011   -8.038413    2.194199   -2.195633
  17 C     6.0000    0    12.011    2.486116   -2.211877    0.085922
  18 C     6.0000    0    12.011    3.177971   -2.060824    2.648880
  19 C     6.0000    0    12.011    5.228245   -3.430125    3.605686
  20 C     6.0000    0    12.011    6.628110   -4.995109    2.023475
  21 C     6.0000    0    12.011    5.989496   -5.178847   -0.520793
  22 C     6.0000    0    12.011    3.966161   -3.772271   -1.484563
  23 O     8.0000    0    15.999    3.384978   -4.077010   -3.998734
  24 C     6.0000    0    12.011    4.968852   -2.499873   -5.511798
  25 H     1.0000    0     1.008    5.591118    5.344146   -4.787022
  26 H     1.0000    0     1.008    3.580026    7.728721   -3.597462
  27 H     1.0000    0     1.008    6.053483    6.395765   -1.652660
  28 H     1.0000    0     1.008    2.825840    8.293602    0.700263
  29 H     1.0000    0     1.008    0.220013    8.790679    4.469452
  30 H     1.0000    0     1.008   -2.610411    5.328703    5.869081
  31 H     1.0000    0     1.008   -2.815408    1.377106    3.499021
  32 H     1.0000    0     1.008   -1.027057   -5.369814    1.518601
  33 H     1.0000    0     1.008   -4.785571   -7.566779    3.005150
  34 H     1.0000    0     1.008   -9.046210   -5.762795    2.268233
  35 H     1.0000    0     1.008   -9.526361   -1.768525    0.015314
  36 H     1.0000    0     1.008   -7.763494    3.982326   -3.197298
  37 H     1.0000    0     1.008   -9.246899    0.996483   -3.372536
  38 H     1.0000    0     1.008   -8.941107    2.623924   -0.384000
  39 H     1.0000    0     1.008    2.113785   -0.888789    3.957015
  40 H     1.0000    0     1.008    5.714250   -3.279043    5.595923
  41 H     1.0000    0     1.008    8.204794   -6.076809    2.771193
  42 H     1.0000    0     1.008    7.054784   -6.422213   -1.758638
  43 H     1.0000    0     1.008    6.911715   -3.212977   -5.529754
  44 H     1.0000    0     1.008    4.250381   -2.556879   -7.449652
  45 H     1.0000    0     1.008    4.936554   -0.530185   -4.875114

--------------------------------
INTERNAL COORDINATES (ANGSTROEM)
--------------------------------
 C      0   0   0     0.000000000000     0.00000000     0.00000000
 O      1   0   0     1.419712047403     0.00000000     0.00000000
 C      2   1   0     1.375153839968   118.05486899     0.00000000
 C      3   2   1     1.402985606259   123.35630959     1.20332392
 C      4   3   2     1.395210890081   120.74542463   180.10422567
 C      5   4   3     1.388246988579   119.94963743     0.05319403
 C      6   5   4     1.395812682452   119.90185436   359.92217421
 C      7   6   5     1.408706853123   121.42968773   359.93991613
 P      8   7   6     1.844020166750   121.88691749   179.78968093
 C      9   8   7     1.837532042552   105.30781310    14.29145604
 C     10   9   8     1.408035804006   121.38007160   244.06342549
 C     11  10   9     1.396634470335   121.53457505   180.66858044
 C     12  11  10     1.387921884443   119.98750703     0.82574194
 C     13  12  11     1.394360617435   119.87265211     0.55205827
 C     14  13  12     1.403062127354   120.69184932   359.42102132
 O     15  14  13     1.374621943816   123.19769865   178.84281618
 C     16  15  14     1.419477026739   118.24707447     4.25012623
 C      9   8   7     1.831248965434   101.83206267   264.25062539
 C     18   9   8     1.407077602847   122.29005620    35.61753216
 C     19  18   9     1.399479657506   121.40133083   179.20364379
 C     20  19  18     1.391262255775   120.21589092   359.64864242
 C     21  20  19     1.391533902088   119.64057313     0.43703258
 C     22  21  20     1.400190767652   120.06490425     0.72394650
 O     23  22  21     1.375015422781   117.45966159   181.53100906
 C     24  23  22     1.428325735176   110.03668458   276.33031085
 H      1   2   3     1.094335104853   107.73824157   179.23213572
 H      1   2   3     1.094847326831   111.16258505   296.90337537
 H      1   2   3     1.094909182755   111.20037724    61.56053337
 H      4   3   2     1.084552553265   121.78416496     0.20584086
 H      5   4   3     1.086796885374   120.00368346   180.07263731
 H      6   5   4     1.086748266029   120.22947523   179.94717932
 H      7   6   5     1.086581067399   117.61437818   179.45093796
 H     11  10   9     1.086661613196   121.21536353   359.89376785
 H     12  11  10     1.086977007059   119.79466305   180.16672802
 H     13  12  11     1.086782468488   120.05703690   179.63469513
 H     14  13  12     1.084597432854   117.51614667   178.79313416
 H     17  16  15     1.094298301388   107.76732215   177.58749591
 H     17  16  15     1.094778051262   111.10100754   295.25682368
 H     17  16  15     1.094966634035   111.23145589    59.85897010
 H     19  18   9     1.086731217675   120.76855744     0.00000000
 H     20  19  18     1.087078608673   119.72551218   180.17175869
 H     21  20  19     1.086436669839   120.22181639   180.78970529
 H     22  21  20     1.086174834968   119.98545266   181.05782941
 H     25  24  23     1.095225103040   110.75617517    71.23622145
 H     25  24  23     1.094095574337   107.78128614   189.14678451
 H     25  24  23     1.095547803356   111.98526161   307.79886405

---------------------------
INTERNAL COORDINATES (A.U.)
---------------------------
 C      0   0   0     0.000000000000     0.00000000     0.00000000
 O      1   0   0     2.682866958619     0.00000000     0.00000000
 C      2   1   0     2.598664149549   118.05486899     0.00000000
 C      3   2   1     2.651258565662   123.35630959     1.20332392
 C      4   3   2     2.636566481317   120.74542463   180.10422567
 C      5   4   3     2.623406614655   119.94963743     0.05319403
 C      6   5   4     2.637703704088   119.90185436   359.92217421
 C      7   6   5     2.662070155381   121.42968773   359.93991613
 P      8   7   6     3.484693100584   121.88691749   179.78968093
 C      9   8   7     3.472432322728   105.30781310    14.29145604
 C     10   9   8     2.660802056328   121.38007160   244.06342549
 C     11  10   9     2.639256658128   121.53457505   180.66858044
 C     12  11  10     2.622792256874   119.98750703     0.82574194
 C     13  12  11     2.634959698878   119.87265211     0.55205827
 C     14  13  12     2.651403169575   120.69184932   359.42102132
 O     15  14  13     2.597659011491   123.19769865   178.84281618
 C     16  15  14     2.682422833930   118.24707447     4.25012623
 C      9   8   7     3.460559027696   101.83206267   264.25062539
 C     18   9   8     2.658991318555   122.29005620    35.61753216
 C     19  18   9     2.644633282680   121.40133083   179.20364379
 C     20  19  18     2.629104643877   120.21589092   359.64864242
 C     21  20  19     2.629617981014   119.64057313     0.43703258
 C     22  21  20     2.645977086107   120.06490425     0.72394650
 O     23  22  21     2.598402578974   117.45966159   181.53100906
 C     24  23  22     2.699144469514   110.03668458   276.33031085
 H      1   2   3     2.067993646908   107.73824157   179.23213572
 H      1   2   3     2.068961606166   111.16258505   296.90337537
 H      1   2   3     2.069078496922   111.20037724    61.56053337
 H      4   3   2     2.049507303516   121.78416496     0.20584086
 H      5   4   3     2.053748476556   120.00368346   180.07263731
 H      6   5   4     2.053656599308   120.22947523   179.94717932
 H      7   6   5     2.053340639687   117.61437818   179.45093796
 H     11  10   9     2.053492849185   121.21536353   359.89376785
 H     12  11  10     2.054088857210   119.79466305   180.16672802
 H     13  12  11     2.053721232589   120.05703690   179.63469513
 H     14  13  12     2.049592113649   117.51614667   178.79313416
 H     17  16  15     2.067924098439   107.76732215   177.58749591
 H     17  16  15     2.068830694313   111.10100754   295.25682368
 H     17  16  15     2.069187064109   111.23145589    59.85897010
 H     19  18   9     2.053624382589   120.76855744     0.00000000
 H     20  19  18     2.054280856436   119.72551218   180.17175869
 H     21  20  19     2.053067767845   120.22181639   180.78970529
 H     22  21  20     2.052572971647   119.98545266   181.05782941
 H     25  24  23     2.069675499741   110.75617517    71.23622145
 H     25  24  23     2.067540999832   107.78128614   189.14678451
 H     25  24  23     2.070285314962   111.98526161   307.79886405

---------------------
BASIS SET INFORMATION
---------------------
There are 4 groups of distinct atoms

 Group   1 Type C   : 7s4p1d contracted to 3s2p1d pattern {511/31/1}
 Group   2 Type O   : 7s4p1d contracted to 3s2p1d pattern {511/31/1}
 Group   3 Type P   : 10s7p1d contracted to 4s3p1d pattern {5311/511/1}
 Group   4 Type H   : 4s1p contracted to 2s1p pattern {31/1}

Atom   0C    basis set group =>   1
Atom   1O    basis set group =>   2
Atom   2C    basis set group =>   1
Atom   3C    basis set group =>   1
Atom   4C    basis set group =>   1
Atom   5C    basis set group =>   1
Atom   6C    basis set group =>   1
Atom   7C    basis set group =>   1
Atom   8P    basis set group =>   3
Atom   9C    basis set group =>   1
Atom  10C    basis set group =>   1
Atom  11C    basis set group =>   1
Atom  12C    basis set group =>   1
Atom  13C    basis set group =>   1
Atom  14C    basis set group =>   1
Atom  15O    basis set group =>   2
Atom  16C    basis set group =>   1
Atom  17C    basis set group =>   1
Atom  18C    basis set group =>   1
Atom  19C    basis set group =>   1
Atom  20C    basis set group =>   1
Atom  21C    basis set group =>   1
Atom  22C    basis set group =>   1
Atom  23O    basis set group =>   2
Atom  24C    basis set group =>   1
Atom  25H    basis set group =>   4
Atom  26H    basis set group =>   4
Atom  27H    basis set group =>   4
Atom  28H    basis set group =>   4
Atom  29H    basis set group =>   4
Atom  30H    basis set group =>   4
Atom  31H    basis set group =>   4
Atom  32H    basis set group =>   4
Atom  33H    basis set group =>   4
Atom  34H    basis set group =>   4
Atom  35H    basis set group =>   4
Atom  36H    basis set group =>   4
Atom  37H    basis set group =>   4
Atom  38H    basis set group =>   4
Atom  39H    basis set group =>   4
Atom  40H    basis set group =>   4
Atom  41H    basis set group =>   4
Atom  42H    basis set group =>   4
Atom  43H    basis set group =>   4
Atom  44H    basis set group =>   4
Atom  45H    basis set group =>   4
---------------------------------
AUXILIARY/J BASIS SET INFORMATION
---------------------------------
There are 4 groups of distinct atoms

 Group   1 Type C   : 12s5p4d2f1g contracted to 6s4p3d1f1g pattern {711111/2111/211/2/1}
 Group   2 Type O   : 12s5p4d2f1g contracted to 6s4p3d1f1g pattern {711111/2111/211/2/1}
 Group   3 Type P   : 14s5p5d2f1g contracted to 8s4p3d1f1g pattern {71111111/2111/311/2/1}
 Group   4 Type H   : 5s2p1d contracted to 3s1p1d pattern {311/2/1}

Atom   0C    basis set group =>   1
Atom   1O    basis set group =>   2
Atom   2C    basis set group =>   1
Atom   3C    basis set group =>   1
Atom   4C    basis set group =>   1
Atom   5C    basis set group =>   1
Atom   6C    basis set group =>   1
Atom   7C    basis set group =>   1
Atom   8P    basis set group =>   3
Atom   9C    basis set group =>   1
Atom  10C    basis set group =>   1
Atom  11C    basis set group =>   1
Atom  12C    basis set group =>   1
Atom  13C    basis set group =>   1
Atom  14C    basis set group =>   1
Atom  15O    basis set group =>   2
Atom  16C    basis set group =>   1
Atom  17C    basis set group =>   1
Atom  18C    basis set group =>   1
Atom  19C    basis set group =>   1
Atom  20C    basis set group =>   1
Atom  21C    basis set group =>   1
Atom  22C    basis set group =>   1
Atom  23O    basis set group =>   2
Atom  24C    basis set group =>   1
Atom  25H    basis set group =>   4
Atom  26H    basis set group =>   4
Atom  27H    basis set group =>   4
Atom  28H    basis set group =>   4
Atom  29H    basis set group =>   4
Atom  30H    basis set group =>   4
Atom  31H    basis set group =>   4
Atom  32H    basis set group =>   4
Atom  33H    basis set group =>   4
Atom  34H    basis set group =>   4
Atom  35H    basis set group =>   4
Atom  36H    basis set group =>   4
Atom  37H    basis set group =>   4
Atom  38H    basis set group =>   4
Atom  39H    basis set group =>   4
Atom  40H    basis set group =>   4
Atom  41H    basis set group =>   4
Atom  42H    basis set group =>   4
Atom  43H    basis set group =>   4
Atom  44H    basis set group =>   4
Atom  45H    basis set group =>   4


           ************************************************************
           *        Program running with 6 parallel MPI-processes     *
           *              working on a common directory               *
           ************************************************************
------------------------------------------------------------------------------
                             ORCA STARTUP CALCULATIONS
                           -- RI-GTO INTEGRALS CHOSEN --
------------------------------------------------------------------------------
------------------------------------------------------------------------------
                   ___                                                        
                  /   \      - P O W E R E D   B Y -                         
                 /     \                                                     
                 |  |  |   _    _      __       _____    __    __             
                 |  |  |  | |  | |    /  \     |  _  \  |  |  /  |          
                  \  \/   | |  | |   /    \    | | | |  |  | /  /          
                 / \  \   | |__| |  /  /\  \   | |_| |  |  |/  /          
                |  |  |   |  __  | /  /__\  \  |    /   |      \           
                |  |  |   | |  | | |   __   |  |    \   |  |\   \          
                \     /   | |  | | |  |  |  |  | |\  \  |  | \   \       
                 \___/    |_|  |_| |__|  |__|  |_| \__\ |__|  \__/        
                                                                              
                      - O R C A' S   B I G   F R I E N D -                    
                                      &                                       
                       - I N T E G R A L  F E E D E R -                       
                                                                              
 v1 FN, 2020, v2 2021, v3 2022-2024                                           
------------------------------------------------------------------------------


----------------------
SHARK INTEGRAL PACKAGE
----------------------

Number of atoms                             ...     46
Number of basis functions                   ...    459
Number of shells                            ...    215
Maximum angular momentum                    ...      2
Integral batch strategy                     ... SHARK/LIBINT Hybrid
RI-J (if used) integral strategy            ... SPLIT-RIJ (Revised 2003 algorithm where possible)
Printlevel                                  ...      1
Contraction scheme used                     ... SEGMENTED contraction
Prescreening option                         ... SCHWARTZ
   Thresh                                   ... 2.500e-11
   Tcut                                     ... 2.500e-12
   Tpresel                                  ... 2.500e-12 
Coulomb Range Separation                    ... NOT USED
Exchange Range Separation                   ... NOT USED
Multipole approximations                    ... NOT USED
Finite Nucleus Model                        ... NOT USED
CABS basis                                  ... NOT available
Auxiliary Coulomb fitting basis             ... AVAILABLE
   # of basis functions in Aux-J            ...   1458
   # of shells in Aux-J                     ...    482
   Maximum angular momentum in Aux-J        ...      4
Auxiliary J/K fitting basis                 ... NOT available
Auxiliary Correlation fitting basis         ... NOT available
Auxiliary 'external' fitting basis          ... NOT available

Checking pre-screening integrals            ... done (  0.0 sec) Dimension = 215
Check shell pair data                       ... done (  0.0 sec)
Shell pair information
Shell pair cut-off parameter TPreSel        ...   2.5e-12
Total number of shell pairs                 ...     23220
Shell pairs after pre-screening             ...     16769
Total number of primitive shell pairs       ...     85064
Primitive shell pairs kept                  ...     38162
          la=0 lb=0:   5240 shell pairs
          la=1 lb=0:   6272 shell pairs
          la=1 lb=1:   1922 shell pairs
          la=2 lb=0:   1976 shell pairs
          la=2 lb=1:   1180 shell pairs
          la=2 lb=2:    179 shell pairs

Calculating one electron integrals          ... done (  0.0 sec)
Calculating RI/J V-Matrix + Cholesky decomp.... done (  0.1 sec)
Calculating Nuclear repulsion               ... done (  0.0 sec) ENN=   2353.341427362152 Eh

Diagonalization of the overlap matrix:
Smallest eigenvalue                        ... 2.376e-04
Time for diagonalization                   ...    0.029 sec
Threshold for overlap eigenvalues          ... 1.000e-07
Number of eigenvalues below threshold      ... 0
Time for construction of square roots      ...    0.016 sec
Total time needed                          ...    0.047 sec

-------------------
DFT GRID GENERATION
-------------------

General Integration Accuracy     IntAcc      ... 4.388
Radial Grid Type                 RadialGrid  ... OptM3 with GC (2021)
Angular Grid (max. ang.)         AngularGrid ... 4 (Lebedev-302)
Angular grid pruning method      GridPruning ... 4 (adaptive)
Weight generation scheme         WeightScheme... mBecke (2022)
Basis function cutoff            BFCut       ... 1.0000e-11
Integration weight cutoff        WCut        ... 1.0000e-14
Partially contracted basis set               ... off
Rotationally invariant grid construction     ... off
Angular grids for H and He will be reduced by one unit

Total number of grid points                  ...   217478
Total number of batches                      ...     3423
Average number of points per batch           ...       63
Average number of grid points per atom       ...     4728
Initializing property integral containers    ... done (  0.0 sec)

SHARK setup successfully completed in   1.7 seconds

Maximum memory used throughout the entire STARTUP-calculation: 61.5 MB


           ************************************************************
           *        Program running with 6 parallel MPI-processes     *
           *              working on a common directory               *
           ************************************************************
-------------------------------------------------------------------------------
                                 ORCA GUESS
                   Start orbitals & Density for SCF / CASSCF
-------------------------------------------------------------------------------

------------
SCF SETTINGS
------------
Hamiltonian:
 Density Functional     Method          .... DFT(GTOs)
 Exchange Functional    Exchange        .... B88
   X-Alpha parameter    XAlpha          ....  0.666667
   Becke's b parameter  XBeta           ....  0.004200
 Correlation Functional Correlation     .... LYP
 LDA part of GGA corr.  LDAOpt          .... VWN-5
 Gradients option       PostSCFGGA      .... off
 Hybrid DFT is turned on
   Fraction HF Exchange ScalHFX         ....  0.200000
   Scaling of DF-GGA-X  ScalDFX         ....  0.720000
   Scaling of DF-GGA-C  ScalDFC         ....  0.810000
   Scaling of DF-LDA-C  ScalLDAC        ....  1.000000
   Perturbative correction              ....  0.000000
   NL short-range parameter             ....  4.800000
 RI-approximation to the Coulomb term is turned on
   Number of AuxJ basis functions       .... 1458
   RIJ-ON(X) (HFX calculated with O(N)) .... on


General Settings:
 Integral files         IntName         .... data/geom_opt/78464/78464
 Hartree-Fock type      HFTyp           .... RHF
 Total Charge           Charge          ....    0
 Multiplicity           Mult            ....    1
 Number of Electrons    NEL             ....  186
 Basis Dimension        Dim             ....  459
 Nuclear Repulsion      ENuc            ....   2353.3414273622 Eh

Convergence Acceleration:
 AO-DIIS                CNVDIIS         .... on
   Start iteration      DIISMaxIt       ....    12
   Startup error        DIISStart       ....  0.200000
   # of expansion vecs  DIISMaxEq       ....     5
   Bias factor          DIISBfac        ....   1.050
   Max. coefficient     DIISMaxC        ....  10.000
 MO-DIIS                CNVKDIIS        .... off
 Trust-Rad. Augm. Hess. CNVTRAH         .... auto
   Auto Start mean grad. ratio tolernc. ....  1.125000
   Auto Start start iteration           ....    50
   Auto Start num. interpolation iter.  ....    10
   Max. Number of Micro iterations      ....    24
   Max. Number of Macro iterations      .... Maxiter - #DIIS iter
   Number of Davidson start vectors     ....     2
   Converg. threshold    (grad. norm)   ....   1.000e-05
   Grad. Scal. Fac. for Micro threshold ....   0.100
   Minimum threshold for Micro iter.    ....   1.000e-02
   NR start threshold (gradient norm)   ....   1.000e-04
   Initial trust radius                 ....   0.400
   Minimum AH scaling param. (alpha)    ....   1.000
   Maximum AH scaling param. (alpha)    .... 1000.000
   Quad. conv. algorithm                .... NR
   White noise on init. David. guess    .... on
   Maximum white noise                  ....   0.010
   Pseudo random numbers                .... off
   Inactive MOs                         .... canonical
   Orbital update algorithm             .... Taylor
   Preconditioner                       .... Diag
   Full preconditioner red. dimension   ....   250
   COSX micro iterations for RIJONX calc.... off
 SOSCF                  CNVSOSCF        .... on
   Start iteration      SOSCFMaxIt      ....   150
   Startup grad/error   SOSCFStart      ....  0.003300
   Hessian update       SOSCFHessUp     .... L-BFGS
 Level Shifting         CNVShift        .... on
   Level shift para.    LevelShift      ....    0.2500
   Turn off err/grad.   ShiftErr        ....    0.0010
 Zerner damping         CNVZerner       .... off
 Static damping         CNVDamp         .... on
   Fraction old density DampFac         ....    0.7000
   Max. Damping (<1)    DampMax         ....    0.9800
   Min. Damping (>=0)   DampMin         ....    0.0000
   Turn off err/grad.   DampErr         ....    0.1000

SCF Procedure:
 Maximum # iterations   MaxIter         ....   125
 SCF integral mode      SCFMode         .... Direct
   Integral package                     .... SHARK and LIBINT hybrid scheme
 Reset frequency        DirectResetFreq ....    20
 Integral Threshold     Thresh          ....  2.500e-11 Eh
 Primitive CutOff       TCut            ....  2.500e-12 Eh

Convergence Tolerance:
 Convergence Check Mode ConvCheckMode   .... Total+1el-Energy
 Convergence forced     ConvForced      .... 0
 Energy Change          TolE            ....  1.000e-08 Eh
 1-El. energy change                    ....  1.000e-05 Eh
 Orbital Gradient       TolG            ....  1.000e-05
 Orbital Rotation angle TolX            ....  1.000e-05
 DIIS Error             TolErr          ....  5.000e-07

------------------------------
INITIAL GUESS: MODEL POTENTIAL
------------------------------
Loading Hartree-Fock densities                     ... done
Calculating cut-offs                               ... done
Initializing the effective Hamiltonian             ... done
Setting up the integral package (SHARK)            ... done
Starting the Coulomb interaction                   ... done (   0.3 sec)
Making the grid                                    ... done (   0.3 sec)
Mapping shells                                     ... done
Starting the XC term evaluation                    ... done (   0.2 sec)
  promolecular density results
     # of electrons  =    185.991775916
     EX              =   -161.444739628
     EC              =     -6.398712151
     EX+EC           =   -167.843451779
Transforming the Hamiltonian                       ... done (   0.0 sec)
Diagonalizing the Hamiltonian                      ... done (   0.0 sec)
Back transforming the eigenvectors                 ... done (   0.0 sec)
Now organizing SCF variables                       ... done
                      ------------------
                      INITIAL GUESS DONE (   0.9 sec)
                      ------------------
             **** ENERGY FILE WAS UPDATED (data/geom_opt/78464/78464.en.tmp) ****
Finished Guess after   1.0 sec
Maximum memory used throughout the entire GUESS-calculation: 35.3 MB


           ************************************************************
           *        Program running with 6 parallel MPI-processes     *
           *              working on a common directory               *
           ************************************************************

-------------------------------------------------------------------------------------------
                                      ORCA LEAN-SCF
                              memory conserving SCF solver
-------------------------------------------------------------------------------------------

----------------------------------------D-I-I-S--------------------------------------------
Iteration    Energy (Eh)           Delta-E    RMSDP     MaxDP     DIISErr   Damp  Time(sec)
-------------------------------------------------------------------------------------------
               ***  Starting incremental Fock matrix formation  ***
    1    -1377.8359070191490900     0.00e+00  2.07e-03  5.70e-02  1.53e-01  0.700   8.4
    2    -1378.0553163517097346    -2.19e-01  1.48e-03  3.85e-02  7.04e-02  0.700   7.2
                               ***Turning on AO-DIIS***
    3    -1378.1509095344076741    -9.56e-02  7.03e-04  2.83e-02  2.98e-02  0.700   7.1
    4    -1378.2065485377329423    -5.56e-02  1.34e-03  6.54e-02  1.63e-02  0.000   6.6
    5    -1378.3256645271881098    -1.19e-01  1.97e-04  1.35e-02  4.68e-03  0.000   7.0
                              *** Initializing SOSCF ***
---------------------------------------S-O-S-C-F--------------------------------------
Iteration    Energy (Eh)           Delta-E    RMSDP     MaxDP     MaxGrad    Time(sec)
--------------------------------------------------------------------------------------
    6    -1378.3262518599653959    -5.87e-04  6.80e-05  5.15e-03  1.30e-03     6.3
               *** Restarting incremental Fock matrix formation ***
    7    -1378.3263062293935945    -5.44e-05  5.14e-05  2.03e-03  1.94e-04     8.7
    8    -1378.3262982760907107     7.95e-06  2.37e-05  1.10e-03  4.62e-04     5.3
    9    -1378.3263144328520866    -1.62e-05  1.18e-05  4.18e-04  9.69e-05     5.0
   10    -1378.3263136723003299     7.61e-07  7.02e-06  3.40e-04  1.22e-04     4.6
   11    -1378.3263149175181752    -1.25e-06  2.91e-06  1.47e-04  1.64e-05     4.3
   12    -1378.3263148884439033     2.91e-08  1.81e-06  7.00e-05  2.39e-05     4.1
   13    -1378.3263149556619283    -6.72e-08  4.95e-07  1.68e-05  4.28e-06     3.7
   14    -1378.3263149570561836    -1.39e-09  3.15e-07  1.10e-05  6.92e-06     3.1
                 **** Energy Check signals convergence ****

               *****************************************************
               *                     SUCCESS                       *
               *           SCF CONVERGED AFTER  14 CYCLES          *
               *****************************************************

             **** ENERGY FILE WAS UPDATED (data/geom_opt/78464/78464.en.tmp) ****

----------------
TOTAL SCF ENERGY
----------------

Total Energy       :      -1378.32631495705618 Eh          -37506.16581 eV

Components:
Nuclear Repulsion  :       2353.34142736215153 Eh           64037.67585 eV
Electronic Energy  :      -3731.66774231920772 Eh         -101543.84166 eV
One Electron Energy:      -6562.17611831298655 Eh         -178565.89029 eV
Two Electron Energy:       2830.50837599377883 Eh           77022.04864 eV

Virial components:
Potential Energy   :      -2745.38385573552159 Eh          -74705.69268 eV
Kinetic Energy     :       1367.05754077846541 Eh           37199.52687 eV
Virial Ratio       :          2.00824308695315

DFT components:
N(Alpha)           :       93.000062675521 electrons
N(Beta)            :       93.000062675521 electrons
N(Total)           :      186.000125351041 electrons
E(X)               :     -129.821852283804 Eh       
E(C)               :       -7.530592523744 Eh       
E(XC)              :     -137.352444807548 Eh       

---------------
SCF CONVERGENCE
---------------

  Last Energy change         ...    1.3943e-09  Tolerance :   1.0000e-08
  Last MAX-Density change    ...    1.1018e-05  Tolerance :   1.0000e-07
  Last RMS-Density change    ...    3.1517e-07  Tolerance :   5.0000e-09
  Last DIIS Error            ...    1.3047e-03  Tolerance :   5.0000e-07
  Last Orbital Gradient      ...    6.9231e-06  Tolerance :   1.0000e-05
  Last Orbital Rotation      ...    1.0645e-05  Tolerance :   1.0000e-05


----------------
ORBITAL ENERGIES
----------------

  NO   OCC          E(Eh)            E(eV) 
   0   2.0000     -77.038300     -2096.3187 
   1   2.0000     -19.160326      -521.3790 
   2   2.0000     -19.156905      -521.2859 
   3   2.0000     -19.135637      -520.7071 
   4   2.0000     -10.245920      -278.8057 
   5   2.0000     -10.244045      -278.7546 
   6   2.0000     -10.240557      -278.6597 
   7   2.0000     -10.237063      -278.5646 
   8   2.0000     -10.236254      -278.5426 
   9   2.0000     -10.223159      -278.1863 
  10   2.0000     -10.187426      -277.2140 
  11   2.0000     -10.185988      -277.1748 
  12   2.0000     -10.184565      -277.1361 
  13   2.0000     -10.183886      -277.1176 
  14   2.0000     -10.183785      -277.1149 
  15   2.0000     -10.182949      -277.0921 
  16   2.0000     -10.182518      -277.0804 
  17   2.0000     -10.182392      -277.0770 
  18   2.0000     -10.181740      -277.0592 
  19   2.0000     -10.181517      -277.0532 
  20   2.0000     -10.181148      -277.0431 
  21   2.0000     -10.180788      -277.0333 
  22   2.0000     -10.180238      -277.0184 
  23   2.0000     -10.175143      -276.8797 
  24   2.0000     -10.172697      -276.8132 
  25   2.0000      -6.533151      -177.7761 
  26   2.0000      -4.698710      -127.8584 
  27   2.0000      -4.698501      -127.8527 
  28   2.0000      -4.695701      -127.7765 
  29   2.0000      -1.047920       -28.5153 
  30   2.0000      -1.044949       -28.4345 
  31   2.0000      -1.032199       -28.0876 
  32   2.0000      -0.842672       -22.9303 
  33   2.0000      -0.836731       -22.7686 
  34   2.0000      -0.835183       -22.7265 
  35   2.0000      -0.761385       -20.7183 
  36   2.0000      -0.743865       -20.2416 
  37   2.0000      -0.739601       -20.1256 
  38   2.0000      -0.732553       -19.9338 
  39   2.0000      -0.730160       -19.8687 
  40   2.0000      -0.728533       -19.8244 
  41   2.0000      -0.687193       -18.6995 
  42   2.0000      -0.682680       -18.5767 
  43   2.0000      -0.671266       -18.2661 
  44   2.0000      -0.636831       -17.3290 
  45   2.0000      -0.600429       -16.3385 
  46   2.0000      -0.597688       -16.2639 
  47   2.0000      -0.585526       -15.9330 
  48   2.0000      -0.579159       -15.7597 
  49   2.0000      -0.575384       -15.6570 
  50   2.0000      -0.550941       -14.9919 
  51   2.0000      -0.527590       -14.3565 
  52   2.0000      -0.520828       -14.1725 
  53   2.0000      -0.506404       -13.7800 
  54   2.0000      -0.479457       -13.0467 
  55   2.0000      -0.476972       -12.9791 
  56   2.0000      -0.472870       -12.8674 
  57   2.0000      -0.469883       -12.7862 
  58   2.0000      -0.468878       -12.7588 
  59   2.0000      -0.468198       -12.7403 
  60   2.0000      -0.465984       -12.6801 
  61   2.0000      -0.456977       -12.4350 
  62   2.0000      -0.450419       -12.2565 
  63   2.0000      -0.437240       -11.8979 
  64   2.0000      -0.433869       -11.8062 
  65   2.0000      -0.429252       -11.6805 
  66   2.0000      -0.419640       -11.4190 
  67   2.0000      -0.413823       -11.2607 
  68   2.0000      -0.411744       -11.2041 
  69   2.0000      -0.402041       -10.9401 
  70   2.0000      -0.399164       -10.8618 
  71   2.0000      -0.379021       -10.3137 
  72   2.0000      -0.376307       -10.2398 
  73   2.0000      -0.371576       -10.1111 
  74   2.0000      -0.364145        -9.9089 
  75   2.0000      -0.358723        -9.7613 
  76   2.0000      -0.354827        -9.6553 
  77   2.0000      -0.351295        -9.5592 
  78   2.0000      -0.345453        -9.4002 
  79   2.0000      -0.337765        -9.1911 
  80   2.0000      -0.334000        -9.0886 
  81   2.0000      -0.321350        -8.7444 
  82   2.0000      -0.319589        -8.6965 
  83   2.0000      -0.316152        -8.6029 
  84   2.0000      -0.313984        -8.5439 
  85   2.0000      -0.267050        -7.2668 
  86   2.0000      -0.262698        -7.1484 
  87   2.0000      -0.255861        -6.9623 
  88   2.0000      -0.246451        -6.7063 
  89   2.0000      -0.238491        -6.4897 
  90   2.0000      -0.225971        -6.1490 
  91   2.0000      -0.219951        -5.9852 
  92   2.0000      -0.186592        -5.0774 
  93   0.0000      -0.021493        -0.5848 
  94   0.0000      -0.014846        -0.4040 
  95   0.0000      -0.005112        -0.1391 
  96   0.0000       0.002868         0.0780 
  97   0.0000       0.008711         0.2370 
  98   0.0000       0.014597         0.3972 
  99   0.0000       0.062141         1.6910 
 100   0.0000       0.066021         1.7965 
 101   0.0000       0.069837         1.9004 
 102   0.0000       0.073546         2.0013 
 103   0.0000       0.080403         2.1879 
*Only the first 10 virtual orbitals were printed.

                    ********************************
                    * MULLIKEN POPULATION ANALYSIS *
                    ********************************

-----------------------
MULLIKEN ATOMIC CHARGES
-----------------------
   0 C :    0.198788
   1 O :   -0.324308
   2 C :    0.219809
   3 C :   -0.076017
   4 C :    0.025277
   5 C :    0.023138
   6 C :   -0.001213
   7 C :   -0.153915
   8 P :    0.405993
   9 C :   -0.156927
  10 C :   -0.009687
  11 C :    0.027831
  12 C :    0.024368
  13 C :   -0.073682
  14 C :    0.205145
  15 O :   -0.326939
  16 C :    0.199495
  17 C :   -0.158782
  18 C :    0.009779
  19 C :    0.036721
  20 C :    0.026007
  21 C :    0.006123
  22 C :    0.121167
  23 O :   -0.341096
  24 C :    0.222734
  25 H :    0.026970
  26 H :    0.019296
  27 H :    0.018667
  28 H :   -0.038314
  29 H :   -0.024515
  30 H :   -0.031818
  31 H :   -0.005233
  32 H :   -0.004469
  33 H :   -0.030072
  34 H :   -0.025035
  35 H :   -0.037782
  36 H :    0.029998
  37 H :    0.018666
  38 H :    0.016553
  39 H :   -0.019056
  40 H :   -0.025855
  41 H :   -0.021532
  42 H :   -0.031069
  43 H :   -0.004955
  44 H :    0.022441
  45 H :    0.017303
Sum of atomic charges:   -0.0000000

--------------------------------
MULLIKEN REDUCED ORBITAL CHARGES
--------------------------------
  0 C s       :     2.995058  s :     2.995058
      pz      :     0.996522  p :     2.752894
      px      :     0.893595
      py      :     0.862777
      dz2     :     0.006958  d :     0.053260
      dxz     :     0.012207
      dyz     :     0.008372
      dx2y2   :     0.009951
      dxy     :     0.015772

  1 O s       :     3.751804  s :     3.751804
      pz      :     1.477580  p :     4.556211
      px      :     1.505368
      py      :     1.573262
      dz2     :     0.004077  d :     0.016293
      dxz     :     0.003082
      dyz     :     0.002933
      dx2y2   :     0.002418
      dxy     :     0.003782

  2 C s       :     3.010665  s :     3.010665
      pz      :     0.812687  p :     2.697681
      px      :     0.943464
      py      :     0.941530
      dz2     :     0.018975  d :     0.071845
      dxz     :     0.015309
      dyz     :     0.014569
      dx2y2   :     0.011518
      dxy     :     0.011473

  3 C s       :     3.240715  s :     3.240715
      pz      :     0.970972  p :     2.802539
      px      :     0.954052
      py      :     0.877515
      dz2     :     0.007199  d :     0.032763
      dxz     :     0.005360
      dyz     :     0.008518
      dx2y2   :     0.005039
      dxy     :     0.006647

  4 C s       :     3.157703  s :     3.157703
      pz      :     0.930405  p :     2.780766
      px      :     0.975593
      py      :     0.874768
      dz2     :     0.007384  d :     0.036253
      dxz     :     0.006092
      dyz     :     0.009051
      dx2y2   :     0.007894
      dxy     :     0.005833

  5 C s       :     3.153655  s :     3.153655
      pz      :     0.877596  p :     2.788007
      px      :     0.942161
      py      :     0.968251
      dz2     :     0.006131  d :     0.035200
      dxz     :     0.005670
      dyz     :     0.008167
      dx2y2   :     0.007635
      dxy     :     0.007598

  6 C s       :     3.224182  s :     3.224182
      pz      :     0.940670  p :     2.741491
      px      :     0.940082
      py      :     0.860739
      dz2     :     0.008262  d :     0.035540
      dxz     :     0.005820
      dyz     :     0.008798
      dx2y2   :     0.005200
      dxy     :     0.007460

  7 C s       :     3.086089  s :     3.086089
      pz      :     0.987122  p :     3.034005
      px      :     1.026712
      py      :     1.020171
      dz2     :     0.007863  d :     0.033821
      dxz     :     0.004945
      dyz     :     0.008544
      dx2y2   :     0.006258
      dxy     :     0.006211

  8 P s       :     5.644007  s :     5.644007
      pz      :     3.326342  p :     8.775861
      px      :     2.724586
      py      :     2.724933
      dz2     :     0.014619  d :     0.174139
      dxz     :     0.031434
      dyz     :     0.039020
      dx2y2   :     0.040252
      dxy     :     0.048814

  9 C s       :     3.085298  s :     3.085298
      pz      :     1.024441  p :     3.037844
      px      :     1.020976
      py      :     0.992426
      dz2     :     0.004716  d :     0.033786
      dxz     :     0.006448
      dyz     :     0.005092
      dx2y2   :     0.008272
      dxy     :     0.009258

 10 C s       :     3.236273  s :     3.236273
      pz      :     0.961672  p :     2.737988
      px      :     0.835095
      py      :     0.941222
      dz2     :     0.004949  d :     0.035426
      dxz     :     0.004915
      dyz     :     0.005517
      dx2y2   :     0.009645
      dxy     :     0.010399

 11 C s       :     3.149358  s :     3.149358
      pz      :     0.969902  p :     2.787600
      px      :     0.958379
      py      :     0.859319
      dz2     :     0.003073  d :     0.035210
      dxz     :     0.007353
      dyz     :     0.003990
      dx2y2   :     0.010979
      dxy     :     0.009815

 12 C s       :     3.156560  s :     3.156560
      pz      :     0.963933  p :     2.782784
      px      :     0.886039
      py      :     0.932812
      dz2     :     0.004420  d :     0.036288
      dxz     :     0.006213
      dyz     :     0.005180
      dx2y2   :     0.009839
      dxy     :     0.010637

 13 C s       :     3.239186  s :     3.239186
      pz      :     1.036781  p :     2.801654
      px      :     0.813029
      py      :     0.951843
      dz2     :     0.004730  d :     0.032842
      dxz     :     0.005109
      dyz     :     0.004918
      dx2y2   :     0.008255
      dxy     :     0.009829

 14 C s       :     3.020890  s :     3.020890
      pz      :     0.917119  p :     2.702102
      px      :     0.970440
      py      :     0.814543
      dz2     :     0.010982  d :     0.071863
      dxz     :     0.009930
      dyz     :     0.014644
      dx2y2   :     0.019946
      dxy     :     0.016361

 15 O s       :     3.750134  s :     3.750134
      pz      :     1.680747  p :     4.560486
      px      :     1.467630
      py      :     1.412109
      dz2     :     0.002530  d :     0.016319
      dxz     :     0.002036
      dyz     :     0.003514
      dx2y2   :     0.005371
      dxy     :     0.002868

 16 C s       :     2.993859  s :     2.993859
      pz      :     1.011928  p :     2.753400
      px      :     0.770005
      py      :     0.971467
      dz2     :     0.006788  d :     0.053247
      dxz     :     0.013347
      dyz     :     0.007506
      dx2y2   :     0.012027
      dxy     :     0.013580

 17 C s       :     3.097199  s :     3.097199
      pz      :     0.956712  p :     3.026819
      px      :     1.030000
      py      :     1.040107
      dz2     :     0.008726  d :     0.034764
      dxz     :     0.009833
      dyz     :     0.007888
      dx2y2   :     0.003930
      dxy     :     0.004386

 18 C s       :     3.238192  s :     3.238192
      pz      :     0.926477  p :     2.716752
      px      :     0.891879
      py      :     0.898397
      dz2     :     0.008487  d :     0.035276
      dxz     :     0.009672
      dyz     :     0.008034
      dx2y2   :     0.004297
      dxy     :     0.004786

 19 C s       :     3.152322  s :     3.152322
      pz      :     0.819409  p :     2.776040
      px      :     0.970616
      py      :     0.986014
      dz2     :     0.009270  d :     0.034917
      dxz     :     0.007845
      dyz     :     0.005728
      dx2y2   :     0.006206
      dxy     :     0.005869

 20 C s       :     3.161251  s :     3.161251
      pz      :     0.946388  p :     2.776734
      px      :     0.892365
      py      :     0.937981
      dz2     :     0.009936  d :     0.036008
      dxz     :     0.009365
      dyz     :     0.008382
      dx2y2   :     0.003577
      dxy     :     0.004747

 21 C s       :     3.245778  s :     3.245778
      pz      :     0.823823  p :     2.714975
      px      :     0.957699
      py      :     0.933453
      dz2     :     0.007967  d :     0.033124
      dxz     :     0.008613
      dyz     :     0.007915
      dx2y2   :     0.004058
      dxy     :     0.004572

 22 C s       :     3.045640  s :     3.045640
      pz      :     0.842284  p :     2.758801
      px      :     0.942212
      py      :     0.974305
      dz2     :     0.022360  d :     0.074392
      dxz     :     0.019674
      dyz     :     0.017865
      dx2y2   :     0.008055
      dxy     :     0.006438

 23 O s       :     3.754116  s :     3.754116
      pz      :     1.226780  p :     4.570016
      px      :     1.664165
      py      :     1.679071
      dz2     :     0.004614  d :     0.016964
      dxz     :     0.004047
      dyz     :     0.003340
      dx2y2   :     0.001884
      dxy     :     0.003080

 24 C s       :     2.968424  s :     2.968424
      pz      :     0.924191  p :     2.754905
      px      :     0.903371
      py      :     0.927342
      dz2     :     0.012226  d :     0.053937
      dxz     :     0.009157
      dyz     :     0.008665
      dx2y2   :     0.014841
      dxy     :     0.009049

 25 H s       :     0.951158  s :     0.951158
      pz      :     0.011425  p :     0.021872
      px      :     0.006153
      py      :     0.004295

 26 H s       :     0.957991  s :     0.957991
      pz      :     0.005784  p :     0.022714
      px      :     0.006025
      py      :     0.010905

 27 H s       :     0.958612  s :     0.958612
      pz      :     0.009256  p :     0.022721
      px      :     0.009305
      py      :     0.004160

 28 H s       :     1.014523  s :     1.014523
      pz      :     0.004977  p :     0.023790
      px      :     0.008530
      py      :     0.010283

 29 H s       :     1.001491  s :     1.001491
      pz      :     0.006954  p :     0.023024
      px      :     0.004184
      py      :     0.011886

 30 H s       :     1.008732  s :     1.008732
[...]
      dxz     :     0.007610
      dyz     :     0.008454
      dx2y2   :     0.002613
      dxy     :     0.003253

 24 C s       :     2.851255  s :     2.851255
      pz      :     0.934905  p :     2.944327
      px      :     1.037428
      py      :     0.971994
      dz2     :     0.026836  d :     0.121948
      dxz     :     0.019043
      dyz     :     0.025948
      dx2y2   :     0.037260
      dxy     :     0.012861

 25 H s       :     0.912348  s :     0.912348
      pz      :     0.027201  p :     0.062133
      px      :     0.017726
      py      :     0.017207

 26 H s       :     0.923384  s :     0.923384
      pz      :     0.015875  p :     0.064040
      px      :     0.010733
      py      :     0.037432

 27 H s       :     0.921532  s :     0.921532
      pz      :     0.032203  p :     0.064112
      px      :     0.020764
      py      :     0.011145

 28 H s       :     0.905179  s :     0.905179
      pz      :     0.015082  p :     0.070278
      px      :     0.029339
      py      :     0.025857

 29 H s       :     0.908237  s :     0.908237
      pz      :     0.020273  p :     0.066257
      px      :     0.012015
      py      :     0.033969

 30 H s       :     0.909397  s :     0.909397
      pz      :     0.027915  p :     0.066978
      px      :     0.026236
      py      :     0.012827

 31 H s       :     0.902689  s :     0.902689
      pz      :     0.013471  p :     0.069311
      px      :     0.028666
      py      :     0.027174

 32 H s       :     0.899929  s :     0.899929
      pz      :     0.014295  p :     0.069925
      px      :     0.040975
      py      :     0.014654

 33 H s       :     0.908094  s :     0.908094
      pz      :     0.021833  p :     0.067004
      px      :     0.011444
      py      :     0.033727

 34 H s       :     0.907790  s :     0.907790
      pz      :     0.016278  p :     0.066224
      px      :     0.029936
      py      :     0.020010

 35 H s       :     0.904878  s :     0.904878
      pz      :     0.016572  p :     0.070322
      px      :     0.038093
      py      :     0.015657

 36 H s       :     0.909130  s :     0.909130
      pz      :     0.019860  p :     0.062307
      px      :     0.008762
      py      :     0.033686

 37 H s       :     0.922819  s :     0.922819
      pz      :     0.022322  p :     0.064038
      px      :     0.019171
      py      :     0.022546

 38 H s       :     0.923720  s :     0.923720
      pz      :     0.032910  p :     0.063944
      px      :     0.017845
      py      :     0.013189

 39 H s       :     0.901855  s :     0.901855
      pz      :     0.022326  p :     0.068969
      px      :     0.020785
      py      :     0.025858

 40 H s       :     0.907828  s :     0.907828
      pz      :     0.038520  p :     0.066810
      px      :     0.014820
      py      :     0.013470

 41 H s       :     0.907257  s :     0.907257
      pz      :     0.014743  p :     0.066409
      px      :     0.031338
      py      :     0.020328

 42 H s       :     0.903190  s :     0.903190
      pz      :     0.023183  p :     0.067887
      px      :     0.019157
      py      :     0.025547

 43 H s       :     0.934240  s :     0.934240
      pz      :     0.010144  p :     0.063118
      px      :     0.042463
      py      :     0.010511

 44 H s       :     0.915930  s :     0.915930
      pz      :     0.034060  p :     0.062103
      px      :     0.016114
      py      :     0.011929

 45 H s       :     0.926538  s :     0.926538
      pz      :     0.011512  p :     0.066663
      px      :     0.013943
      py      :     0.041208



                      *****************************
                      * MAYER POPULATION ANALYSIS *
                      *****************************

  NA   - Mulliken gross atomic population
  ZA   - Total nuclear charge
  QA   - Mulliken gross atomic charge
  VA   - Mayer's total valence
  BVA  - Mayer's bonded valence
  FA   - Mayer's free valence

  ATOM       NA         ZA         QA         VA         BVA        FA
  0 C      5.8105     6.0000     0.1895     3.9306     3.9306    -0.0000
  1 O      8.3202     8.0000    -0.3202     2.2299     2.2299    -0.0000
  2 C      5.7833     6.0000     0.2167     3.9588     3.9588    -0.0000
  3 C      6.0763     6.0000    -0.0763     3.8103     3.8103    -0.0000
  4 C      5.9787     6.0000     0.0213     3.8236     3.8236    -0.0000
  5 C      5.9716     6.0000     0.0284     3.7930     3.7930    -0.0000
  6 C      6.0138     6.0000    -0.0138     3.9335     3.9335    -0.0000
  7 C      6.1633     6.0000    -0.1633     3.8266     3.8266    -0.0000
  8 P     14.5524    15.0000     0.4476     2.9785     2.9785    -0.0000
  9 C      6.1775     6.0000    -0.1775     3.7933     3.7933    -0.0000
 10 C      6.0050     6.0000    -0.0050     3.9225     3.9225    -0.0000
 11 C      5.9692     6.0000     0.0308     3.7942     3.7942    -0.0000
 12 C      5.9762     6.0000     0.0238     3.8236     3.8236    -0.0000
 13 C      6.0757     6.0000    -0.0757     3.8062     3.8062     0.0000
 14 C      5.8055     6.0000     0.1945     3.9845     3.9845    -0.0000
 15 O      8.3158     8.0000    -0.3158     2.2318     2.2318    -0.0000
 16 C      5.8111     6.0000     0.1889     3.9300     3.9300    -0.0000
 17 C      6.1810     6.0000    -0.1810     3.8107     3.8107    -0.0000
 18 C      5.9915     6.0000     0.0085     3.8738     3.8738    -0.0000
 19 C      5.9673     6.0000     0.0327     3.7889     3.7889    -0.0000
 20 C      5.9775     6.0000     0.0225     3.7711     3.7711    -0.0000
 21 C      6.0013     6.0000    -0.0013     3.8208     3.8208    -0.0000
 22 C      5.8695     6.0000     0.1305     4.0751     4.0751    -0.0000
 23 O      8.3453     8.0000    -0.3453     2.1361     2.1361    -0.0000
 24 C      5.7865     6.0000     0.2135     3.8796     3.8796    -0.0000
 25 H      0.9694     1.0000     0.0306     0.9856     0.9856    -0.0000
 26 H      0.9809     1.0000     0.0191     0.9837     0.9837     0.0000
 27 H      0.9794     1.0000     0.0206     0.9875     0.9875    -0.0000
 28 H      1.0375     1.0000    -0.0375     0.9942     0.9942     0.0000
 29 H      1.0213     1.0000    -0.0213     0.9770     0.9770     0.0000
 30 H      1.0284     1.0000    -0.0284     0.9773     0.9773    -0.0000
 31 H      1.0063     1.0000    -0.0063     0.9907     0.9907    -0.0000
 32 H      1.0010     1.0000    -0.0010     0.9915     0.9915     0.0000
 33 H      1.0257     1.0000    -0.0257     0.9777     0.9777    -0.0000
 34 H      1.0205     1.0000    -0.0205     0.9771     0.9771    -0.0000
 35 H      1.0367     1.0000    -0.0367     0.9946     0.9946     0.0000
 36 H      0.9642     1.0000     0.0358     0.9876     0.9876    -0.0000
 37 H      0.9803     1.0000     0.0197     0.9849     0.9849    -0.0000
 38 H      0.9833     1.0000     0.0167     0.9861     0.9861    -0.0000
 39 H      1.0087     1.0000    -0.0087     0.9946     0.9946    -0.0000
 40 H      1.0229     1.0000    -0.0229     0.9774     0.9774    -0.0000
 41 H      1.0185     1.0000    -0.0185     0.9773     0.9773     0.0000
 42 H      1.0314     1.0000    -0.0314     0.9932     0.9932     0.0000
 43 H      1.0075     1.0000    -0.0075     0.9875     0.9875     0.0000
 44 H      0.9758     1.0000     0.0242     0.9883     0.9883     0.0000
 45 H      0.9741     1.0000     0.0259     1.0123     1.0123     0.0000

  Mayer bond orders larger than 0.100000
B(  0-C ,  1-O ) :   0.9671 B(  0-C , 25-H ) :   0.9753 B(  0-C , 26-H ) :   0.9652 
B(  0-C , 27-H ) :   0.9652 B(  1-O ,  2-C ) :   1.1255 B(  2-C ,  3-C ) :   1.3489 
B(  2-C ,  7-C ) :   1.3462 B(  3-C ,  4-C ) :   1.3403 B(  3-C , 28-H ) :   0.9874 
B(  4-C ,  5-C ) :   1.3902 B(  4-C , 29-H ) :   0.9808 B(  5-C ,  6-C ) :   1.3533 
B(  5-C , 30-H ) :   0.9859 B(  6-C ,  7-C ) :   1.4329 B(  6-C , 31-H ) :   0.9725 
B(  7-C ,  8-P ) :   0.9175 B(  8-P ,  9-C ) :   0.9051 B(  8-P , 17-C ) :   0.9139 
B(  9-C , 10-C ) :   1.4307 B(  9-C , 14-C ) :   1.3459 B( 10-C , 11-C ) :   1.3554 
B( 10-C , 32-H ) :   0.9757 B( 11-C , 12-C ) :   1.3906 B( 11-C , 33-H ) :   0.9857 
B( 12-C , 13-C ) :   1.3396 B( 12-C , 34-H ) :   0.9804 B( 13-C , 14-C ) :   1.3429 
B( 13-C , 35-H ) :   0.9874 B( 14-C , 15-O ) :   1.1371 B( 15-O , 16-C ) :   0.9658 
B( 16-C , 36-H ) :   0.9763 B( 16-C , 37-H ) :   0.9655 B( 16-C , 38-H ) :   0.9642 
B( 17-C , 18-C ) :   1.3658 B( 17-C , 22-C ) :   1.3927 B( 18-C , 19-C ) :   1.3838 
B( 18-C , 39-H ) :   0.9748 B( 19-C , 20-C ) :   1.3595 B( 19-C , 40-H ) :   0.9878 
B( 20-C , 21-C ) :   1.3440 B( 20-C , 41-H ) :   0.9807 B( 21-C , 22-C ) :   1.3975 
B( 21-C , 42-H ) :   0.9857 B( 22-C , 23-O ) :   1.0862 B( 23-O , 24-C ) :   0.9451 
B( 24-C , 43-H ) :   0.9624 B( 24-C , 44-H ) :   0.9785 B( 24-C , 45-H ) :   0.9570 


-------
TIMINGS
-------

Total SCF time: 0 days 0 hours 0 min 34 sec 

Total time                  ....      34.626 sec
Sum of individual times     ....      34.508 sec  ( 99.7%)

SCF preparation             ....       0.155 sec  (  0.4%)
Fock matrix formation       ....      33.627 sec  ( 97.1%)
  Startup                   ....       0.029 sec  (  0.1% of F)
  Exchange formation        ....      27.056 sec  ( 80.5% of F)
  Split-RI-J                ....       2.552 sec  (  7.6% of F)
  XC integration            ....       3.876 sec  ( 11.5% of F)
    Basis function eval.    ....       1.200 sec  ( 31.0% of XC)
    Density eval.           ....       1.245 sec  ( 32.1% of XC)
    XC-Functional eval.     ....       0.094 sec  (  2.4% of XC)
    XC-Potential eval.      ....       0.848 sec  ( 21.9% of XC)
Diagonalization             ....       0.000 sec  (  0.0%)
Density matrix formation    ....       0.076 sec  (  0.2%)
Total Energy calculation    ....       0.028 sec  (  0.1%)
Population analysis         ....       0.143 sec  (  0.4%)
Orbital Transformation      ....       0.069 sec  (  0.2%)
Orbital Orthonormalization  ....       0.000 sec  (  0.0%)
DIIS solution               ....       0.079 sec  (  0.2%)
SOSCF solution              ....       0.331 sec  (  1.0%)
Finished LeanSCF after  34.7 sec

Maximum memory used throughout the entire LEANSCF-calculation: 52.8 MB


-------------------------------------------------------------------------------
                          DFT DISPERSION CORRECTION                            
                                                                               
                              DFTD3 V3.1  Rev 1                                
                          USING Becke-Johnson damping                          
-------------------------------------------------------------------------------
The B3LYP functional is recognized
Active option DFTDOPT                   ...         4   

molecular C6(AA) [au] = 25978.554589 


            DFT-D V3
 parameters
 s6 scaling factor         :     1.0000 
 a1 scaling factor         :     0.3981 
 s8 scaling factor         :     1.9889 
 a2 scaling factor         :     4.4211 
 ad hoc parameters k1-k3   :    16.0000     1.3333    -4.0000 

 Edisp/kcal,au: -70.812932241732  -0.112847578586 
 E6   /kcal   : -32.697825773 
 E8   /kcal   : -38.115106469 
 % E8         :  53.825064522 

-------------------------   ----------------
Dispersion correction           -0.112847579
-------------------------   ----------------


-------------------------   --------------------
FINAL SINGLE POINT ENERGY     -1378.447840243017
-------------------------   --------------------

                                *** OPTIMIZATION RUN DONE ***



           ************************************************************
           *        Program running with 6 parallel MPI-processes     *
           *              working on a common directory               *
           ************************************************************

------------------------------------------------------------------------------
                              ORCA PROPERTY CALCULATIONS
------------------------------------------------------------------------------

GBWName                                 ... data/geom_opt/78464/78464.gbw
Number of atoms                         ...     46
Number of basis functions               ...    459
Max core memory                         ...   1024 MB

Electric properties:
Dipole moment                           ... YES
Quadrupole moment                       ...  NO
Static polarizability (Dipole/Dipole)   ...  NO
Static polarizability (Dipole/Quad.)    ...  NO
Static polarizability (Quad./Quad.)     ...  NO
Static polarizability (Velocity)        ...  NO

Atomic electric properties:
Dipole moment                           ...  NO
Quadrupole moment                       ...  NO
Static polarizability                   ...  NO

Choice of electric origin               ... Center of mass
Position of electric origin             ...    -0.062224    -0.218598    -0.067453

General magnetic properties:
Magnetizability                         ...  NO

EPR properties:
g-Tensor (aka g-matrix)                 ...  NO
Zero-Field splitting spin-orbit         ...  NO
Zero-field splitting spin-spin          ...  NO
Hyperfine couplings                     ...  NO (   0 nuclei)
Quadrupole couplings                    ...  NO (   0 nuclei)
Contact density                         ...  NO (   0 nuclei)

NMR properties:
Chemical shifts                         ...  NO (   0 nuclei)
Spin-rotation constants                 ...  NO (   0 nuclei)
Spin-spin couplings                     ...  NO (   0 nuclei,    0 pairs)

Choice of magnetic origin               ... GIAO
Position of magnetic origin             ...     0.000000     0.000000     0.000000

Properties with geometric perturbations:
SCF Hessian                             ...  NO
IR spectrum                             ...  NO
VCD spectrum                            ...  NO
X-ray spectroscopy properties:
SCF XES/XAS/RIXS spectra                ...  NO


-------------
DIPOLE MOMENT
-------------

Method             : SCF
Type of density    : Electron Density
Multiplicity       :   1
Irrep              :   0
Energy             : -1378.3349926644305015 Eh
Relativity type    : 
Basis              : AO
                                X                 Y                 Z
Electronic contribution:     -1.478840910      -4.761482747       0.247054260
Nuclear contribution   :      1.624969928       5.639373060      -0.209145128
                        -----------------------------------------
Total Dipole Moment    :      0.146129018       0.877890312       0.037909132
                        -----------------------------------------
Magnitude (a.u.)       :      0.890776174
Magnitude (Debye)      :      2.264173099



--------------------
Rotational spectrum 
--------------------
 
Rotational constants in cm-1:             0.008216             0.006763             0.004908 
Rotational constants in MHz :           246.305344           202.760408           147.152530 

Dipole components along the rotational axes: 
x,y,z [a.u.] :    -0.174209     0.871714    -0.056994 
x,y,z [Debye]:    -0.442805     2.215720    -0.144867 

 

Dipole moment calculation done in   0.0 sec 

Maximum memory used throughout the entire PROP-calculation: 27.8 MB

--------------------------------
SUGGESTED CITATIONS FOR THIS RUN
--------------------------------

Below you find a list of papers that are relevant to this ORCA run
We neither can nor want to force you to cite these papers, but we appreciate if you do
You receive ORCA, which is the product of decades of hard work by many enthusiastic individuals, for free
The only thing we kindly ask in return is that you cite our papers,
We deeply appreciate it, if you show your appreciation for ORCA by not just citing the generic ORCA reference.

Please note that relegating all ORCA citations to the supporting information does *not* help us.
SI sections are not indexed - citations you put there will not count into any citation statistics
But we need these citations in order to attract the funding resources that allow us to do what we are doing

Therefore, if you are a happy ORCA user, please consider citing a few of the papers listed below in the main body of your paper

In addition to the list printed below, the program has created the file data/geom_opt/78464/78464.bibtex that contains the list in bibtex format
You can import this file easily into all common literature databanks and citation aid programs


List of essential papers. We consider these as the minimum necessary citations

  1. Neese,F.
     Software update: the ORCA program system, version 5.0
     WIRES Comput. Molec. Sci., 2022 12(1)e1606
     doi.org/10.1002/wcms.1606

List of papers to cite with high priority. The work reported in these papers was absolutely
necessary for this run to complete.
Our perspective: the developers of density functionals and basis sets usually get cited in chemistry papers
Good! But without the algorithms to do something with them, the functionals or basis sets would not do anything.
Hence, in our opinion, the algorithm design and method developments papers are equally worthy of getting cited

  1. Neese,F.
     An improvement of the resolution of the identity approximation for the formation of the Coulomb matrix
     J. Comp. Chem., 2003 24(14)1740-1747
     doi.org/10.1002/jcc.10318
  2. Neese,F.
     The SHARK Integral Generation and Digestion System
     J. Comp. Chem., 2022  1-16
     doi.org/10.1002/jcc.26942
  3. Grimme,S.; Antony,J.; Ehrlich,S.; Krieg,H.
     A consistent and accurate ab initio parametrization of density functional dispersion correction (DFT-D) for the 94 elements H-Pu
     J. Chem. Phys., 2010 132 154104-XXXX
     doi.org/10.1063/1.3382344
  4. Grimme,S.; Ehrlich,S.; Goerigk,L.
     Effect of the damping function in dispersion corrected density functional theory
     J. Comput. Chem., 2011 32(7)1456-1465
     doi.org/10.1002/jcc.21759

List of suggested additional citations. These are papers that are important in the 'surrounding' of 
of this run, or papers that preceded the highly important papers. If you like your results we are grateful for a citation.

  1. Neese,F.
     The ORCA program system
     WIRES Comput. Molec. Sci., 2012 2(1)73-78
     doi.org/10.1002/wcms.81
  2. Neese,F.
     Software update: the ORCA program system, version 4.0
     WIRES Comput. Molec. Sci., 2018 8(1)1-6
     doi.org/10.1002/wcms.1327
  3. Neese,F.; Wennmohs,F.; Becker,U.; Riplinger,C.
     The ORCA quantum chemistry program package
     J. Chem. Phys., 2020 152 Art. No. L224108
     doi.org/10.1063/5.0004608

List of optional additional citations

  1. Neese,F.
     Approximate second-order SCF convergence for spin unrestricted wavefunctions
     Chem. Phys. Lett., 2000 325(1-3)93-98
     doi.org/10.1016/s0009-2614(00)00662-x

Timings for individual modules:

Sum of individual times          ...     1427.506 sec (=  23.792 min)
Startup calculation              ...       30.070 sec (=   0.501 min)   2.1 %
SCF iterations                   ...      952.891 sec (=  15.882 min)  66.8 %
Property calculations            ...        0.199 sec (=   0.003 min)   0.0 %
SCF Gradient evaluation          ...      443.955 sec (=   7.399 min)  31.1 %
Geometry relaxation              ...        0.391 sec (=   0.007 min)   0.0 %
                             ****ORCA TERMINATED NORMALLY****
TOTAL RUN TIME: 0 days 0 hours 23 minutes 50 seconds 800 msec
