
                                 *****************
                                 * O   R   C   A *
                                 *****************

                                            #,                                       
                                            ###                                      
                                            ####                                     
                                            #####                                    
                                            ######                                   
                                           ########,                                 
                                     ,,################,,,,,                         
                               ,,#################################,,                 
                          ,,##########################################,,             
                       ,#########################################, ''#####,          
                    ,#############################################,,   '####,        
                  ,##################################################,,,,####,       
                ,###########''''           ''''###############################       
              ,#####''   ,,,,##########,,,,          '''####'''          '####       
            ,##' ,,,,###########################,,,                        '##       
           ' ,,###''''                  '''############,,,                           
         ,,##''                                '''############,,,,        ,,,,,,###''
      ,#''                                            '''#######################'''  
     '                                                          ''''####''''         
             ,#######,   #######,   ,#######,      ##                                
            ,#'     '#,  ##    ##  ,#'     '#,    #''#        ,####,   ,####,        
            ##       ##  ##   ,#'  ##            #'  '#       #'       #'  '#        
            ##       ##  #######   ##           ,######,      #####,   #    #        
            '#,     ,#'  ##    ##  '#,     ,#' ,#      #,     #,   #   #,  ,#        
             '#######'   ##     ##  '#######'  #'      '#     '####' # '####'        



                #########################################################
                #                        -***-                          #
                #          Department of theory and spectroscopy        #
                #                                                       #
                #                      Frank Neese                      #
                #                                                       #
                #     Directorship, Architecture, Infrastructure        #
                #                    SHARK, DRIVERS                     #
                #        Core code/Algorithms in most modules           #
                #                                                       #
                #        Max Planck Institute fuer Kohlenforschung      #
                #                Kaiser Wilhelm Platz 1                 #
                #                 D-45470 Muelheim/Ruhr                 #
                #                      Germany                          #
                #                                                       #
                #                  All rights reserved                  #
                #                        -***-                          #
                #########################################################


                         Program Version 6.0.0  -   RELEASE   -


 With contributions from (in alphabetic order):
   Daniel Aravena         : Magnetic Suceptibility
   Michael Atanasov       : Ab Initio Ligand Field Theory (pilot matlab implementation)
   Alexander A. Auer      : GIAO ZORA, VPT2 properties, NMR spectrum
   Ute Becker             : All parallelization in ORCA, NUMFREQ, NUMCALC
   Giovanni Bistoni       : ED, misc. LED, open-shell LED, HFLD
   Martin Brehm           : Molecular dynamics
   Dmytro Bykov           : pre 5.0 version of the SCF Hessian
   Marcos Casanova-Páez   : Triplet and SCS-CIS(D). UHF-(DLPNO)-IP/EA/STEOM-CCSD. UHF-CVS-IP/STEOM-CCSD
   Vijay G. Chilkuri      : MRCI spin determinant printing, contributions to CSF-ICE
   Pauline Colinet        : FMM embedding
   Dipayan Datta          : RHF DLPNO-CCSD density
   Achintya Kumar Dutta   : EOM-CC, STEOM-CC
   Nicolas Foglia         : Exact transition moments, OPA infrastructure, MCD improvements
   Dmitry Ganyushin       : Spin-Orbit,Spin-Spin,Magnetic field MRCI
   Miquel Garcia          : C-PCM and meta-GGA Hessian, CCSD/C-PCM, Gaussian charge scheme
   Tiago L. C. Gouveia    : GS-ROHF, GS-ROCIS
   Yang Guo               : DLPNO-NEVPT2, F12-NEVPT2, CIM, IAO-localization
   Andreas Hansen         : Spin unrestricted coupled pair/coupled cluster methods
   Ingolf Harden          : AUTO-CI MPn and infrastructure 
   Benjamin Helmich-Paris : MC-RPA, TRAH-(SCF,CASSCF), AVAS, COSX integrals, SCF dyn. polar.
   Lee Huntington         : MR-EOM, pCC
   Robert Izsak           : Overlap fitted RIJCOSX, COSX-SCS-MP3, EOM
   Riya Kayal             : Wick's Theorem for AUTO-CI, AUTO-CI UHF-CCSDT
   Emily Kempfer          : AUTO-CI, RHF CISDT and CCSDT
   Christian Kollmar      : KDIIS, OOCD, Brueckner-CCSD(T), CCSD density, CASPT2, CASPT2-K, improved NEVPT2
   Axel Koslowski         : Symmetry handling
   Simone Kossmann        : Meta GGA functionals, TD-DFT gradient, OOMP2, (MP2 Hessian; deprecated post 5.0)
   Lucas Lang             : DCDCAS
   Marvin Lechner         : AUTO-CI (C++ implementation), FIC-MRCC
   Spencer Leger          : CASSCF response
   Dagmar Lenk            : GEPOL surface, SMD, ORCA-2-JSON
   Dimitrios Liakos       : Extrapolation schemes; Compound Job, initial MDCI parallelization
   Dimitrios Manganas     : Further ROCIS development; embedding schemes. LFT, Crystal Embedding
   Dimitrios Pantazis     : SARC Basis sets
   Anastasios Papadopoulos: AUTO-CI, single reference methods and gradients
   Taras Petrenko         : pre 6.0 DFT Hessian and TD-DFT gradient, (ASA, deprecated), ECA, 1-Electron XAS/XES, NRVS
   Peter Pinski           : DLPNO-MP2, DLPNO-MP2 Gradient
   Christoph Reimann      : Effective Core Potentials
   Marius Retegan         : Local ZFS, SOC
   Christoph Riplinger    : Optimizer, TS searches, QM/MM, DLPNO-CCSD(T), (RO)-DLPNO pert. Triples
   Michael Roemelt        : Original ROCIS implementation
   Masaaki Saitow         : Open-shell DLPNO-CCSD energy and density
   Barbara Sandhoefer     : DKH picture change effects
   Kantharuban Sivalingam : CASSCF convergence/infrastructure, NEVPT2 and variants, FIC-MRCI
   Bernardo de Souza      : ESD, SOC TD-DFT
   Georgi Stoychev        : AutoAux, RI-MP2 NMR, DLPNO-MP2 response, X2C
   Van Anh Tran           : RI-MP2 g-tensors
   Willem Van den Heuvel  : Paramagnetic NMR
   Zikuan Wang            : NOTCH, Electric field optimization 
   Frank Wennmohs         : Technical directorship and infrastructure
   Hang Xu                : AUTO-CI-Response properties 


 We gratefully acknowledge several colleagues who have allowed us to
 interface, adapt or use parts of their codes:
   Stefan Grimme, W. Hujo, H. Kruse, P. Pracht,  : VdW corrections, initial TS optimization,
                  C. Bannwarth, S. Ehlert,         DFT functionals, gCP, sTDA/sTD-DF
                  L. Wittmann, M. Mueller
   Ed Valeev, F. Pavosevic, A. Kumar             : LibInt (2-el integral package), F12 methods
   Garnet Chan, S. Sharma, J. Yang, R. Olivares  : DMRG
   Ulf Ekstrom                                   : XCFun DFT Library
   Mihaly Kallay                                 : mrcc  (arbitrary order and MRCC methods)
   Frank Weinhold                                : gennbo (NPA and NBO analysis)
   Simon Mueller                                 : openCOSMO-RS
   Christopher J. Cramer and Donald G. Truhlar   : smd solvation model
   Lars Goerigk                                  : TD-DFT with DH, B97 family of functionals
   V. Asgeirsson, H. Jonsson                     : NEB implementation
   FAccTs GmbH                                   : IRC, NEB, NEB-TS, DLPNO-Multilevel, CI-OPT
                                                   MM, QMMM, 2- and 3-layer-ONIOM, Crystal-QMMM,
                                                   LR-CPCM, SF, NACMEs, symmetry and pop. for TD-DFT,
                                                   nearIR, NL-DFT gradient (VV10), updates on ESD,
                                                   ML-optimized integration grids, MBIS, APM,
                                                   GOAT, DOCKER, SOLVATOR, interface openCOSMO-RS
   S Lehtola, MJT Oliveira, MAL Marques          : LibXC Library
   Liviu Ungur et al                             : ANISO software


 Your calculation uses the libint2 library for the computation of 2-el integrals
 For citations please refer to: http://libint.valeyev.net

 Your ORCA version has been built with support for libXC version: 6.2.2
 For citations please refer to: https://libxc.gitlab.io

 This ORCA versions uses:
   CBLAS   interface :  Fast vector & matrix operations
   LAPACKE interface :  Fast linear algebra routines
   Shared memory     :  Shared parallel matrices


Your calculation utilizes the atom-pairwise dispersion correction
with the Becke-Johnson damping scheme (D3BJ)


Warning: RI is on but no J-basis has been assigned. Assigning Def2/J (nothing to worry about!)
================================================================================

----- Orbital basis set information -----
Your calculation utilizes the basis: def2-SVP
   F. Weigend and R. Ahlrichs, Phys. Chem. Chem. Phys. 7, 3297 (2005).

----- AuxJ basis set information -----
Your calculation utilizes the auxiliary basis: def2/J
   F. Weigend, Phys. Chem. Chem. Phys. 8, 1057 (2006).

================================================================================
                                        WARNINGS
                       Please study these warnings very carefully!
================================================================================


WARNING: Geometry Optimization
  ===> : Switching off AutoStart
         For restart on a previous wavefunction, please use MOREAD

================================================================================
                                       INPUT FILE
================================================================================
NAME = data/geom_opt/69773/69773.inp
|  1> ! RIJONX B3LYP def2-SVP D3BJ TIGHTSCF Opt
|  2> %pal
|  3> nprocs 6
|  4> end
|  5> 
|  6> * xyz 0 1
|  7> C     -3.276795   -2.804494    0.137050
|  8> C     -2.559058   -3.016061   -1.035766
|  9> C     -1.603605   -2.083073   -1.448333
| 10> C     -1.344687   -0.923152   -0.695243
| 11> C     -2.082793   -0.728145    0.481428
| 12> C     -3.039520   -1.661283    0.894744
| 13> P     -0.079270    0.231635   -1.317060
| 14> C     -0.289797    1.720163   -0.286615
| 15> C     -1.257197    2.661742   -0.681843
| 16> C     -1.476158    3.827983    0.056728
| 17> C     -0.729325    4.075452    1.204168
| 18> C      0.234401    3.157647    1.611900
| 19> C      0.452701    1.990450    0.872528
| 20> C      1.495972   -0.482656   -0.741067
| 21> C      2.689244    0.050355   -1.263518
| 22> C      3.937120   -0.445009   -0.872072
| 23> C      4.006844   -1.485490    0.048074
| 24> C      2.842338   -2.032408    0.577826
| 25> C      1.595403   -1.533480    0.183820
| 26> Br     5.689846   -2.158381    0.581990
| 27> H     -4.021322   -3.527545    0.459271
| 28> H     -2.741075   -3.905614   -1.633132
| 29> H     -1.056913   -2.274545   -2.370347
| 30> H     -1.928469    0.148729    1.104866
| 31> H     -3.599530   -1.490177    1.810671
| 32> H     -1.857274    2.493210   -1.574672
| 33> H     -2.230021    4.540772   -0.267151
| 34> H     -0.897157    4.981982    1.779494
| 35> H      0.820537    3.346837    2.507701
| 36> H      1.210439    1.298427    1.230291
| 37> H      2.658301    0.866444   -1.984227
| 38> H      4.840784   -0.011328   -1.291697
| 39> H      2.887859   -2.846012    1.297040
| 40> H      0.708176   -1.982977    0.623152
| 41> **                         ****END OF INPUT****
================================================================================

                       *****************************
                       * Geometry Optimization Run *
                       *****************************

Geometry optimization settings:
Update method            Update   .... BFGS
Choice of coordinates    CoordSys .... (2022) Redundant Internals
Initial Hessian          InHess   .... Almloef's Model
Max. no of cycles        MaxIter  .... 102

Convergence Tolerances:
Energy Change            TolE     ....  5.0000e-06 Eh
Max. Gradient            TolMAXG  ....  3.0000e-04 Eh/bohr
RMS Gradient             TolRMSG  ....  1.0000e-04 Eh/bohr
Max. Displacement        TolMAXD  ....  4.0000e-03 bohr
RMS Displacement         TolRMSD  ....  2.0000e-03 bohr
Strict Convergence                .... False

------------------------------------------------------------------------------
                        ORCA OPTIMIZATION COORDINATE SETUP
------------------------------------------------------------------------------

The optimization will be done in redundant internal coordinates (2022)
Making redundant internal coordinates   ...  (2022 redundants) done
Evaluating the initial hessian          ...  (Almloef) done
Evaluating the coordinates              ...  done
Calculating the B-matrix                .... done
Calculating the G-matrix                .... done
Diagonalizing the G-matrix              .... done
Small eigenvalue found = 5.301e-03
Small eigenvalue found = 5.644e-03
Small eigenvalue found = 1.023e-02
The first mode is                       ....   81
The number of degrees of freedom        ....   96

    -----------------------------------------------------------------
                    Redundant Internal Coordinates


    -----------------------------------------------------------------
         Definition                    Initial Value    Approx d2E/dq
    -----------------------------------------------------------------
      1. B(C   1,C   0)                  1.3912         0.622075   
      2. B(C   2,C   1)                  1.3977         0.607368   
      3. B(C   3,C   2)                  1.4070         0.587008   
      4. B(C   4,C   3)                  1.4026         0.596460   
      5. B(C   5,C   4)                  1.3989         0.604713   
      6. B(C   5,C   0)                  1.3919         0.620495   
      7. B(P   6,C   3)                  1.8225         0.428768   
      8. B(C   7,P   6)                  1.8226         0.428602   
      9. B(C   8,C   7)                  1.4066         0.587745   
     10. B(C   9,C   8)                  1.3977         0.607383   
     11. B(C  10,C   9)                  1.3913         0.621899   
     12. B(C  11,C  10)                  1.3919         0.620456   
     13. B(C  12,C  11)                  1.3988         0.604895   
     14. B(C  12,C   7)                  1.4028         0.596001   
     15. B(C  13,P   6)                  1.8230         0.427949   
     16. B(C  14,C  13)                  1.4075         0.585971   
     17. B(C  15,C  14)                  1.3985         0.605582   
     18. B(C  16,C  15)                  1.3907         0.623122   
     19. B(C  17,C  16)                  1.3913         0.621725   
     20. B(C  18,C  17)                  1.3996         0.603038   
     21. B(C  18,C  13)                  1.4034         0.594783   
     22. B(Br 19,C  16)                  1.8895         0.335163   
     23. B(H  20,C   0)                  1.0867         0.364472   
     24. B(H  21,C   1)                  1.0869         0.364268   
     25. B(H  22,C   2)                  1.0889         0.361595   
     26. B(H  23,C   4)                  1.0869         0.364195   
     27. B(H  24,C   5)                  1.0871         0.363942   
     28. B(H  25,C   8)                  1.0889         0.361597   
     29. B(H  26,C   9)                  1.0869         0.364271   
     30. B(H  27,C  10)                  1.0867         0.364463   
     31. B(H  28,C  11)                  1.0871         0.363944   
     32. B(H  29,C  12)                  1.0868         0.364406   
     33. B(H  30,C  14)                  1.0892         0.361146   
     34. B(H  31,C  15)                  1.0866         0.364581   
     35. B(H  32,C  17)                  1.0869         0.364261   
     36. B(H  33,C  18)                  1.0873         0.363683   
     37. A(C   1,C   0,H  20)          120.1486         0.353831   
     38. A(C   1,C   0,C   5)          119.7276         0.434390   
     39. A(C   5,C   0,H  20)          120.1236         0.353679   
     40. A(C   0,C   1,H  21)          120.0937         0.353797   
     41. A(C   2,C   1,H  21)          119.9060         0.352367   
     42. A(C   0,C   1,C   2)          120.0002         0.432722   
     43. A(C   1,C   2,C   3)          121.2053         0.428237   
     44. A(C   1,C   2,H  22)          118.4098         0.351929   
     45. A(C   3,C   2,H  22)          120.3847         0.349907   
     46. A(C   2,C   3,C   4)          117.8268         0.426849   
     47. A(C   2,C   3,P   6)          117.8733         0.429165   
     48. A(C   4,C   3,P   6)          124.2989         0.430397   
     49. A(C   5,C   4,H  23)          117.7607         0.352094   
     50. A(C   3,C   4,H  23)          121.2400         0.351277   
     51. A(C   3,C   4,C   5)          120.9986         0.429129   
     52. A(C   0,C   5,H  24)          120.0071         0.353591   
     53. A(C   0,C   5,C   4)          120.2404         0.432184   
     54. A(C   4,C   5,H  24)          119.7524         0.352053   
     55. A(C   7,P   6,C  13)          103.9561         0.432559   
     56. A(C   3,P   6,C  13)          104.1166         0.432589   
     57. A(C   3,P   6,C   7)          104.1458         0.432708   
     58. A(C   8,C   7,C  12)          117.8526         0.426886   
     59. A(P   6,C   7,C  12)          124.2895         0.430308   
     60. A(P   6,C   7,C   8)          117.8575         0.429232   
     61. A(C   9,C   8,H  25)          118.4307         0.351931   
     62. A(C   7,C   8,H  25)          120.3841         0.349982   
     63. A(C   7,C   8,C   9)          121.1849         0.428336   
     64. A(C   8,C   9,C  10)          120.0090         0.432702   
     65. A(C  10,C   9,H  26)          120.0959         0.353781   
     66. A(C   8,C   9,H  26)          119.8951         0.352369   
     67. A(C   9,C  10,C  11)          119.7343         0.434362   
     68. A(C  11,C  10,H  27)          120.1261         0.353673   
     69. A(C   9,C  10,H  27)          120.1396         0.353813   
     70. A(C  12,C  11,H  28)          119.7770         0.352071   
     71. A(C  10,C  11,H  28)          119.9960         0.353588   
     72. A(C  10,C  11,C  12)          120.2270         0.432202   
     73. A(C   7,C  12,H  29)          121.2224         0.351266   
     74. A(C  11,C  12,H  29)          117.7842         0.352147   
     75. A(C   7,C  12,C  11)          120.9919         0.429093   
     76. A(C  14,C  13,C  18)          117.9128         0.426499   
     77. A(P   6,C  13,C  18)          124.2517         0.430032   
     78. A(P   6,C  13,C  14)          117.8347         0.428882   
     79. A(C  15,C  14,H  30)          118.4210         0.351680   
     80. A(C  13,C  14,H  30)          120.3495         0.349730   
     81. A(C  13,C  14,C  15)          121.2291         0.427876   
     82. A(C  16,C  15,H  31)          120.8238         0.353950   
     83. A(C  14,C  15,H  31)          119.5110         0.352243   
     84. A(C  14,C  15,C  16)          119.6652         0.432624   
     85. A(C  17,C  16,Br 19)          119.8620         0.414932   
     86. A(C  15,C  16,Br 19)          119.8702         0.415098   
     87. A(C  15,C  16,C  17)          120.2678         0.434676   
     88. A(C  18,C  17,H  32)          119.3690         0.351940   
     89. A(C  16,C  17,H  32)          120.7406         0.353763   
     90. A(C  16,C  17,C  18)          119.8903         0.432122   
     91. A(C  17,C  18,H  33)          117.7651         0.351846   
     92. A(C  13,C  18,H  33)          121.1994         0.351027   
     93. A(C  13,C  18,C  17)          121.0343         0.428699   
     94. D(H  21,C   1,C   0,C   5)   -179.8659         0.026789   
     95. D(C   2,C   1,C   0,H  20)    179.9046         0.026789   
     96. D(H  21,C   1,C   0,H  20)     -0.0075         0.026789   
     97. D(C   2,C   1,C   0,C   5)      0.0462         0.026789   
     98. D(C   3,C   2,C   1,C   0)      0.1736         0.025465   
     99. D(C   3,C   2,C   1,H  21)   -179.9142         0.025465   
    100. D(H  22,C   2,C   1,C   0)   -179.9995         0.025465   
    101. D(H  22,C   2,C   1,H  21)     -0.0873         0.025465   
    102. D(P   6,C   3,C   2,H  22)      0.1452         0.023701   
    103. D(C   4,C   3,C   2,C   1)     -0.3618         0.023701   
    104. D(C   4,C   3,C   2,H  22)    179.8147         0.023701   
    105. D(P   6,C   3,C   2,C   1)    179.9687         0.023701   
    106. D(H  23,C   4,C   3,C   2)   -179.9515         0.024510   
    107. D(C   5,C   4,C   3,C   2)      0.3403         0.024510   
    108. D(C   5,C   4,C   3,P   6)    179.9867         0.024510   
    109. D(H  23,C   4,C   3,P   6)     -0.3051         0.024510   
    110. D(H  24,C   5,C   4,H  23)      0.2356         0.025231   
    111. D(C   0,C   5,C   4,H  23)   -179.8502         0.025231   
    112. D(H  24,C   5,C   0,H  20)     -0.0113         0.026644   
    113. D(H  24,C   5,C   0,C   1)    179.8471         0.026644   
    114. D(C   4,C   5,C   0,H  20)   -179.9252         0.026644   
    115. D(H  24,C   5,C   4,C   3)    179.9537         0.025231   
    116. D(C   4,C   5,C   0,C   1)     -0.0668         0.026644   
    117. D(C   0,C   5,C   4,C   3)     -0.1322         0.025231   
    118. D(C  13,P   6,C   3,C   4)     97.6526         0.003789   
    119. D(C  13,P   6,C   3,C   2)    -82.7012         0.003789   
    120. D(C   7,P   6,C   3,C   4)    -11.0012         0.003789   
    121. D(C   7,P   6,C   3,C   2)    168.6450         0.003789   
    122. D(C  12,C   7,P   6,C   3)     95.0110         0.003787   
    123. D(C   8,C   7,P   6,C  13)    166.0260         0.003787   
    124. D(C   8,C   7,P   6,C   3)    -85.2018         0.003787   
    125. D(C  12,C   7,P   6,C  13)    -13.7613         0.003787   
    126. D(H  25,C   8,C   7,C  12)   -179.9678         0.023763   
    127. D(H  25,C   8,C   7,P   6)      0.2310         0.023763   
    128. D(C   9,C   8,C   7,C  12)     -0.1733         0.023763   
    129. D(C   9,C   8,C   7,P   6)   -179.9745         0.023763   
    130. D(H  26,C   9,C   8,H  25)     -0.1245         0.025466   
    131. D(H  26,C   9,C   8,C   7)   -179.9229         0.025466   
    132. D(C  10,C   9,C   8,H  25)    179.9068         0.025466   
    133. D(C  10,C   9,C   8,C   7)      0.1084         0.025466   
    134. D(H  27,C  10,C   9,H  26)     -0.0265         0.026773   
    135. D(H  27,C  10,C   9,C   8)    179.9421         0.026773   
    136. D(C  11,C  10,C   9,H  26)   -179.9844         0.026773   
    137. D(C  11,C  10,C   9,C   8)     -0.0158         0.026773   
    138. D(H  28,C  11,C  10,H  27)      0.0294         0.026641   
    139. D(H  28,C  11,C  10,C   9)    179.9873         0.026641   
    140. D(C  12,C  11,C  10,H  27)   -179.9643         0.026641   
    141. D(C  12,C  11,C  10,C   9)     -0.0064         0.026641   
    142. D(H  29,C  12,C  11,H  28)      0.3832         0.025247   
    143. D(C   7,C  12,C  11,H  28)    179.9429         0.025247   
    144. D(C   7,C  12,C  11,C  10)     -0.0634         0.025247   
    145. D(H  29,C  12,C   7,C   8)    179.6950         0.024470   
    146. D(H  29,C  12,C   7,P   6)     -0.5177         0.024470   
    147. D(H  29,C  12,C  11,C  10)   -179.6231         0.025247   
    148. D(C  11,C  12,C   7,C   8)      0.1505         0.024470   
    149. D(C  11,C  12,C   7,P   6)    179.9377         0.024470   
    150. D(C  18,C  13,P   6,C   7)     97.9803         0.003780   
    151. D(C  18,C  13,P   6,C   3)    -10.8135         0.003780   
    152. D(C  14,C  13,P   6,C   7)    -82.3594         0.003780   
    153. D(C  14,C  13,P   6,C   3)    168.8468         0.003780   
    154. D(H  30,C  14,C  13,P   6)      0.2977         0.023613   
    155. D(C  15,C  14,C  13,C  18)     -0.2489         0.023613   
    156. D(C  15,C  14,C  13,P   6)   -179.9311         0.023613   
    157. D(H  30,C  14,C  13,C  18)    179.9799         0.023613   
    158. D(H  31,C  15,C  14,H  30)     -0.0988         0.025307   
    159. D(H  31,C  15,C  14,C  13)   -179.8743         0.025307   
    160. D(C  16,C  15,C  14,H  30)    179.9147         0.025307   
    161. D(C  16,C  15,C  14,C  13)      0.1391         0.025307   
    162. D(Br 19,C  16,C  15,H  31)      0.0586         0.026885   
    163. D(Br 19,C  16,C  15,C  14)   -179.9550         0.026885   
    164. D(C  17,C  16,C  15,H  31)   -179.9856         0.026885   
    165. D(C  17,C  16,C  15,C  14)      0.0008         0.026885   
    166. D(H  32,C  17,C  16,Br 19)     -0.0736         0.026757   
    167. D(H  32,C  17,C  16,C  15)    179.9707         0.026757   
    168. D(C  18,C  17,C  16,Br 19)    179.9325         0.026757   
    169. D(C  18,C  17,C  16,C  15)     -0.0233         0.026757   
    170. D(H  33,C  18,C  17,H  32)      0.3019         0.025083   
    171. D(H  33,C  18,C  17,C  16)   -179.7041         0.025083   
    172. D(C  13,C  18,C  17,H  32)    179.9124         0.025083   
    173. D(C  13,C  18,C  17,C  16)     -0.0936         0.025083   
    174. D(H  33,C  18,C  13,C  14)    179.8226         0.024365   
    175. D(H  33,C  18,C  13,P   6)     -0.5174         0.024365   
    176. D(C  17,C  18,C  13,C  14)      0.2256         0.024365   
    177. D(C  17,C  18,C  13,P   6)    179.8856         0.024365   
    -----------------------------------------------------------------

Number of atoms                         .... 34
Number of degrees of freedom            .... 177


         *************************************************************
         *                GEOMETRY OPTIMIZATION CYCLE   1            *
         *************************************************************
---------------------------------
CARTESIAN COORDINATES (ANGSTROEM)
---------------------------------
  C     -3.276795   -2.804494    0.137050
  C     -2.559058   -3.016061   -1.035766
  C     -1.603605   -2.083073   -1.448333
  C     -1.344687   -0.923152   -0.695243
  C     -2.082793   -0.728145    0.481428
  C     -3.039520   -1.661283    0.894744
  P     -0.079270    0.231635   -1.317060
  C     -0.289797    1.720163   -0.286615
  C     -1.257197    2.661742   -0.681843
  C     -1.476158    3.827983    0.056728
  C     -0.729325    4.075452    1.204168
  C      0.234401    3.157647    1.611900
  C      0.452701    1.990450    0.872528
  C      1.495972   -0.482656   -0.741067
  C      2.689244    0.050355   -1.263518
  C      3.937120   -0.445009   -0.872072
  C      4.006844   -1.485490    0.048074
  C      2.842338   -2.032408    0.577826
  C      1.595403   -1.533480    0.183820
  Br     5.689846   -2.158381    0.581990
  H     -4.021322   -3.527545    0.459271
  H     -2.741075   -3.905614   -1.633132
  H     -1.056913   -2.274545   -2.370347
  H     -1.928469    0.148729    1.104866
  H     -3.599530   -1.490177    1.810671
  H     -1.857274    2.493210   -1.574672
  H     -2.230021    4.540772   -0.267151
  H     -0.897157    4.981982    1.779494
  H      0.820537    3.346837    2.507701
  H      1.210439    1.298427    1.230291
  H      2.658301    0.866444   -1.984227
  H      4.840784   -0.011328   -1.291697
  H      2.887859   -2.846012    1.297040
  H      0.708176   -1.982977    0.623152

----------------------------
CARTESIAN COORDINATES (A.U.)
----------------------------
  NO LB      ZA    FRAG     MASS         X           Y           Z
   0 C     6.0000    0    12.011   -6.192245   -5.299726    0.258987
   1 C     6.0000    0    12.011   -4.835919   -5.699529   -1.957314
   2 C     6.0000    0    12.011   -3.030374   -3.936437   -2.736953
   3 C     6.0000    0    12.011   -2.541090   -1.744504   -1.313819
   4 C     6.0000    0    12.011   -3.935908   -1.375995    0.909767
   5 C     6.0000    0    12.011   -5.743860   -3.139370    1.690821
   6 P    15.0000    0    30.974   -0.149799    0.437727   -2.488883
   7 C     6.0000    0    12.011   -0.547637    3.250637   -0.541624
   8 C     6.0000    0    12.011   -2.375758    5.029963   -1.288497
   9 C     6.0000    0    12.011   -2.789534    7.233840    0.107200
  10 C     6.0000    0    12.011   -1.378225    7.701488    2.275548
  11 C     6.0000    0    12.011    0.442954    5.967088    3.046050
  12 C     6.0000    0    12.011    0.855481    3.761405    1.648839
  13 C     6.0000    0    12.011    2.826977   -0.912088   -1.400414
  14 C     6.0000    0    12.011    5.081935    0.095157   -2.387703
  15 C     6.0000    0    12.011    7.440079   -0.840945   -1.647977
  16 C     6.0000    0    12.011    7.571838   -2.807169    0.090847
  17 C     6.0000    0    12.011    5.371240   -3.840695    1.091933
  18 C     6.0000    0    12.011    3.014875   -2.897857    0.347369
  19 Br   35.0000    0    79.900   10.752251   -4.078749    1.099802
  20 H     1.0000    0     1.008   -7.599197   -6.666094    0.867896
  21 H     1.0000    0     1.008   -5.179881   -7.380541   -3.086172
  22 H     1.0000    0     1.008   -1.997276   -4.298267   -4.479307
  23 H     1.0000    0     1.008   -3.644278    0.281057    2.087894
  24 H     1.0000    0     1.008   -6.802126   -2.816026    3.421672
  25 H     1.0000    0     1.008   -3.509739    4.711484   -2.975699
  26 H     1.0000    0     1.008   -4.214129    8.580816   -0.504842
  27 H     1.0000    0     1.008   -1.695381    9.414582    3.362756
  28 H     1.0000    0     1.008    1.550590    6.324605    4.738868
  29 H     1.0000    0     1.008    2.287398    2.453671    2.324913
  30 H     1.0000    0     1.008    5.023461    1.637342   -3.749646
  31 H     1.0000    0     1.008    9.147756   -0.021407   -2.440954
  32 H     1.0000    0     1.008    5.457263   -5.378183    2.451050
  33 H     1.0000    0     1.008    1.338259   -3.747283    1.177587

--------------------------------
INTERNAL COORDINATES (ANGSTROEM)
--------------------------------
 C      0   0   0     0.000000000000     0.00000000     0.00000000
 C      1   0   0     1.391188113274     0.00000000     0.00000000
 C      2   1   0     1.397701174372   120.00023975     0.00000000
 C      3   2   1     1.406982517683   121.20527490     0.17361758
 C      4   3   2     1.402634250090   117.82683022   359.63821768
 C      1   2   3     1.391880387742   119.72760549     0.04617633
 P      4   3   2     1.822489939821   117.87334881   179.96870638
 C      7   4   3     1.822595435783   104.14577294   168.64501127
 C      8   7   4     1.406641015051   117.85753990   274.79820507
 C      9   8   7     1.397694212495   121.18493837   180.02553516
 C     10   9   8     1.391265247697   120.00903038     0.10841685
 C     11  10   9     1.391897699159   119.73430406     0.00000000
 C     12  11  10     1.398811881989   120.22702630     0.00000000
 C      7   4   3     1.823010402410   104.11655243   277.29882576
 C     14   7   4     1.407463619248   117.83470451   168.84676336
 C     15  14   7     1.398502761809   121.22911709   180.06890614
 C     16  15  14     1.390730314926   119.66520105     0.13911914
 C     17  16  15     1.391341332766   120.26782951     0.00000000
 C     18  17  16     1.399648802895   119.89034348   359.97673632
 Br    17  16  15     1.889535478614   119.87016109   180.04500306
 H      1   2   3     1.086715038624   120.14864911   179.90459563
 H      2   1   3     1.086867455605   120.09374974   180.08794262
 H      3   2   1     1.088872575577   118.40978879   180.00049258
 H      5   4   3     1.086921730713   121.24001500   180.04851142
 H      6   1   2     1.087111186892   120.00707958   179.84711882
 H      9   8   7     1.088870545195   120.38407203     0.23101589
 H     10   9   8     1.086864843452   119.89511186   180.07706030
 H     11  10   9     1.086721780126   120.13962444   179.94205243
 H     12  11  10     1.087109791234   119.99601688   179.98729989
 H     13  12  11     1.086764497645   117.78424518   180.37688884
 H     15  14   7     1.089210809647   120.34948520     0.29766995
 H     16  15  14     1.086633781585   119.51098536   180.12568950
 H     18  17  16     1.086872765347   120.74061959   179.97067367
 H     19  18  17     1.087304883076   117.76511172   180.29594211

---------------------------
INTERNAL COORDINATES (A.U.)
---------------------------
 C      0   0   0     0.000000000000     0.00000000     0.00000000
 C      1   0   0     2.628964534854     0.00000000     0.00000000
 C      2   1   0     2.641272436624   120.00023975     0.00000000
 C      3   2   1     2.658811633635   121.20527490     0.17361758
 C      4   3   2     2.650594598728   117.82683022   359.63821768
 C      1   2   3     2.630272744009   119.72760549     0.04617633
 P      4   3   2     3.444006868087   117.87334881   179.96870638
 C      7   4   3     3.444206226565   104.14577294   168.64501127
 C      8   7   4     2.658166287188   117.85753990   274.79820507
 C      9   8   7     2.641259280583   121.18493837   180.02553516
 C     10   9   8     2.629110297790   120.00903038     0.10841685
 C     11  10   9     2.630305457846   119.73430406     0.00000000
 C     12  11  10     2.643371369834   120.22702630     0.00000000
 C      7   4   3     3.444990399844   104.11655243   277.29882576
 C     14   7   4     2.659720783836   117.83470451   168.84676336
 C     15  14   7     2.642787217352   121.22911709   180.06890614
 C     16  15  14     2.628099421351   119.66520105     0.13911914
 C     17  16  15     2.629254077733   120.26782951     0.00000000
 C     18  17  16     2.644952921142   119.89034348   359.97673632
 Br    17  16  15     3.570704574908   119.87016109   180.04500306
 H      1   2   3     2.053593808613   120.14864911   179.90459563
 H      2   1   3     2.053881834966   120.09374974   180.08794262
 H      3   2   1     2.057670962578   118.40978879   180.00049258
 H      5   4   3     2.053984400055   121.24001500   180.04851142
 H      6   1   2     2.054342420347   120.00707958   179.84711882
 H      9   8   7     2.057667125713   120.38407203     0.23101589
 H     10   9   8     2.053876898711   119.89511186   180.07706030
 H     11  10   9     2.053606548205   120.13962444   179.94205243
 H     12  11  10     2.054339782937   119.99601688   179.98729989
 H     13  12  11     2.053687272618   117.78424518   180.37688884
 H     15  14   7     2.058310132339   120.34948520     0.29766995
 H     16  15  14     2.053440255063   119.51098536   180.12568950
 H     18  17  16     2.053891868923   120.74061959   179.97067367
 H     19  18  17     2.054708453090   117.76511172   180.29594211

---------------------
BASIS SET INFORMATION
---------------------
There are 4 groups of distinct atoms

 Group   1 Type C   : 7s4p1d contracted to 3s2p1d pattern {511/31/1}
 Group   2 Type P   : 10s7p1d contracted to 4s3p1d pattern {5311/511/1}
 Group   3 Type Br  : 14s10p6d contracted to 5s4p3d pattern {63311/5311/411}
 Group   4 Type H   : 4s1p contracted to 2s1p pattern {31/1}

Atom   0C    basis set group =>   1
Atom   1C    basis set group =>   1
Atom   2C    basis set group =>   1
Atom   3C    basis set group =>   1
Atom   4C    basis set group =>   1
Atom   5C    basis set group =>   1
Atom   6P    basis set group =>   2
Atom   7C    basis set group =>   1
Atom   8C    basis set group =>   1
Atom   9C    basis set group =>   1
Atom  10C    basis set group =>   1
Atom  11C    basis set group =>   1
Atom  12C    basis set group =>   1
Atom  13C    basis set group =>   1
Atom  14C    basis set group =>   1
Atom  15C    basis set group =>   1
Atom  16C    basis set group =>   1
Atom  17C    basis set group =>   1
Atom  18C    basis set group =>   1
Atom  19Br   basis set group =>   3
Atom  20H    basis set group =>   4
Atom  21H    basis set group =>   4
Atom  22H    basis set group =>   4
Atom  23H    basis set group =>   4
Atom  24H    basis set group =>   4
Atom  25H    basis set group =>   4
Atom  26H    basis set group =>   4
Atom  27H    basis set group =>   4
Atom  28H    basis set group =>   4
Atom  29H    basis set group =>   4
Atom  30H    basis set group =>   4
Atom  31H    basis set group =>   4
Atom  32H    basis set group =>   4
Atom  33H    basis set group =>   4
---------------------------------
AUXILIARY/J BASIS SET INFORMATION
---------------------------------
There are 4 groups of distinct atoms

 Group   1 Type C   : 12s5p4d2f1g contracted to 6s4p3d1f1g pattern {711111/2111/211/2/1}
 Group   2 Type P   : 14s5p5d2f1g contracted to 8s4p3d1f1g pattern {71111111/2111/311/2/1}
 Group   3 Type Br  : 19s5p5d3f1g contracted to 8s4p3d2f1g pattern {121111111/2111/311/21/1}
 Group   4 Type H   : 5s2p1d contracted to 3s1p1d pattern {311/2/1}

Atom   0C    basis set group =>   1
Atom   1C    basis set group =>   1
Atom   2C    basis set group =>   1
Atom   3C    basis set group =>   1
Atom   4C    basis set group =>   1
Atom   5C    basis set group =>   1
Atom   6P    basis set group =>   2
Atom   7C    basis set group =>   1
Atom   8C    basis set group =>   1
Atom   9C    basis set group =>   1
Atom  10C    basis set group =>   1
Atom  11C    basis set group =>   1
Atom  12C    basis set group =>   1
Atom  13C    basis set group =>   1
Atom  14C    basis set group =>   1
Atom  15C    basis set group =>   1
Atom  16C    basis set group =>   1
Atom  17C    basis set group =>   1
Atom  18C    basis set group =>   1
Atom  19Br   basis set group =>   3
Atom  20H    basis set group =>   4
Atom  21H    basis set group =>   4
Atom  22H    basis set group =>   4
Atom  23H    basis set group =>   4
Atom  24H    basis set group =>   4
Atom  25H    basis set group =>   4
Atom  26H    basis set group =>   4
Atom  27H    basis set group =>   4
Atom  28H    basis set group =>   4
Atom  29H    basis set group =>   4
Atom  30H    basis set group =>   4
Atom  31H    basis set group =>   4
Atom  32H    basis set group =>   4
Atom  33H    basis set group =>   4


           ************************************************************
           *        Program running with 6 parallel MPI-processes     *
           *              working on a common directory               *
           ************************************************************
------------------------------------------------------------------------------
                             ORCA STARTUP CALCULATIONS
                           -- RI-GTO INTEGRALS CHOSEN --
------------------------------------------------------------------------------
------------------------------------------------------------------------------
                   ___                                                        
                  /   \      - P O W E R E D   B Y -                         
                 /     \                                                     
                 |  |  |   _    _      __       _____    __    __             
                 |  |  |  | |  | |    /  \     |  _  \  |  |  /  |          
                  \  \/   | |  | |   /    \    | | | |  |  | /  /          
                 / \  \   | |__| |  /  /\  \   | |_| |  |  |/  /          
                |  |  |   |  __  | /  /__\  \  |    /   |      \           
                |  |  |   | |  | | |   __   |  |    \   |  |\   \          
                \     /   | |  | | |  |  |  |  | |\  \  |  | \   \       
                 \___/    |_|  |_| |__|  |__|  |_| \__\ |__|  \__/        
                                                                              
                      - O R C A' S   B I G   F R I E N D -                    
                                      &                                       
                       - I N T E G R A L  F E E D E R -                       
                                                                              
 v1 FN, 2020, v2 2021, v3 2022-2024                                           
------------------------------------------------------------------------------


----------------------
SHARK INTEGRAL PACKAGE
----------------------

Number of atoms                             ...     34
Number of basis functions                   ...    372
Number of shells                            ...    170
Maximum angular momentum                    ...      2
Integral batch strategy                     ... SHARK/LIBINT Hybrid
RI-J (if used) integral strategy            ... SPLIT-RIJ (Revised 2003 algorithm where possible)
Printlevel                                  ...      1
Contraction scheme used                     ... SEGMENTED contraction
Prescreening option                         ... SCHWARTZ
   Thresh                                   ... 2.500e-11
   Tcut                                     ... 2.500e-12
   Tpresel                                  ... 2.500e-12 
Coulomb Range Separation                    ... NOT USED
Exchange Range Separation                   ... NOT USED
Multipole approximations                    ... NOT USED
Finite Nucleus Model                        ... NOT USED
CABS basis                                  ... NOT available
Auxiliary Coulomb fitting basis             ... AVAILABLE
   # of basis functions in Aux-J            ...   1145
   # of shells in Aux-J                     ...    375
   Maximum angular momentum in Aux-J        ...      4
Auxiliary J/K fitting basis                 ... NOT available
Auxiliary Correlation fitting basis         ... NOT available
Auxiliary 'external' fitting basis          ... NOT available

Checking pre-screening integrals            ... done (  0.0 sec) Dimension = 170
Check shell pair data                       ... done (  0.0 sec)
Shell pair information
Shell pair cut-off parameter TPreSel        ...   2.5e-12
Total number of shell pairs                 ...     14535
Shell pairs after pre-screening             ...     10808
Total number of primitive shell pairs       ...     56284
Primitive shell pairs kept                  ...     26181
          la=0 lb=0:   3220 shell pairs
          la=1 lb=0:   3986 shell pairs
          la=1 lb=1:   1271 shell pairs
          la=2 lb=0:   1342 shell pairs
          la=2 lb=1:    850 shell pairs
          la=2 lb=2:    139 shell pairs

Calculating one electron integrals          ... done (  0.0 sec)
Calculating RI/J V-Matrix + Cholesky decomp.... done (  0.1 sec)
Calculating Nuclear repulsion               ... done (  0.0 sec) ENN=   1852.671319227431 Eh

Diagonalization of the overlap matrix:
Smallest eigenvalue                        ... 2.644e-04
Time for diagonalization                   ...    0.017 sec
Threshold for overlap eigenvalues          ... 1.000e-07
Number of eigenvalues below threshold      ... 0
Time for construction of square roots      ...    0.009 sec
Total time needed                          ...    0.028 sec

-------------------
DFT GRID GENERATION
-------------------

General Integration Accuracy     IntAcc      ... 4.388
Radial Grid Type                 RadialGrid  ... OptM3 with GC (2021)
Angular Grid (max. ang.)         AngularGrid ... 4 (Lebedev-302)
Angular grid pruning method      GridPruning ... 4 (adaptive)
Weight generation scheme         WeightScheme... mBecke (2022)
Basis function cutoff            BFCut       ... 1.0000e-11
Integration weight cutoff        WCut        ... 1.0000e-14
Partially contracted basis set               ... off
Rotationally invariant grid construction     ... off
Angular grids for H and He will be reduced by one unit
Core-polarized basis detected: some atoms will have their core
                               angular grid increased.

Total number of grid points                  ...   170780
Total number of batches                      ...     2687
Average number of points per batch           ...       63
Average number of grid points per atom       ...     5023
Initializing property integral containers    ... done (  0.0 sec)

SHARK setup successfully completed in   1.2 seconds

Maximum memory used throughout the entire STARTUP-calculation: 54.6 MB


           ************************************************************
           *        Program running with 6 parallel MPI-processes     *
           *              working on a common directory               *
           ************************************************************
-------------------------------------------------------------------------------
                                 ORCA GUESS
                   Start orbitals & Density for SCF / CASSCF
-------------------------------------------------------------------------------

------------
SCF SETTINGS
------------
Hamiltonian:
 Density Functional     Method          .... DFT(GTOs)
 Exchange Functional    Exchange        .... B88
   X-Alpha parameter    XAlpha          ....  0.666667
   Becke's b parameter  XBeta           ....  0.004200
 Correlation Functional Correlation     .... LYP
 LDA part of GGA corr.  LDAOpt          .... VWN-5
 Gradients option       PostSCFGGA      .... off
 Hybrid DFT is turned on
   Fraction HF Exchange ScalHFX         ....  0.200000
   Scaling of DF-GGA-X  ScalDFX         ....  0.720000
   Scaling of DF-GGA-C  ScalDFC         ....  0.810000
   Scaling of DF-LDA-C  ScalLDAC        ....  1.000000
   Perturbative correction              ....  0.000000
   NL short-range parameter             ....  4.800000
 RI-approximation to the Coulomb term is turned on
   Number of AuxJ basis functions       .... 1145
   RIJ-ON(X) (HFX calculated with O(N)) .... on


General Settings:
 Integral files         IntName         .... data/geom_opt/69773/69773
 Hartree-Fock type      HFTyp           .... RHF
 Total Charge           Charge          ....    0
 Multiplicity           Mult            ....    1
 Number of Electrons    NEL             ....  172
 Basis Dimension        Dim             ....  372
 Nuclear Repulsion      ENuc            ....   1852.6713192274 Eh

Convergence Acceleration:
 AO-DIIS                CNVDIIS         .... on
   Start iteration      DIISMaxIt       ....    12
   Startup error        DIISStart       ....  0.200000
   # of expansion vecs  DIISMaxEq       ....     5
   Bias factor          DIISBfac        ....   1.050
   Max. coefficient     DIISMaxC        ....  10.000
 MO-DIIS                CNVKDIIS        .... off
 Trust-Rad. Augm. Hess. CNVTRAH         .... auto
   Auto Start mean grad. ratio tolernc. ....  1.125000
   Auto Start start iteration           ....    50
   Auto Start num. interpolation iter.  ....    10
   Max. Number of Micro iterations      ....    24
   Max. Number of Macro iterations      .... Maxiter - #DIIS iter
   Number of Davidson start vectors     ....     2
   Converg. threshold    (grad. norm)   ....   1.000e-05
   Grad. Scal. Fac. for Micro threshold ....   0.100
   Minimum threshold for Micro iter.    ....   1.000e-02
   NR start threshold (gradient norm)   ....   1.000e-04
   Initial trust radius                 ....   0.400
   Minimum AH scaling param. (alpha)    ....   1.000
   Maximum AH scaling param. (alpha)    .... 1000.000
   Quad. conv. algorithm                .... NR
   White noise on init. David. guess    .... on
   Maximum white noise                  ....   0.010
   Pseudo random numbers                .... off
   Inactive MOs                         .... canonical
   Orbital update algorithm             .... Taylor
   Preconditioner                       .... Diag
   Full preconditioner red. dimension   ....   250
   COSX micro iterations for RIJONX calc.... off
 SOSCF                  CNVSOSCF        .... on
   Start iteration      SOSCFMaxIt      ....   150
   Startup grad/error   SOSCFStart      ....  0.003300
   Hessian update       SOSCFHessUp     .... L-BFGS
 Level Shifting         CNVShift        .... on
   Level shift para.    LevelShift      ....    0.2500
   Turn off err/grad.   ShiftErr        ....    0.0010
 Zerner damping         CNVZerner       .... off
 Static damping         CNVDamp         .... on
   Fraction old density DampFac         ....    0.7000
   Max. Damping (<1)    DampMax         ....    0.9800
   Min. Damping (>=0)   DampMin         ....    0.0000
   Turn off err/grad.   DampErr         ....    0.1000

SCF Procedure:
 Maximum # iterations   MaxIter         ....   125
 SCF integral mode      SCFMode         .... Direct
   Integral package                     .... SHARK and LIBINT hybrid scheme
 Reset frequency        DirectResetFreq ....    20
 Integral Threshold     Thresh          ....  2.500e-11 Eh
 Primitive CutOff       TCut            ....  2.500e-12 Eh

Convergence Tolerance:
 Convergence Check Mode ConvCheckMode   .... Total+1el-Energy
 Convergence forced     ConvForced      .... 0
 Energy Change          TolE            ....  1.000e-08 Eh
 1-El. energy change                    ....  1.000e-05 Eh
 Orbital Gradient       TolG            ....  1.000e-05
 Orbital Rotation angle TolX            ....  1.000e-05
 DIIS Error             TolErr          ....  5.000e-07

------------------------------
INITIAL GUESS: MODEL POTENTIAL
------------------------------
Loading Hartree-Fock densities                     ... done
Calculating cut-offs                               ... done
Initializing the effective Hamiltonian             ... done
Setting up the integral package (SHARK)            ... done
Starting the Coulomb interaction                   ... done (   0.1 sec)
Making the grid                                    ... done (   0.3 sec)
Mapping shells                                     ... done
Starting the XC term evaluation                    ... done (   0.2 sec)
  promolecular density results
     # of electrons  =    171.987860782
     EX              =   -209.038412183
     EC              =     -6.401058855
     EX+EC           =   -215.439471038
Transforming the Hamiltonian                       ... done (   0.0 sec)
Diagonalizing the Hamiltonian                      ... done (   0.0 sec)
Back transforming the eigenvectors                 ... done (   0.0 sec)
Now organizing SCF variables                       ... done
                      ------------------
                      INITIAL GUESS DONE (   0.6 sec)
                      ------------------
             **** ENERGY FILE WAS UPDATED (data/geom_opt/69773/69773.en.tmp) ****
Finished Guess after   0.7 sec
Maximum memory used throughout the entire GUESS-calculation: 31.8 MB


           ************************************************************
           *        Program running with 6 parallel MPI-processes     *
           *              working on a common directory               *
           ************************************************************

-------------------------------------------------------------------------------------------
                                      ORCA LEAN-SCF
                              memory conserving SCF solver
-------------------------------------------------------------------------------------------

----------------------------------------D-I-I-S--------------------------------------------
Iteration    Energy (Eh)           Delta-E    RMSDP     MaxDP     DIISErr   Damp  Time(sec)
-------------------------------------------------------------------------------------------
               ***  Starting incremental Fock matrix formation  ***
    1    -3607.9469554105489806     0.00e+00  2.33e-03  5.52e-02  1.09e-01  0.700   4.8
    2    -3608.1216205066139082    -1.75e-01  1.66e-03  4.85e-02  5.97e-02  0.700   4.1
                               ***Turning on AO-DIIS***
    3    -3608.1968129554670668    -7.52e-02  7.87e-04  3.37e-02  2.68e-02  0.700   4.1
    4    -3608.2403563685656991    -4.35e-02  1.53e-03  7.61e-02  1.44e-02  0.000   4.0
    5    -3608.3339373435155721    -9.36e-02  2.05e-04  1.17e-02  4.41e-03  0.000   4.1
                              *** Initializing SOSCF ***
---------------------------------------S-O-S-C-F--------------------------------------
Iteration    Energy (Eh)           Delta-E    RMSDP     MaxDP     MaxGrad    Time(sec)
--------------------------------------------------------------------------------------
    6    -3608.3344849143086321    -5.48e-04  7.50e-05  3.98e-03  1.03e-03     3.6
               *** Restarting incremental Fock matrix formation ***
    7    -3608.3345218902104534    -3.70e-05  4.67e-05  1.38e-03  2.36e-04     4.8
    8    -3608.3345212730137064     6.17e-07  1.92e-05  4.80e-04  2.80e-04     3.2
    9    -3608.3345263190858532    -5.05e-06  1.18e-05  7.70e-04  6.28e-05     3.1
   10    -3608.3345261256154117     1.93e-07  5.65e-06  1.82e-04  7.77e-05     2.9
   11    -3608.3345267230997706    -5.97e-07  3.30e-06  1.93e-04  1.96e-05     2.5
   12    -3608.3345266932583399     2.98e-08  2.01e-06  9.94e-05  3.35e-05     2.4
   13    -3608.3345267469730970    -5.37e-08  6.29e-07  4.70e-05  2.70e-06     2.3
   14    -3608.3345267358899946     1.11e-08  3.30e-07  2.26e-05  4.95e-06     2.0
   15    -3608.3345267577915365    -2.19e-08  1.75e-07  8.47e-06  7.47e-07     1.8
                  *** Gradient check signals convergence ***

               *****************************************************
               *                     SUCCESS                       *
               *           SCF CONVERGED AFTER  15 CYCLES          *
               *****************************************************

             **** ENERGY FILE WAS UPDATED (data/geom_opt/69773/69773.en.tmp) ****

----------------
TOTAL SCF ENERGY
----------------

Total Energy       :      -3608.33452675779154 Eh          -98187.77424 eV

Components:
Nuclear Repulsion  :       1852.67131922743101 Eh           50413.74958 eV
Electronic Energy  :      -5461.00584598522255 Eh         -148601.52382 eV
One Electron Energy:      -8676.20493931491364 Eh         -236091.53906 eV
Two Electron Energy:       3215.19909332969110 Eh           87490.01524 eV

Virial components:
Potential Energy   :      -7205.57412021524760 Eh         -196073.64000 eV
Kinetic Energy     :       3597.23959345745561 Eh           97885.86576 eV
Virial Ratio       :          2.00308429088808

DFT components:
N(Alpha)           :       86.000076604953 electrons
N(Beta)            :       86.000076604953 electrons
N(Total)           :      172.000153209905 electrons
E(X)               :     -167.207083493756 Eh       
E(C)               :       -7.519586478945 Eh       
E(XC)              :     -174.726669972702 Eh       

---------------
SCF CONVERGENCE
---------------

  Last Energy change         ...    2.1902e-08  Tolerance :   1.0000e-08
  Last MAX-Density change    ...    8.4665e-06  Tolerance :   1.0000e-07
  Last RMS-Density change    ...    1.7491e-07  Tolerance :   5.0000e-09
  Last DIIS Error            ...    1.0258e-03  Tolerance :   5.0000e-07
  Last Orbital Gradient      ...    7.4732e-07  Tolerance :   1.0000e-05
  Last Orbital Rotation      ...    1.5295e-06  Tolerance :   1.0000e-05


----------------
ORBITAL ENERGIES
----------------

  NO   OCC          E(Eh)            E(eV) 
   0   2.0000    -482.786186    -13137.2800 
   1   2.0000     -77.052066     -2096.6933 
   2   2.0000     -62.469947     -1699.8937 
   3   2.0000     -56.301741     -1532.0483 
   4   2.0000     -56.299391     -1531.9843 
   5   2.0000     -56.299370     -1531.9837 
   6   2.0000     -10.240612      -278.6612 
   7   2.0000     -10.202707      -277.6298 
   8   2.0000     -10.202210      -277.6163 
   9   2.0000     -10.201760      -277.6040 
  10   2.0000     -10.200793      -277.5777 
  11   2.0000     -10.199749      -277.5493 
  12   2.0000     -10.195793      -277.4416 
  13   2.0000     -10.195729      -277.4399 
  14   2.0000     -10.194743      -277.4131 
  15   2.0000     -10.194668      -277.4110 
  16   2.0000     -10.193322      -277.3744 
  17   2.0000     -10.192992      -277.3654 
  18   2.0000     -10.192528      -277.3528 
  19   2.0000     -10.192462      -277.3510 
  20   2.0000     -10.192139      -277.3422 
  21   2.0000     -10.192091      -277.3409 
  22   2.0000     -10.191784      -277.3325 
  23   2.0000     -10.191686      -277.3299 
  24   2.0000      -8.688512      -236.4264 
  25   2.0000      -6.548799      -178.2019 
  26   2.0000      -6.522204      -177.4782 
  27   2.0000      -6.509117      -177.1221 
  28   2.0000      -6.508713      -177.1111 
  29   2.0000      -4.714244      -128.2811 
  30   2.0000      -4.714205      -128.2800 
  31   2.0000      -4.711255      -128.1998 
  32   2.0000      -2.636375       -71.7394 
  33   2.0000      -2.632792       -71.6419 
  34   2.0000      -2.632487       -71.6336 
  35   2.0000      -2.622018       -71.3487 
  36   2.0000      -2.622009       -71.3485 
  37   2.0000      -0.870825       -23.6964 
  38   2.0000      -0.853951       -23.2372 
  39   2.0000      -0.848695       -23.0942 
  40   2.0000      -0.806822       -21.9547 
  41   2.0000      -0.764666       -20.8076 
  42   2.0000      -0.750713       -20.4279 
  43   2.0000      -0.741484       -20.1768 
  44   2.0000      -0.740707       -20.1557 
  45   2.0000      -0.738179       -20.0869 
  46   2.0000      -0.723431       -19.6856 
  47   2.0000      -0.646342       -17.5879 
  48   2.0000      -0.615966       -16.7613 
  49   2.0000      -0.604136       -16.4394 
  50   2.0000      -0.603201       -16.4139 
  51   2.0000      -0.594735       -16.1836 
  52   2.0000      -0.592294       -16.1171 
  53   2.0000      -0.560867       -15.2620 
  54   2.0000      -0.520007       -14.1501 
  55   2.0000      -0.516311       -14.0495 
  56   2.0000      -0.488085       -13.2815 
  57   2.0000      -0.473935       -12.8964 
  58   2.0000      -0.459320       -12.4987 
  59   2.0000      -0.458580       -12.4786 
  60   2.0000      -0.454803       -12.3758 
  61   2.0000      -0.451413       -12.2836 
  62   2.0000      -0.444680       -12.1004 
  63   2.0000      -0.432326       -11.7642 
  64   2.0000      -0.423872       -11.5341 
  65   2.0000      -0.423327       -11.5193 
  66   2.0000      -0.412825       -11.2335 
  67   2.0000      -0.408925       -11.1274 
  68   2.0000      -0.389900       -10.6097 
  69   2.0000      -0.375360       -10.2141 
  70   2.0000      -0.372762       -10.1434 
  71   2.0000      -0.368552       -10.0288 
  72   2.0000      -0.361625        -9.8403 
  73   2.0000      -0.350423        -9.5355 
  74   2.0000      -0.349532        -9.5113 
  75   2.0000      -0.333668        -9.0796 
  76   2.0000      -0.331330        -9.0159 
  77   2.0000      -0.315970        -8.5980 
  78   2.0000      -0.286533        -7.7970 
  79   2.0000      -0.277048        -7.5389 
  80   2.0000      -0.268406        -7.3037 
  81   2.0000      -0.264313        -7.1923 
  82   2.0000      -0.258699        -7.0396 
  83   2.0000      -0.257612        -7.0100 
  84   2.0000      -0.250504        -6.8166 
  85   2.0000      -0.210598        -5.7307 
  86   0.0000      -0.033428        -0.9096 
  87   0.0000      -0.028978        -0.7885 
  88   0.0000      -0.027314        -0.7433 
  89   0.0000      -0.011909        -0.3241 
  90   0.0000      -0.010742        -0.2923 
  91   0.0000      -0.006959        -0.1894 
  92   0.0000       0.011613         0.3160 
  93   0.0000       0.059134         1.6091 
  94   0.0000       0.062374         1.6973 
  95   0.0000       0.076199         2.0735 
  96   0.0000       0.085860         2.3364 
*Only the first 10 virtual orbitals were printed.

                    ********************************
                    * MULLIKEN POPULATION ANALYSIS *
                    ********************************

-----------------------
MULLIKEN ATOMIC CHARGES
-----------------------
   0 C :    0.026337
   1 C :    0.024821
   2 C :    0.019112
   3 C :   -0.141252
   4 C :    0.011382
   5 C :    0.028454
   6 P :    0.344859
   7 C :   -0.140272
   8 C :    0.021476
   9 C :    0.024877
  10 C :    0.026499
  11 C :    0.028025
  12 C :    0.013374
  13 C :   -0.134837
  14 C :    0.021182
  15 C :    0.027639
  16 C :   -0.002553
  17 C :    0.033581
  18 C :    0.011212
  19 Br:   -0.044532
  20 H :   -0.018234
  21 H :   -0.017503
  22 H :   -0.017184
  23 H :   -0.006214
  24 H :   -0.020157
  25 H :   -0.017128
  26 H :   -0.017642
  27 H :   -0.018087
  28 H :   -0.019603
  29 H :   -0.008430
  30 H :   -0.010313
  31 H :   -0.013844
  32 H :   -0.016198
  33 H :    0.001151
Sum of atomic charges:   -0.0000000

--------------------------------
MULLIKEN REDUCED ORBITAL CHARGES
--------------------------------
  0 C s       :     3.158764  s :     3.158764
      pz      :     0.953443  p :     2.779419
      px      :     0.910673
      py      :     0.915303
      dz2     :     0.008513  d :     0.035479
      dxz     :     0.006393
      dyz     :     0.008522
      dx2y2   :     0.004954
      dxy     :     0.007098

  1 C s       :     3.158697  s :     3.158697
      pz      :     0.929209  p :     2.781303
      px      :     0.971967
      py      :     0.880127
      dz2     :     0.007212  d :     0.035180
      dxz     :     0.006759
      dyz     :     0.008658
      dx2y2   :     0.006806
      dxy     :     0.005745

  2 C s       :     3.212644  s :     3.212644
      pz      :     0.881978  p :     2.733393
      px      :     0.913000
      py      :     0.938416
      dz2     :     0.006433  d :     0.034851
      dxz     :     0.006220
      dyz     :     0.007545
      dx2y2   :     0.007442
      dxy     :     0.007212

  3 C s       :     3.080458  s :     3.080458
      pz      :     0.991285  p :     3.024198
      px      :     1.017704
      py      :     1.015209
      dz2     :     0.008541  d :     0.036596
      dxz     :     0.007058
      dyz     :     0.009082
      dx2y2   :     0.005136
      dxy     :     0.006780

  4 C s       :     3.224876  s :     3.224876
      pz      :     0.925481  p :     2.728734
      px      :     0.943768
      py      :     0.859485
      dz2     :     0.007068  d :     0.035008
      dxz     :     0.006609
      dyz     :     0.008762
      dx2y2   :     0.006871
      dxy     :     0.005698

  5 C s       :     3.158258  s :     3.158258
      pz      :     0.871888  p :     2.778129
      px      :     0.943326
      py      :     0.962914
      dz2     :     0.006612  d :     0.035160
      dxz     :     0.006246
      dyz     :     0.007563
      dx2y2   :     0.007619
      dxy     :     0.007120

  6 P s       :     5.636923  s :     5.636923
      pz      :     3.329642  p :     8.837504
      px      :     2.744945
      py      :     2.762917
      dz2     :     0.016703  d :     0.180714
      dxz     :     0.030118
      dyz     :     0.041551
      dx2y2   :     0.041264
      dxy     :     0.051079

  7 C s       :     3.080232  s :     3.080232
      pz      :     0.987110  p :     3.023440
      px      :     1.024556
      py      :     1.011774
      dz2     :     0.008354  d :     0.036601
      dxz     :     0.006295
      dyz     :     0.008713
      dx2y2   :     0.007132
      dxy     :     0.006107

  8 C s       :     3.212246  s :     3.212246
      pz      :     0.875509  p :     2.731414
      px      :     0.932430
      py      :     0.923474
      dz2     :     0.006085  d :     0.034863
      dxz     :     0.006370
      dyz     :     0.007394
      dx2y2   :     0.007754
      dxy     :     0.007262

  9 C s       :     3.158646  s :     3.158646
      pz      :     0.956666  p :     2.781315
      px      :     0.911965
      py      :     0.912684
      dz2     :     0.008204  d :     0.035162
      dxz     :     0.006194
      dyz     :     0.008313
      dx2y2   :     0.005180
      dxy     :     0.007270

 10 C s       :     3.158785  s :     3.158785
      pz      :     0.929304  p :     2.779236
      px      :     0.970222
      py      :     0.879710
      dz2     :     0.007042  d :     0.035479
      dxz     :     0.006716
      dyz     :     0.008464
      dx2y2   :     0.007246
      dxy     :     0.006012

 11 C s       :     3.158572  s :     3.158572
      pz      :     0.878990  p :     2.778253
      px      :     0.932678
      py      :     0.966585
      dz2     :     0.006246  d :     0.035151
      dxz     :     0.006306
      dyz     :     0.007474
      dx2y2   :     0.007649
      dxy     :     0.007475

 12 C s       :     3.223401  s :     3.223401
      pz      :     0.930701  p :     2.728193
      px      :     0.921501
      py      :     0.875990
      dz2     :     0.007994  d :     0.035031
      dxz     :     0.006193
      dyz     :     0.008472
      dx2y2   :     0.005169
      dxy     :     0.007203

 13 C s       :     3.076099  s :     3.076099
      pz      :     0.992069  p :     3.022235
      px      :     1.011625
      py      :     1.018541
      dz2     :     0.006485  d :     0.036503
      dxz     :     0.008420
      dyz     :     0.005333
      dx2y2   :     0.008132
      dxy     :     0.008133

 14 C s       :     3.215064  s :     3.215064
      pz      :     0.915939  p :     2.728767
      px      :     0.913921
      py      :     0.898907
      dz2     :     0.003975  d :     0.034987
      dxz     :     0.008359
      dyz     :     0.004617
      dx2y2   :     0.009288
      dxy     :     0.008749

 15 C s       :     3.218937  s :     3.218937
      pz      :     0.952704  p :     2.718815
      px      :     0.817496
      py      :     0.948615
      dz2     :     0.005829  d :     0.034609
      dxz     :     0.007066
      dyz     :     0.005233
      dx2y2   :     0.008592
      dxy     :     0.007889

 16 C s       :     3.002389  s :     3.002389
      pz      :     1.023804  p :     2.953997
      px      :     0.911441
      py      :     1.018752
      dz2     :     0.007739  d :     0.046166
      dxz     :     0.010151
      dyz     :     0.005778
      dx2y2   :     0.011186
      dxy     :     0.011313

 17 C s       :     3.219410  s :     3.219410
      pz      :     0.911570  p :     2.712398
      px      :     0.908739
      py      :     0.892089
      dz2     :     0.004087  d :     0.034611
      dxz     :     0.008343
      dyz     :     0.004373
      dx2y2   :     0.008815
      dxy     :     0.008992

 18 C s       :     3.228143  s :     3.228143
      pz      :     0.938715  p :     2.725496
      px      :     0.829923
      py      :     0.956858
      dz2     :     0.005531  d :     0.035150
      dxz     :     0.007773
      dyz     :     0.004847
      dx2y2   :     0.008077
      dxy     :     0.008921

 19 Brs       :     7.961583  s :     7.961583
      pz      :     5.882904  p :    17.037718
      px      :     5.306157
      py      :     5.848657
      dz2     :     2.005998  d :    10.045231
      dxz     :     2.011766
      dyz     :     2.002050
      dx2y2   :     2.012104
      dxy     :     2.013314

 20 H s       :     0.995259  s :     0.995259
      pz      :     0.004750  p :     0.022975
      px      :     0.009436
      py      :     0.008788

 21 H s       :     0.994491  s :     0.994491
      pz      :     0.007246  p :     0.023011
      px      :     0.004355
      py      :     0.011410

 22 H s       :     0.994109  s :     0.994109
      pz      :     0.012072  p :     0.023075
      px      :     0.007002
      py      :     0.004001

 23 H s       :     0.982564  s :     0.982564
      pz      :     0.007468  p :     0.023650
      px      :     0.004394
      py      :     0.011788

 24 H s       :     0.997197  s :     0.997197
      pz      :     0.011884  p :     0.022960
      px      :     0.007097
      py      :     0.003979

 25 H s       :     0.994051  s :     0.994051
      pz      :     0.011640  p :     0.023078
      px      :     0.007385
      py      :     0.004052

 26 H s       :     0.994632  s :     0.994632
      pz      :     0.004832  p :     0.023010
      px      :     0.009542
      py      :     0.008636

 27 H s       :     0.995115  s :     0.995115
      pz      :     0.006999  p :     0.022972
      px      :     0.004268
      py      :     0.011704

 28 H s       :     0.996637  s :     0.996637
      pz      :     0.011583  p :     0.022966
      px      :     0.007357
      py      :     0.004026

 29 H s       :     0.984813  s :     0.984813
      pz      :     0.005035  p :     0.023617
      px      :     0.009801
      py      :     0.008781

 30 H s       :     0.987175  s :     0.987175
      pz      :     0.009240  p :     0.023138
      px      :     0.003428
      py      :     0.010471

 31 H s       :     0.990575  s :     0.990575
      pz      :     0.005821  p :     0.023268
      px      :     0.011711
      py      :     0.005736

 32 H s       :     0.992980  s :     0.992980
      pz      :     0.009267  p :     0.023218
      px      :     0.003344
      py      :     0.010606

 33 H s       :     0.975127  s :     0.975127
      pz      :     0.005924  p :     0.023722
      px      :     0.011914
      py      :     0.005884



                     *******************************
                     * LOEWDIN POPULATION ANALYSIS *
                     *******************************

----------------------
LOEWDIN ATOMIC CHARGES
----------------------
   0 C :   -0.020813
   1 C :   -0.024160
   2 C :   -0.024622
   3 C :   -0.179607
   4 C :   -0.028307
   5 C :   -0.023982
   6 P :    0.521230
   7 C :   -0.179053
   8 C :   -0.023703
   9 C :   -0.024054
  10 C :   -0.020358
  11 C :   -0.023935
  12 C :   -0.028320
  13 C :   -0.178352
  14 C :   -0.016997
  15 C :   -0.035630
  16 C :   -0.118931
  17 C :   -0.035750
  18 C :   -0.021762
  19 Br:    0.101209
  20 H :    0.026205
  21 H :    0.027235
  22 H :    0.024373
  23 H :    0.027537
  24 H :    0.026501
  25 H :    0.024499
  26 H :    0.027168
  27 H :    0.026270
  28 H :    0.026686
  29 H :    0.026695
  30 H :    0.028587
  31 H :    0.031669
  32 H :    0.030978
  33 H :    0.031493

-------------------------------
LOEWDIN REDUCED ORBITAL CHARGES
-------------------------------
  0 C s       :     2.859627  s :     2.859627
      pz      :     1.038198  p :     3.069253
      px      :     1.001127
      py      :     1.029927
      dz2     :     0.021583  d :     0.091933
      dxz     :     0.016895
      dyz     :     0.023498
      dx2y2   :     0.012295
      dxy     :     0.017661

  1 C s       :     2.859992  s :     2.859992
      pz      :     1.032921  p :     3.072960
      px      :     1.017266
      py      :     1.022773
      dz2     :     0.018410  d :     0.091208
      dxz     :     0.018613
      dyz     :     0.022384
      dx2y2   :     0.016288
      dxy     :     0.015513

  2 C s       :     2.865742  s :     2.865742
      pz      :     1.020241  p :     3.067787
      px      :     1.007040
      py      :     1.040506
      dz2     :     0.016686  d :     0.091092
      dxz     :     0.015674
      dyz     :     0.020276
      dx2y2   :     0.018392
      dxy     :     0.020063

  3 C s       :     2.912379  s :     2.912379
      pz      :     1.067286  p :     3.175315
      px      :     1.049498
      py      :     1.058531
      dz2     :     0.020610  d :     0.091912
      dxz     :     0.018676
      dyz     :     0.024290
      dx2y2   :     0.012616
      dxy     :     0.015720

  4 C s       :     2.864823  s :     2.864823
      pz      :     1.024924  p :     3.071902
      px      :     1.017514
      py      :     1.029464
      dz2     :     0.018102  d :     0.091582
      dxz     :     0.018781
      dyz     :     0.022780
      dx2y2   :     0.016537
      dxy     :     0.015382

  5 C s       :     2.860605  s :     2.860605
      pz      :     1.019474  p :     3.072216
      px      :     1.009154
      py      :     1.043588
      dz2     :     0.016633  d :     0.091161
      dxz     :     0.015526
      dyz     :     0.020616
      dx2y2   :     0.018874
      dxy     :     0.019513

  6 P s       :     5.230776  s :     5.230776
      pz      :     3.401534  p :     8.997725
      px      :     2.788798
      py      :     2.807393
      dz2     :     0.024424  d :     0.250269
      dxz     :     0.039387
      dyz     :     0.056736
      dx2y2   :     0.057711
      dxy     :     0.072010

  7 C s       :     2.912240  s :     2.912240
      pz      :     1.063772  p :     3.174855
      px      :     1.043940
      py      :     1.067143
      dz2     :     0.020197  d :     0.091958
      dxz     :     0.017322
      dyz     :     0.021906
      dx2y2   :     0.016227
      dxy     :     0.016307

  8 C s       :     2.865826  s :     2.865826
      pz      :     1.019219  p :     3.066763
      px      :     1.007744
      py      :     1.039800
      dz2     :     0.015608  d :     0.091114
      dxz     :     0.015948
      dyz     :     0.019868
      dx2y2   :     0.019634
      dxy     :     0.020056

  9 C s       :     2.860007  s :     2.860007
      pz      :     1.035559  p :     3.072885
      px      :     1.006061
      py      :     1.031265
      dz2     :     0.020496  d :     0.091162
      dxz     :     0.016437
      dyz     :     0.023053
      dx2y2   :     0.013076
      dxy     :     0.018100

 10 C s       :     2.859663  s :     2.859663
      pz      :     1.027815  p :     3.068773
      px      :     1.017670
      py      :     1.023288
      dz2     :     0.017730  d :     0.091922
      dxz     :     0.018569
      dyz     :     0.021825
      dx2y2   :     0.017559
      dxy     :     0.016238

 11 C s       :     2.860607  s :     2.860607
      pz      :     1.016802  p :     3.072192
      px      :     1.011653
      py      :     1.043736
      dz2     :     0.015560  d :     0.091136
      dxz     :     0.015820
      dyz     :     0.020234
      dx2y2   :     0.019207
      dxy     :     0.020315

 12 C s       :     2.864876  s :     2.864876
      pz      :     1.026207  p :     3.071792
      px      :     1.011084
      py      :     1.034501
      dz2     :     0.020181  d :     0.091653
      dxz     :     0.016335
      dyz     :     0.024081
      dx2y2   :     0.013097
      dxy     :     0.017958

 13 C s       :     2.912723  s :     2.912723
      pz      :     1.035767  p :     3.173998
      px      :     1.085336
      py      :     1.052895
      dz2     :     0.013836  d :     0.091631
      dxz     :     0.020942
      dyz     :     0.015037
      dx2y2   :     0.020880
      dxy     :     0.020936

 14 C s       :     2.865773  s :     2.865773
      pz      :     0.994990  p :     3.060085
      px      :     1.061933
      py      :     1.003162
      dz2     :     0.009576  d :     0.091139
      dxz     :     0.021132
      dyz     :     0.011188
      dx2y2   :     0.026295
      dxy     :     0.022948

 15 C s       :     2.863661  s :     2.863661
      pz      :     1.008839  p :     3.081030
      px      :     1.054143
      py      :     1.018049
      dz2     :     0.013405  d :     0.090939
      dxz     :     0.018365
      dyz     :     0.014859
      dx2y2   :     0.023027
      dxy     :     0.021283

 16 C s       :     2.906813  s :     2.906813
      pz      :     1.054028  p :     3.102423
      px      :     0.990667
      py      :     1.057728
      dz2     :     0.016766  d :     0.109695
      dxz     :     0.023620
      dyz     :     0.015240
      dx2y2   :     0.027283
      dxy     :     0.026786

 17 C s       :     2.864277  s :     2.864277
      pz      :     1.005362  p :     3.080534
      px      :     1.062521
      py      :     1.012651
      dz2     :     0.009741  d :     0.090939
      dxz     :     0.021446
      dyz     :     0.010716
      dx2y2   :     0.025123
      dxy     :     0.023913

 18 C s       :     2.865073  s :     2.865073
      pz      :     0.995776  p :     3.065023
      px      :     1.048420
      py      :     1.020827
      dz2     :     0.012737  d :     0.091666
      dxz     :     0.020106
      dyz     :     0.013481
      dx2y2   :     0.021539
      dxy     :     0.023803

 19 Brs       :     7.799154  s :     7.799154
      pz      :     5.865503  p :    17.035328
      px      :     5.336702
      py      :     5.833124
      dz2     :     2.008541  d :    10.064309
      dxz     :     2.016314
      dyz     :     2.002694
      dx2y2   :     2.017629
      dxy     :     2.019131

 20 H s       :     0.906259  s :     0.906259
      pz      :     0.014751  p :     0.067536
      px      :     0.027196
      py      :     0.025589

 21 H s       :     0.905240  s :     0.905240
      pz      :     0.021350  p :     0.067525
      px      :     0.013577
      py      :     0.032598

 22 H s       :     0.907315  s :     0.907315
      pz      :     0.034700  p :     0.068313
      px      :     0.021008
      py      :     0.012605

 23 H s       :     0.902602  s :     0.902602
      pz      :     0.022338  p :     0.069861
      px      :     0.013772
      py      :     0.033751

 24 H s       :     0.905951  s :     0.905951
      pz      :     0.033903  p :     0.067548
      px      :     0.020948
      py      :     0.012697

 25 H s       :     0.907193  s :     0.907193
      pz      :     0.033398  p :     0.068307
      px      :     0.022205
      py      :     0.012705

 26 H s       :     0.905308  s :     0.905308
[...]
      py      :     1.040676
      dz2     :     0.015735  d :     0.090298
      dxz     :     0.016315
      dyz     :     0.019697
      dx2y2   :     0.018721
      dxy     :     0.019830

 12 C s       :     2.866790  s :     2.866790
      pz      :     1.030460  p :     3.072815
      px      :     1.012216
      py      :     1.030139
      dz2     :     0.021067  d :     0.091303
      dxz     :     0.016813
      dyz     :     0.023126
      dx2y2   :     0.012462
      dxy     :     0.017835

 13 C s       :     2.916423  s :     2.916423
      pz      :     1.036411  p :     3.167825
      px      :     1.083616
      py      :     1.047798
      dz2     :     0.014008  d :     0.090529
      dxz     :     0.020809
      dyz     :     0.014825
      dx2y2   :     0.020467
      dxy     :     0.020420

 14 C s       :     2.866158  s :     2.866158
      pz      :     0.997526  p :     3.062610
      px      :     1.064777
      py      :     1.000307
      dz2     :     0.010227  d :     0.091798
      dxz     :     0.021831
      dyz     :     0.011272
      dx2y2   :     0.025834
      dxy     :     0.022634

 15 C s       :     2.866177  s :     2.866177
      pz      :     1.010370  p :     3.079712
      px      :     1.053611
      py      :     1.015730
      dz2     :     0.014085  d :     0.090229
      dxz     :     0.018341
      dyz     :     0.014981
      dx2y2   :     0.022852
      dxy     :     0.019970

 16 C s       :     2.913054  s :     2.913054
      pz      :     1.050343  p :     3.092731
      px      :     0.988267
      py      :     1.054122
      dz2     :     0.016558  d :     0.106309
      dxz     :     0.023364
      dyz     :     0.014869
      dx2y2   :     0.025997
      dxy     :     0.025521

 17 C s       :     2.866409  s :     2.866409
      pz      :     1.006454  p :     3.079525
      px      :     1.061591
      py      :     1.011480
      dz2     :     0.009995  d :     0.090354
      dxz     :     0.021548
      dyz     :     0.010648
      dx2y2   :     0.024581
      dxy     :     0.023581

 18 C s       :     2.866142  s :     2.866142
      pz      :     0.999502  p :     3.064850
      px      :     1.047763
      py      :     1.017585
      dz2     :     0.013531  d :     0.091710
      dxz     :     0.020217
      dyz     :     0.013735
      dx2y2   :     0.021518
      dxy     :     0.022708

 19 Brs       :     7.806192  s :     7.806192
      pz      :     5.851005  p :    17.040610
      px      :     5.353231
      py      :     5.836374
      dz2     :     2.007961  d :    10.061660
      dxz     :     2.016735
      dyz     :     2.002873
      dx2y2   :     2.016127
      dxy     :     2.017965

 20 H s       :     0.905756  s :     0.905756
      pz      :     0.015021  p :     0.066580
      px      :     0.026167
      py      :     0.025391

 21 H s       :     0.905175  s :     0.905175
      pz      :     0.020457  p :     0.066533
      px      :     0.013557
      py      :     0.032519

 22 H s       :     0.907515  s :     0.907515
      pz      :     0.035573  p :     0.067360
      px      :     0.019742
      py      :     0.012044

 23 H s       :     0.900630  s :     0.900630
      pz      :     0.020731  p :     0.069709
      px      :     0.014177
      py      :     0.034801

 24 H s       :     0.905673  s :     0.905673
      pz      :     0.034657  p :     0.066549
      px      :     0.019545
      py      :     0.012347

 25 H s       :     0.907503  s :     0.907503
      pz      :     0.033592  p :     0.067356
      px      :     0.021382
      py      :     0.012381

 26 H s       :     0.905262  s :     0.905262
      pz      :     0.013920  p :     0.066524
      px      :     0.027549
      py      :     0.025054

 27 H s       :     0.905758  s :     0.905758
      pz      :     0.021506  p :     0.066579
      px      :     0.013061
      py      :     0.032013

 28 H s       :     0.905459  s :     0.905459
      pz      :     0.032731  p :     0.066568
      px      :     0.021518
      py      :     0.012319

 29 H s       :     0.901763  s :     0.901763
      pz      :     0.013969  p :     0.069546
      px      :     0.028547
      py      :     0.027030

 30 H s       :     0.903567  s :     0.903567
      pz      :     0.027387  p :     0.067399
      px      :     0.010546
      py      :     0.029466

 31 H s       :     0.899157  s :     0.899157
      pz      :     0.016476  p :     0.067879
      px      :     0.034712
      py      :     0.016691

 32 H s       :     0.899581  s :     0.899581
      pz      :     0.027560  p :     0.067904
      px      :     0.010315
      py      :     0.030028

 33 H s       :     0.896805  s :     0.896805
      pz      :     0.016655  p :     0.069862
      px      :     0.036311
      py      :     0.016896



                      *****************************
                      * MAYER POPULATION ANALYSIS *
                      *****************************

  NA   - Mulliken gross atomic population
  ZA   - Total nuclear charge
  QA   - Mulliken gross atomic charge
  VA   - Mayer's total valence
  BVA  - Mayer's bonded valence
  FA   - Mayer's free valence

  ATOM       NA         ZA         QA         VA         BVA        FA
  0 C      5.9760     6.0000     0.0240     3.8248     3.8248    -0.0000
  1 C      5.9791     6.0000     0.0209     3.8534     3.8534    -0.0000
  2 C      5.9752     6.0000     0.0248     3.8693     3.8693    -0.0000
  3 C      6.1695     6.0000    -0.1695     3.8186     3.8186    -0.0000
  4 C      5.9824     6.0000     0.0176     3.8782     3.8782    -0.0000
  5 C      5.9746     6.0000     0.0254     3.8321     3.8321    -0.0000
  6 P     14.6330    15.0000     0.3670     2.9298     2.9298    -0.0000
  7 C      6.1666     6.0000    -0.1666     3.8207     3.8207    -0.0000
  8 C      5.9739     6.0000     0.0261     3.8699     3.8699    -0.0000
  9 C      5.9789     6.0000     0.0211     3.8531     3.8531    -0.0000
 10 C      5.9761     6.0000     0.0239     3.8253     3.8253    -0.0000
 11 C      5.9747     6.0000     0.0253     3.8338     3.8338    -0.0000
 12 C      5.9820     6.0000     0.0180     3.8777     3.8777    -0.0000
 13 C      6.1556     6.0000    -0.1556     3.7895     3.7895    -0.0000
 14 C      5.9781     6.0000     0.0219     3.8812     3.8812    -0.0000
 15 C      5.9678     6.0000     0.0322     3.8938     3.8938    -0.0000
 16 C      6.0143     6.0000    -0.0143     3.8472     3.8472    -0.0000
 17 C      5.9619     6.0000     0.0381     3.8699     3.8699    -0.0000
 18 C      5.9855     6.0000     0.0145     3.8891     3.8891    -0.0000
 19 Br    35.0496    35.0000    -0.0496     1.0984     1.0984    -0.0000
 20 H      1.0138     1.0000    -0.0138     0.9776     0.9776    -0.0000
 21 H      1.0137     1.0000    -0.0137     0.9778     0.9778    -0.0000
 22 H      1.0149     1.0000    -0.0149     0.9898     0.9898     0.0000
 23 H      1.0005     1.0000    -0.0005     0.9912     0.9912    -0.0000
 24 H      1.0163     1.0000    -0.0163     0.9777     0.9777    -0.0000
 25 H      1.0149     1.0000    -0.0149     0.9897     0.9897    -0.0000
 26 H      1.0140     1.0000    -0.0140     0.9778     0.9778    -0.0000
 27 H      1.0138     1.0000    -0.0138     0.9776     0.9776    -0.0000
 28 H      1.0158     1.0000    -0.0158     0.9777     0.9777    -0.0000
 29 H      1.0026     1.0000    -0.0026     0.9901     0.9901     0.0000
 30 H      1.0084     1.0000    -0.0084     0.9910     0.9910     0.0000
 31 H      1.0104     1.0000    -0.0104     0.9955     0.9955    -0.0000
 32 H      1.0125     1.0000    -0.0125     0.9953     0.9953    -0.0000
 33 H      0.9935     1.0000     0.0065     0.9924     0.9924    -0.0000

  Mayer bond orders larger than 0.100000
B(  0-C ,  1-C ) :   1.3759 B(  0-C ,  5-C ) :   1.3818 B(  0-C , 20-H ) :   0.9846 
B(  1-C ,  2-C ) :   1.4053 B(  1-C , 21-H ) :   0.9850 B(  2-C ,  3-C ) :   1.3693 
B(  2-C , 22-H ) :   0.9820 B(  3-C ,  4-C ) :   1.3853 B(  3-C ,  6-P ) :   0.9316 
B(  4-C ,  5-C ) :   1.3835 B(  4-C , 23-H ) :   0.9797 B(  5-C , 24-H ) :   0.9840 
B(  6-P ,  7-C ) :   0.9333 B(  6-P , 13-C ) :   0.9271 B(  7-C ,  8-C ) :   1.3707 
B(  7-C , 12-C ) :   1.3839 B(  8-C ,  9-C ) :   1.4049 B(  8-C , 25-H ) :   0.9818 
B(  9-C , 10-C ) :   1.3761 B(  9-C , 26-H ) :   0.9849 B( 10-C , 11-C ) :   1.3817 
B( 10-C , 27-H ) :   0.9846 B( 11-C , 12-C ) :   1.3848 B( 11-C , 28-H ) :   0.9840 
B( 12-C , 29-H ) :   0.9794 B( 13-C , 14-C ) :   1.3614 B( 13-C , 18-C ) :   1.3800 
B( 14-C , 15-C ) :   1.4066 B( 14-C , 30-H ) :   0.9799 B( 15-C , 16-C ) :   1.3826 
B( 15-C , 31-H ) :   0.9860 B( 16-C , 17-C ) :   1.3883 B( 16-C , 19-Br) :   0.9767 
B( 17-C , 18-C ) :   1.3824 B( 17-C , 32-H ) :   0.9856 B( 18-C , 33-H ) :   0.9775 


-------
TIMINGS
-------

Total SCF time: 0 days 0 hours 0 min 21 sec 

Total time                  ....      21.285 sec
Sum of individual times     ....      21.200 sec  ( 99.6%)

SCF preparation             ....       0.121 sec  (  0.6%)
Fock matrix formation       ....      20.605 sec  ( 96.8%)
  Startup                   ....       0.029 sec  (  0.1% of F)
  Exchange formation        ....      15.931 sec  ( 77.3% of F)
  Split-RI-J                ....       1.666 sec  (  8.1% of F)
  XC integration            ....       2.890 sec  ( 14.0% of F)
    Basis function eval.    ....       0.885 sec  ( 30.6% of XC)
    Density eval.           ....       0.836 sec  ( 28.9% of XC)
    XC-Functional eval.     ....       0.070 sec  (  2.4% of XC)
    XC-Potential eval.      ....       0.617 sec  ( 21.3% of XC)
Diagonalization             ....       0.000 sec  (  0.0%)
Density matrix formation    ....       0.061 sec  (  0.3%)
Total Energy calculation    ....       0.023 sec  (  0.1%)
Population analysis         ....       0.078 sec  (  0.4%)
Orbital Transformation      ....       0.036 sec  (  0.2%)
Orbital Orthonormalization  ....       0.000 sec  (  0.0%)
DIIS solution               ....       0.049 sec  (  0.2%)
SOSCF solution              ....       0.227 sec  (  1.1%)
Finished LeanSCF after  21.3 sec

Maximum memory used throughout the entire LEANSCF-calculation: 38.0 MB


-------------------------------------------------------------------------------
                          DFT DISPERSION CORRECTION                            
                                                                               
                              DFTD3 V3.1  Rev 1                                
                          USING Becke-Johnson damping                          
-------------------------------------------------------------------------------
The B3LYP functional is recognized
Active option DFTDOPT                   ...         4   

molecular C6(AA) [au] = 19577.442397 


            DFT-D V3
 parameters
 s6 scaling factor         :     1.0000 
 a1 scaling factor         :     0.3981 
 s8 scaling factor         :     1.9889 
 a2 scaling factor         :     4.4211 
 ad hoc parameters k1-k3   :    16.0000     1.3333    -4.0000 

 Edisp/kcal,au: -56.806367735592  -0.090526699634 
 E6   /kcal   : -25.351131231 
 E8   /kcal   : -31.455236504 
 % E8         :  55.372729781 

-------------------------   ----------------
Dispersion correction           -0.090526700
-------------------------   ----------------


-------------------------   --------------------
FINAL SINGLE POINT ENERGY     -3608.427074651719
-------------------------   --------------------

                                *** OPTIMIZATION RUN DONE ***



           ************************************************************
           *        Program running with 6 parallel MPI-processes     *
           *              working on a common directory               *
           ************************************************************

------------------------------------------------------------------------------
                              ORCA PROPERTY CALCULATIONS
------------------------------------------------------------------------------

GBWName                                 ... data/geom_opt/69773/69773.gbw
Number of atoms                         ...     34
Number of basis functions               ...    372
Max core memory                         ...   1024 MB

Electric properties:
Dipole moment                           ... YES
Quadrupole moment                       ...  NO
Static polarizability (Dipole/Dipole)   ...  NO
Static polarizability (Dipole/Quad.)    ...  NO
Static polarizability (Quad./Quad.)     ...  NO
Static polarizability (Velocity)        ...  NO

Atomic electric properties:
Dipole moment                           ...  NO
Quadrupole moment                       ...  NO
Static polarizability                   ...  NO

Choice of electric origin               ... Center of mass
Position of electric origin             ...     2.416088    -0.871181     0.014038

General magnetic properties:
Magnetizability                         ...  NO

EPR properties:
g-Tensor (aka g-matrix)                 ...  NO
Zero-Field splitting spin-orbit         ...  NO
Zero-field splitting spin-spin          ...  NO
Hyperfine couplings                     ...  NO (   0 nuclei)
Quadrupole couplings                    ...  NO (   0 nuclei)
Contact density                         ...  NO (   0 nuclei)

NMR properties:
Chemical shifts                         ...  NO (   0 nuclei)
Spin-rotation constants                 ...  NO (   0 nuclei)
Spin-spin couplings                     ...  NO (   0 nuclei,    0 pairs)

Choice of magnetic origin               ... GIAO
Position of magnetic origin             ...     0.000000     0.000000     0.000000

Properties with geometric perturbations:
SCF Hessian                             ...  NO
IR spectrum                             ...  NO
VCD spectrum                            ...  NO
X-ray spectroscopy properties:
SCF XES/XAS/RIXS spectra                ...  NO


-------------
DIPOLE MOMENT
-------------

Method             : SCF
Type of density    : Electron Density
Multiplicity       :   1
Irrep              :   0
Energy             : -3608.3365479520848567 Eh
Relativity type    : 
Basis              : AO
                                X                 Y                 Z
Electronic contribution:     60.070196558     -22.257982583       4.148994132
Nuclear contribution   :    -60.691028103      22.424205866      -3.806017379
                        -----------------------------------------
Total Dipole Moment    :     -0.620831546       0.166223284       0.342976754
                        -----------------------------------------
Magnitude (a.u.)       :      0.728488189
Magnitude (Debye)      :      1.851669822



--------------------
Rotational spectrum 
--------------------
 
Rotational constants in cm-1:             0.011522             0.004560             0.003644 
Rotational constants in MHz :           345.411040           136.713984           109.238019 

Dipole components along the rotational axes: 
x,y,z [a.u.] :    -0.610166     0.004580     0.397959 
x,y,z [Debye]:    -1.550919     0.011642     1.011532 

 

Dipole moment calculation done in   0.0 sec 

Maximum memory used throughout the entire PROP-calculation: 19.5 MB

--------------------------------
SUGGESTED CITATIONS FOR THIS RUN
--------------------------------

Below you find a list of papers that are relevant to this ORCA run
We neither can nor want to force you to cite these papers, but we appreciate if you do
You receive ORCA, which is the product of decades of hard work by many enthusiastic individuals, for free
The only thing we kindly ask in return is that you cite our papers,
We deeply appreciate it, if you show your appreciation for ORCA by not just citing the generic ORCA reference.

Please note that relegating all ORCA citations to the supporting information does *not* help us.
SI sections are not indexed - citations you put there will not count into any citation statistics
But we need these citations in order to attract the funding resources that allow us to do what we are doing

Therefore, if you are a happy ORCA user, please consider citing a few of the papers listed below in the main body of your paper

In addition to the list printed below, the program has created the file data/geom_opt/69773/69773.bibtex that contains the list in bibtex format
You can import this file easily into all common literature databanks and citation aid programs


List of essential papers. We consider these as the minimum necessary citations

  1. Neese,F.
     Software update: the ORCA program system, version 5.0
     WIRES Comput. Molec. Sci., 2022 12(1)e1606
     doi.org/10.1002/wcms.1606

List of papers to cite with high priority. The work reported in these papers was absolutely
necessary for this run to complete.
Our perspective: the developers of density functionals and basis sets usually get cited in chemistry papers
Good! But without the algorithms to do something with them, the functionals or basis sets would not do anything.
Hence, in our opinion, the algorithm design and method developments papers are equally worthy of getting cited

  1. Neese,F.
     An improvement of the resolution of the identity approximation for the formation of the Coulomb matrix
     J. Comp. Chem., 2003 24(14)1740-1747
     doi.org/10.1002/jcc.10318
  2. Neese,F.
     The SHARK Integral Generation and Digestion System
     J. Comp. Chem., 2022  1-16
     doi.org/10.1002/jcc.26942
  3. Grimme,S.; Antony,J.; Ehrlich,S.; Krieg,H.
     A consistent and accurate ab initio parametrization of density functional dispersion correction (DFT-D) for the 94 elements H-Pu
     J. Chem. Phys., 2010 132 154104-XXXX
     doi.org/10.1063/1.3382344
  4. Grimme,S.; Ehrlich,S.; Goerigk,L.
     Effect of the damping function in dispersion corrected density functional theory
     J. Comput. Chem., 2011 32(7)1456-1465
     doi.org/10.1002/jcc.21759

List of suggested additional citations. These are papers that are important in the 'surrounding' of 
of this run, or papers that preceded the highly important papers. If you like your results we are grateful for a citation.

  1. Neese,F.
     The ORCA program system
     WIRES Comput. Molec. Sci., 2012 2(1)73-78
     doi.org/10.1002/wcms.81
  2. Neese,F.
     Software update: the ORCA program system, version 4.0
     WIRES Comput. Molec. Sci., 2018 8(1)1-6
     doi.org/10.1002/wcms.1327
  3. Neese,F.; Wennmohs,F.; Becker,U.; Riplinger,C.
     The ORCA quantum chemistry program package
     J. Chem. Phys., 2020 152 Art. No. L224108
     doi.org/10.1063/5.0004608

List of optional additional citations

  1. Neese,F.
     Approximate second-order SCF convergence for spin unrestricted wavefunctions
     Chem. Phys. Lett., 2000 325(1-3)93-98
     doi.org/10.1016/s0009-2614(00)00662-x

Timings for individual modules:

Sum of individual times          ...      359.971 sec (=   6.000 min)
Startup calculation              ...        9.362 sec (=   0.156 min)   2.6 %
SCF iterations                   ...      243.093 sec (=   4.052 min)  67.5 %
Property calculations            ...        0.186 sec (=   0.003 min)   0.1 %
SCF Gradient evaluation          ...      107.235 sec (=   1.787 min)  29.8 %
Geometry relaxation              ...        0.095 sec (=   0.002 min)   0.0 %
                             ****ORCA TERMINATED NORMALLY****
TOTAL RUN TIME: 0 days 0 hours 6 minutes 1 seconds 234 msec
