
                                 *****************
                                 * O   R   C   A *
                                 *****************

                                            #,                                       
                                            ###                                      
                                            ####                                     
                                            #####                                    
                                            ######                                   
                                           ########,                                 
                                     ,,################,,,,,                         
                               ,,#################################,,                 
                          ,,##########################################,,             
                       ,#########################################, ''#####,          
                    ,#############################################,,   '####,        
                  ,##################################################,,,,####,       
                ,###########''''           ''''###############################       
              ,#####''   ,,,,##########,,,,          '''####'''          '####       
            ,##' ,,,,###########################,,,                        '##       
           ' ,,###''''                  '''############,,,                           
         ,,##''                                '''############,,,,        ,,,,,,###''
      ,#''                                            '''#######################'''  
     '                                                          ''''####''''         
             ,#######,   #######,   ,#######,      ##                                
            ,#'     '#,  ##    ##  ,#'     '#,    #''#        ,####,   ,####,        
            ##       ##  ##   ,#'  ##            #'  '#       #'       #'  '#        
            ##       ##  #######   ##           ,######,      #####,   #    #        
            '#,     ,#'  ##    ##  '#,     ,#' ,#      #,     #,   #   #,  ,#        
             '#######'   ##     ##  '#######'  #'      '#     '####' # '####'        



                #########################################################
                #                        -***-                          #
                #          Department of theory and spectroscopy        #
                #                                                       #
                #                      Frank Neese                      #
                #                                                       #
                #     Directorship, Architecture, Infrastructure        #
                #                    SHARK, DRIVERS                     #
                #        Core code/Algorithms in most modules           #
                #                                                       #
                #        Max Planck Institute fuer Kohlenforschung      #
                #                Kaiser Wilhelm Platz 1                 #
                #                 D-45470 Muelheim/Ruhr                 #
                #                      Germany                          #
                #                                                       #
                #                  All rights reserved                  #
                #                        -***-                          #
                #########################################################


                         Program Version 6.0.0  -   RELEASE   -


 With contributions from (in alphabetic order):
   Daniel Aravena         : Magnetic Suceptibility
   Michael Atanasov       : Ab Initio Ligand Field Theory (pilot matlab implementation)
   Alexander A. Auer      : GIAO ZORA, VPT2 properties, NMR spectrum
   Ute Becker             : All parallelization in ORCA, NUMFREQ, NUMCALC
   Giovanni Bistoni       : ED, misc. LED, open-shell LED, HFLD
   Martin Brehm           : Molecular dynamics
   Dmytro Bykov           : pre 5.0 version of the SCF Hessian
   Marcos Casanova-Páez   : Triplet and SCS-CIS(D). UHF-(DLPNO)-IP/EA/STEOM-CCSD. UHF-CVS-IP/STEOM-CCSD
   Vijay G. Chilkuri      : MRCI spin determinant printing, contributions to CSF-ICE
   Pauline Colinet        : FMM embedding
   Dipayan Datta          : RHF DLPNO-CCSD density
   Achintya Kumar Dutta   : EOM-CC, STEOM-CC
   Nicolas Foglia         : Exact transition moments, OPA infrastructure, MCD improvements
   Dmitry Ganyushin       : Spin-Orbit,Spin-Spin,Magnetic field MRCI
   Miquel Garcia          : C-PCM and meta-GGA Hessian, CCSD/C-PCM, Gaussian charge scheme
   Tiago L. C. Gouveia    : GS-ROHF, GS-ROCIS
   Yang Guo               : DLPNO-NEVPT2, F12-NEVPT2, CIM, IAO-localization
   Andreas Hansen         : Spin unrestricted coupled pair/coupled cluster methods
   Ingolf Harden          : AUTO-CI MPn and infrastructure 
   Benjamin Helmich-Paris : MC-RPA, TRAH-(SCF,CASSCF), AVAS, COSX integrals, SCF dyn. polar.
   Lee Huntington         : MR-EOM, pCC
   Robert Izsak           : Overlap fitted RIJCOSX, COSX-SCS-MP3, EOM
   Riya Kayal             : Wick's Theorem for AUTO-CI, AUTO-CI UHF-CCSDT
   Emily Kempfer          : AUTO-CI, RHF CISDT and CCSDT
   Christian Kollmar      : KDIIS, OOCD, Brueckner-CCSD(T), CCSD density, CASPT2, CASPT2-K, improved NEVPT2
   Axel Koslowski         : Symmetry handling
   Simone Kossmann        : Meta GGA functionals, TD-DFT gradient, OOMP2, (MP2 Hessian; deprecated post 5.0)
   Lucas Lang             : DCDCAS
   Marvin Lechner         : AUTO-CI (C++ implementation), FIC-MRCC
   Spencer Leger          : CASSCF response
   Dagmar Lenk            : GEPOL surface, SMD, ORCA-2-JSON
   Dimitrios Liakos       : Extrapolation schemes; Compound Job, initial MDCI parallelization
   Dimitrios Manganas     : Further ROCIS development; embedding schemes. LFT, Crystal Embedding
   Dimitrios Pantazis     : SARC Basis sets
   Anastasios Papadopoulos: AUTO-CI, single reference methods and gradients
   Taras Petrenko         : pre 6.0 DFT Hessian and TD-DFT gradient, (ASA, deprecated), ECA, 1-Electron XAS/XES, NRVS
   Peter Pinski           : DLPNO-MP2, DLPNO-MP2 Gradient
   Christoph Reimann      : Effective Core Potentials
   Marius Retegan         : Local ZFS, SOC
   Christoph Riplinger    : Optimizer, TS searches, QM/MM, DLPNO-CCSD(T), (RO)-DLPNO pert. Triples
   Michael Roemelt        : Original ROCIS implementation
   Masaaki Saitow         : Open-shell DLPNO-CCSD energy and density
   Barbara Sandhoefer     : DKH picture change effects
   Kantharuban Sivalingam : CASSCF convergence/infrastructure, NEVPT2 and variants, FIC-MRCI
   Bernardo de Souza      : ESD, SOC TD-DFT
   Georgi Stoychev        : AutoAux, RI-MP2 NMR, DLPNO-MP2 response, X2C
   Van Anh Tran           : RI-MP2 g-tensors
   Willem Van den Heuvel  : Paramagnetic NMR
   Zikuan Wang            : NOTCH, Electric field optimization 
   Frank Wennmohs         : Technical directorship and infrastructure
   Hang Xu                : AUTO-CI-Response properties 


 We gratefully acknowledge several colleagues who have allowed us to
 interface, adapt or use parts of their codes:
   Stefan Grimme, W. Hujo, H. Kruse, P. Pracht,  : VdW corrections, initial TS optimization,
                  C. Bannwarth, S. Ehlert,         DFT functionals, gCP, sTDA/sTD-DF
                  L. Wittmann, M. Mueller
   Ed Valeev, F. Pavosevic, A. Kumar             : LibInt (2-el integral package), F12 methods
   Garnet Chan, S. Sharma, J. Yang, R. Olivares  : DMRG
   Ulf Ekstrom                                   : XCFun DFT Library
   Mihaly Kallay                                 : mrcc  (arbitrary order and MRCC methods)
   Frank Weinhold                                : gennbo (NPA and NBO analysis)
   Simon Mueller                                 : openCOSMO-RS
   Christopher J. Cramer and Donald G. Truhlar   : smd solvation model
   Lars Goerigk                                  : TD-DFT with DH, B97 family of functionals
   V. Asgeirsson, H. Jonsson                     : NEB implementation
   FAccTs GmbH                                   : IRC, NEB, NEB-TS, DLPNO-Multilevel, CI-OPT
                                                   MM, QMMM, 2- and 3-layer-ONIOM, Crystal-QMMM,
                                                   LR-CPCM, SF, NACMEs, symmetry and pop. for TD-DFT,
                                                   nearIR, NL-DFT gradient (VV10), updates on ESD,
                                                   ML-optimized integration grids, MBIS, APM,
                                                   GOAT, DOCKER, SOLVATOR, interface openCOSMO-RS
   S Lehtola, MJT Oliveira, MAL Marques          : LibXC Library
   Liviu Ungur et al                             : ANISO software


 Your calculation uses the libint2 library for the computation of 2-el integrals
 For citations please refer to: http://libint.valeyev.net

 Your ORCA version has been built with support for libXC version: 6.2.2
 For citations please refer to: https://libxc.gitlab.io

 This ORCA versions uses:
   CBLAS   interface :  Fast vector & matrix operations
   LAPACKE interface :  Fast linear algebra routines
   Shared memory     :  Shared parallel matrices


Your calculation utilizes the atom-pairwise dispersion correction
with the Becke-Johnson damping scheme (D3BJ)


Warning: RI is on but no J-basis has been assigned. Assigning Def2/J (nothing to worry about!)
================================================================================

----- Orbital basis set information -----
Your calculation utilizes the basis: def2-SVP
   F. Weigend and R. Ahlrichs, Phys. Chem. Chem. Phys. 7, 3297 (2005).

----- AuxJ basis set information -----
Your calculation utilizes the auxiliary basis: def2/J
   F. Weigend, Phys. Chem. Chem. Phys. 8, 1057 (2006).

================================================================================
                                        WARNINGS
                       Please study these warnings very carefully!
================================================================================


WARNING: Geometry Optimization
  ===> : Switching off AutoStart
         For restart on a previous wavefunction, please use MOREAD

================================================================================
                                       INPUT FILE
================================================================================
NAME = data/geom_opt/70575/70575.inp
|  1> ! RIJONX B3LYP def2-SVP D3BJ TIGHTSCF Opt
|  2> %pal
|  3> nprocs 6
|  4> end
|  5> 
|  6> * xyz 0 1
|  7> C      5.212665    0.090662    0.749749
|  8> C      3.796917    0.046819    0.257950
|  9> C      2.840623   -0.732235    0.914540
| 10> C      1.525700   -0.799946    0.438592
| 11> C      1.135110   -0.097837   -0.709638
| 12> C      2.110359    0.667542   -1.372001
| 13> C      3.424602    0.736829   -0.897845
| 14> P     -0.548602   -0.122653   -1.406633
| 15> C     -1.382763   -1.469371   -0.504898
| 16> C     -1.206141   -2.783623   -0.974492
| 17> C     -1.813950   -3.868326   -0.336045
| 18> C     -2.612719   -3.658270    0.783552
| 19> C     -2.802792   -2.365491    1.263179
| 20> C     -2.193770   -1.280489    0.623944
| 21> C     -1.322076    1.392777   -0.751933
| 22> C     -2.551139    1.795979   -1.305101
| 23> C     -3.204572    2.946971   -0.855791
| 24> C     -2.638938    3.718648    0.154243
| 25> C     -1.421971    3.339325    0.713280
| 26> C     -0.768860    2.186993    0.263383
| 27> H      5.251780   -0.023792    1.838144
| 28> H      5.680808    1.050589    0.507632
| 29> H      5.794329   -0.713153    0.288150
| 30> H      3.108716   -1.295796    1.805608
| 31> H      0.818401   -1.412399    0.991807
| 32> H      1.854801    1.224467   -2.272085
| 33> H      4.152743    1.335312   -1.440586
| 34> H     -0.585060   -2.977118   -1.847641
| 35> H     -1.661853   -4.875097   -0.716072
| 36> H     -3.087184   -4.499797    1.281075
| 37> H     -3.426566   -2.195823    2.137118
| 38> H     -2.364657   -0.288654    1.034512
| 39> H     -3.017205    1.210171   -2.095794
| 40> H     -4.154154    3.237856   -1.297171
| 41> H     -3.144403    4.614514    0.504583
| 42> H     -0.975161    3.939284    1.501994
| 43> H      0.176982    1.925131    0.730689
| 44> **                         ****END OF INPUT****
================================================================================

                       *****************************
                       * Geometry Optimization Run *
                       *****************************

Geometry optimization settings:
Update method            Update   .... BFGS
Choice of coordinates    CoordSys .... (2022) Redundant Internals
Initial Hessian          InHess   .... Almloef's Model
Max. no of cycles        MaxIter  .... 111

Convergence Tolerances:
Energy Change            TolE     ....  5.0000e-06 Eh
Max. Gradient            TolMAXG  ....  3.0000e-04 Eh/bohr
RMS Gradient             TolRMSG  ....  1.0000e-04 Eh/bohr
Max. Displacement        TolMAXD  ....  4.0000e-03 bohr
RMS Displacement         TolRMSD  ....  2.0000e-03 bohr
Strict Convergence                .... False

------------------------------------------------------------------------------
                        ORCA OPTIMIZATION COORDINATE SETUP
------------------------------------------------------------------------------

The optimization will be done in redundant internal coordinates (2022)
Making redundant internal coordinates   ...  (2022 redundants) done
Evaluating the initial hessian          ...  (Almloef) done
Evaluating the coordinates              ...  done
Calculating the B-matrix                .... done
Calculating the G-matrix                .... done
Diagonalizing the G-matrix              .... done
Small eigenvalue found = 3.954e-03
Small eigenvalue found = 5.123e-03
Small eigenvalue found = 8.732e-03
Small eigenvalue found = 2.752e-02
Small eigenvalue found = 2.810e-02
The first mode is                       ....   86
The number of degrees of freedom        ....  105

    -----------------------------------------------------------------
                    Redundant Internal Coordinates


    -----------------------------------------------------------------
         Definition                    Initial Value    Approx d2E/dq
    -----------------------------------------------------------------
      1. B(C   1,C   0)                  1.4994         0.418056   
      2. B(C   2,C   1)                  1.3973         0.608195   
      3. B(C   3,C   2)                  1.4000         0.602155   
      4. B(C   4,C   3)                  1.4014         0.599149   
      5. B(C   5,C   4)                  1.4056         0.590052   
      6. B(C   6,C   5)                  1.3989         0.604748   
      7. B(C   6,C   1)                  1.3966         0.609747   
      8. B(P   7,C   4)                  1.8224         0.428840   
      9. B(C   8,P   7)                  1.8228         0.428280   
     10. B(C   9,C   8)                  1.4068         0.587489   
     11. B(C  10,C   9)                  1.3977         0.607321   
     12. B(C  11,C  10)                  1.3913         0.621871   
     13. B(C  12,C  11)                  1.3919         0.620400   
     14. B(C  13,C  12)                  1.3988         0.604828   
     15. B(C  13,C   8)                  1.4027         0.596218   
     16. B(C  14,P   7)                  1.8230         0.427925   
     17. B(C  15,C  14)                  1.4068         0.587343   
     18. B(C  16,C  15)                  1.3977         0.607313   
     19. B(C  17,C  16)                  1.3913         0.621918   
     20. B(C  18,C  17)                  1.3919         0.620425   
     21. B(C  19,C  18)                  1.3989         0.604771   
     22. B(C  19,C  14)                  1.4027         0.596217   
     23. B(H  20,C   0)                  1.0951         0.353422   
     24. B(H  21,C   0)                  1.0951         0.353420   
     25. B(H  22,C   0)                  1.0943         0.354437   
     26. B(H  23,C   2)                  1.0879         0.362919   
     27. B(H  24,C   3)                  1.0869         0.364184   
     28. B(H  25,C   5)                  1.0889         0.361605   
     29. B(H  26,C   6)                  1.0876         0.363249   
     30. B(H  27,C   9)                  1.0888         0.361639   
     31. B(H  28,C  10)                  1.0868         0.364353   
     32. B(H  29,C  11)                  1.0867         0.364556   
     33. B(H  30,C  12)                  1.0870         0.364040   
     34. B(H  31,C  13)                  1.0870         0.364130   
     35. B(H  32,C  15)                  1.0888         0.361631   
     36. B(H  33,C  16)                  1.0868         0.364357   
     37. B(H  34,C  17)                  1.0867         0.364559   
     38. B(H  35,C  18)                  1.0870         0.364035   
     39. B(H  36,C  19)                  1.0870         0.364094   
     40. A(H  21,C   0,H  22)          108.8679         0.289266   
     41. A(H  20,C   0,H  21)          107.2226         0.289136   
     42. A(C   1,C   0,H  20)          110.8956         0.329367   
     43. A(H  20,C   0,H  22)          108.8735         0.289266   
     44. A(C   1,C   0,H  21)          110.9013         0.329367   
     45. A(C   1,C   0,H  22)          110.0019         0.329523   
     46. A(C   0,C   1,C   2)          120.5559         0.403249   
     47. A(C   0,C   1,C   6)          120.5776         0.403430   
     48. A(C   2,C   1,C   6)          118.8075         0.431274   
     49. A(C   1,C   2,C   3)          120.6629         0.430304   
     50. A(C   3,C   2,H  23)          119.0026         0.351633   
     51. A(C   1,C   2,H  23)          120.3345         0.352227   
     52. A(C   2,C   3,H  24)          117.7356         0.351840   
     53. A(C   4,C   3,H  24)          121.1950         0.351543   
     54. A(C   2,C   3,C   4)          121.0691         0.429149   
     55. A(C   5,C   4,P   7)          117.9184         0.429576   
     56. A(C   3,C   4,P   7)          124.3350         0.430758   
     57. A(C   3,C   4,C   5)          117.7448         0.427589   
     58. A(C   4,C   5,C   6)          121.2723         0.428303   
     59. A(C   6,C   5,H  25)          118.3826         0.351673   
     60. A(C   4,C   5,H  25)          120.3450         0.350215   
     61. A(C   1,C   6,H  26)          120.4211         0.352433   
     62. A(C   5,C   6,H  26)          119.1490         0.351943   
     63. A(C   1,C   6,C   5)          120.4299         0.430834   
     64. A(C   4,P   7,C   8)          104.1022         0.432662   
     65. A(C   8,P   7,C  14)          104.0245         0.432496   
     66. A(C   4,P   7,C  14)          104.0822         0.432598   
     67. A(P   7,C   8,C   9)          117.8813         0.429140   
     68. A(C   9,C   8,C  13)          117.8409         0.426880   
     69. A(P   7,C   8,C  13)          124.2773         0.430278   
     70. A(C   8,C   9,C  10)          121.1944         0.428294   
     71. A(C   8,C   9,H  27)          120.3529         0.349963   
     72. A(C  10,C   9,H  27)          118.4524         0.351931   
     73. A(C   9,C  10,C  11)          120.0049         0.432690   
     74. A(C  11,C  10,H  28)          120.1061         0.353792   
     75. A(C   9,C  10,H  28)          119.8890         0.352377   
     76. A(C  10,C  11,C  12)          119.7303         0.434352   
     77. A(C  10,C  11,H  29)          120.1457         0.353825   
     78. A(C  12,C  11,H  29)          120.1240         0.353683   
     79. A(C  13,C  12,H  30)          119.7461         0.352080   
     80. A(C  11,C  12,H  30)          120.0234         0.353598   
     81. A(C  11,C  12,C  13)          120.2305         0.432187   
     82. A(C  12,C  13,H  31)          117.8204         0.352095   
     83. A(C   8,C  13,H  31)          121.1797         0.351243   
     84. A(C   8,C  13,C  12)          120.9987         0.429112   
     85. A(C  15,C  14,C  19)          117.8319         0.426861   
     86. A(P   7,C  14,C  19)          124.2820         0.430214   
     87. A(P   7,C  14,C  15)          117.8854         0.429058   
     88. A(C  16,C  15,H  32)          118.4483         0.351929   
     89. A(C  14,C  15,H  32)          120.3506         0.349947   
     90. A(C  14,C  15,C  16)          121.2007         0.428274   
     91. A(C  17,C  16,H  33)          120.1071         0.353797   
     92. A(C  15,C  16,H  33)          119.8891         0.352377   
     93. A(C  15,C  16,C  17)          120.0038         0.432695   
     94. A(C  18,C  17,H  34)          120.1245         0.353686   
     95. A(C  16,C  17,H  34)          120.1472         0.353830   
     96. A(C  16,C  17,C  18)          119.7283         0.434361   
     97. A(C  19,C  18,H  35)          119.7420         0.352074   
     98. A(C  17,C  18,H  35)          120.0246         0.353600   
     99. A(C  17,C  18,C  19)          120.2334         0.432182   
    100. A(C  18,C  19,H  36)          117.8034         0.352084   
    101. A(C  14,C  19,H  36)          121.1941         0.351237   
    102. A(C  14,C  19,C  18)          121.0014         0.429105   
    103. D(C   2,C   1,C   0,H  20)    -32.0125         0.012927   
    104. D(C   2,C   1,C   0,H  21)   -151.0281         0.012927   
    105. D(C   2,C   1,C   0,H  22)     88.4813         0.012927   
    106. D(C   6,C   1,C   0,H  20)    150.8154         0.012927   
    107. D(C   6,C   1,C   0,H  21)     31.7998         0.012927   
    108. D(H  23,C   2,C   1,C   6)    178.7807         0.025538   
    109. D(C   3,C   2,C   1,C   0)   -178.4670         0.025538   
    110. D(C   3,C   2,C   1,C   6)     -1.2455         0.025538   
    111. D(H  23,C   2,C   1,C   0)      1.5591         0.025538   
    112. D(H  24,C   3,C   2,C   1)   -179.3960         0.025006   
    113. D(C   4,C   3,C   2,H  23)   -179.6298         0.025006   
    114. D(H  24,C   3,C   2,H  23)      0.5782         0.025006   
    115. D(C   4,C   3,C   2,C   1)      0.3960         0.025006   
    116. D(C   5,C   4,C   3,C   2)      0.4778         0.024743   
    117. D(C   5,C   4,C   3,H  24)   -179.7375         0.024743   
    118. D(P   7,C   4,C   3,H  24)     -0.2429         0.024743   
    119. D(P   7,C   4,C   3,C   2)    179.9723         0.024743   
    120. D(H  25,C   5,C   4,P   7)      0.0556         0.023960   
    121. D(C   6,C   5,C   4,C   3)     -0.4982         0.023960   
    122. D(H  25,C   5,C   4,C   3)    179.5832         0.023960   
    123. D(C   6,C   5,C   4,P   7)    179.9741         0.023960   
    124. D(H  26,C   6,C   5,H  25)     -0.4100         0.025234   
    125. D(H  26,C   6,C   5,C   4)    179.6699         0.025234   
    126. D(C   1,C   6,C   5,H  25)    179.5642         0.025234   
    127. D(C   1,C   6,C   5,C   4)     -0.3559         0.025234   
    128. D(H  26,C   6,C   1,C   2)   -178.8029         0.025676   
    129. D(H  26,C   6,C   1,C   0)     -1.5819         0.025676   
    130. D(C   5,C   6,C   1,C   2)      1.2233         0.025676   
    131. D(C   5,C   6,C   1,C   0)    178.4442         0.025676   
    132. D(C   8,P   7,C   4,C   5)    168.1985         0.003789   
    133. D(C   8,P   7,C   4,C   3)    -11.2953         0.003789   
    134. D(C  14,P   7,C   4,C   5)    -83.1005         0.003789   
    135. D(C  14,P   7,C   4,C   3)     97.4057         0.003789   
    136. D(C  13,C   8,P   7,C  14)    -12.4888         0.003783   
    137. D(C  13,C   8,P   7,C   4)     96.2548         0.003783   
    138. D(C   9,C   8,P   7,C  14)    167.2523         0.003783   
    139. D(C   9,C   8,P   7,C   4)    -84.0041         0.003783   
    140. D(H  27,C   9,C   8,C  13)    179.9971         0.023742   
    141. D(H  27,C   9,C   8,P   7)      0.2390         0.023742   
    142. D(C  10,C   9,C   8,C  13)     -0.2256         0.023742   
    143. D(C  10,C   9,C   8,P   7)   -179.9836         0.023742   
    144. D(H  28,C  10,C   9,H  27)     -0.1265         0.025461   
    145. D(H  28,C  10,C   9,C   8)   -179.9079         0.025461   
    146. D(C  11,C  10,C   9,H  27)    179.9093         0.025461   
    147. D(C  11,C  10,C   9,C   8)      0.1279         0.025461   
    148. D(H  29,C  11,C  10,H  28)     -0.0272         0.026770   
    149. D(H  29,C  11,C  10,C   9)    179.9369         0.026770   
    150. D(C  12,C  11,C  10,H  28)   -179.9646         0.026770   
    151. D(C  12,C  11,C  10,C   9)     -0.0006         0.026770   
    152. D(H  30,C  12,C  11,H  29)      0.0143         0.026636   
    153. D(H  30,C  12,C  11,C  10)    179.9518         0.026636   
    154. D(C  13,C  12,C  11,H  29)   -179.9595         0.026636   
    155. D(C  13,C  12,C  11,C  10)     -0.0220         0.026636   
    156. D(H  31,C  13,C  12,H  30)      0.3297         0.025241   
    157. D(H  31,C  13,C  12,C  11)   -179.6965         0.025241   
    158. D(C   8,C  13,C  12,H  30)    179.9439         0.025241   
    159. D(C   8,C  13,C  12,C  11)     -0.0822         0.025241   
    160. D(H  31,C  13,C   8,C   9)    179.8036         0.024489   
    161. D(H  31,C  13,C   8,P   7)     -0.4552         0.024489   
    162. D(C  12,C  13,C   8,C   9)      0.2024         0.024489   
    163. D(C  12,C  13,C   8,P   7)    179.9435         0.024489   
    164. D(C  15,C  14,P   7,C   8)    -82.8403         0.003779   
    165. D(C  15,C  14,P   7,C   4)    168.4013         0.003779   
    166. D(C  19,C  14,P   7,C   8)     97.4702         0.003779   
    167. D(C  19,C  14,P   7,C   4)    -11.2882         0.003779   
    168. D(H  32,C  15,C  14,C  19)    179.9689         0.023729   
    169. D(H  32,C  15,C  14,P   7)      0.2591         0.023729   
    170. D(C  16,C  15,C  14,C  19)     -0.2556         0.023729   
    171. D(C  16,C  15,C  14,P   7)   -179.9655         0.023729   
    172. D(H  33,C  16,C  15,H  32)     -0.1215         0.025460   
    173. D(H  33,C  16,C  15,C  14)   -179.9011         0.025460   
    174. D(C  17,C  16,C  15,H  32)    179.9196         0.025460   
    175. D(C  17,C  16,C  15,C  14)      0.1400         0.025460   
    176. D(H  34,C  17,C  16,H  33)     -0.0252         0.026774   
    177. D(H  34,C  17,C  16,C  15)    179.9336         0.026774   
    178. D(C  18,C  17,C  16,H  33)   -179.9524         0.026774   
    179. D(C  18,C  17,C  16,C  15)      0.0064         0.026774   
    180. D(H  35,C  18,C  17,H  34)      0.0087         0.026638   
    181. D(H  35,C  18,C  17,C  16)    179.9359         0.026638   
    182. D(C  19,C  18,C  17,H  34)   -179.9564         0.026638   
    183. D(C  19,C  18,C  17,C  16)     -0.0292         0.026638   
    184. D(H  36,C  19,C  18,H  35)      0.3116         0.025236   
    185. D(H  36,C  19,C  18,C  17)   -179.7231         0.025236   
    186. D(C  14,C  19,C  18,H  35)    179.9409         0.025236   
    187. D(C  14,C  19,C  18,C  17)     -0.0939         0.025236   
    188. D(H  36,C  19,C  14,C  15)    179.8487         0.024489   
    189. D(H  36,C  19,C  14,P   7)     -0.4617         0.024489   
    190. D(C  18,C  19,C  14,C  15)      0.2321         0.024489   
    191. D(C  18,C  19,C  14,P   7)    179.9217         0.024489   
    -----------------------------------------------------------------

Number of atoms                         .... 37
Number of degrees of freedom            .... 191


         *************************************************************
         *                GEOMETRY OPTIMIZATION CYCLE   1            *
         *************************************************************
---------------------------------
CARTESIAN COORDINATES (ANGSTROEM)
---------------------------------
  C      5.212665    0.090662    0.749749
  C      3.796917    0.046819    0.257950
  C      2.840623   -0.732235    0.914540
  C      1.525700   -0.799946    0.438592
  C      1.135110   -0.097837   -0.709638
  C      2.110359    0.667542   -1.372001
  C      3.424602    0.736829   -0.897845
  P     -0.548602   -0.122653   -1.406633
  C     -1.382763   -1.469371   -0.504898
  C     -1.206141   -2.783623   -0.974492
  C     -1.813950   -3.868326   -0.336045
  C     -2.612719   -3.658270    0.783552
  C     -2.802792   -2.365491    1.263179
  C     -2.193770   -1.280489    0.623944
  C     -1.322076    1.392777   -0.751933
  C     -2.551139    1.795979   -1.305101
  C     -3.204572    2.946971   -0.855791
  C     -2.638938    3.718648    0.154243
  C     -1.421971    3.339325    0.713280
  C     -0.768860    2.186993    0.263383
  H      5.251780   -0.023792    1.838144
  H      5.680808    1.050589    0.507632
  H      5.794329   -0.713153    0.288150
  H      3.108716   -1.295796    1.805608
  H      0.818401   -1.412399    0.991807
  H      1.854801    1.224467   -2.272085
  H      4.152743    1.335312   -1.440586
  H     -0.585060   -2.977118   -1.847641
  H     -1.661853   -4.875097   -0.716072
  H     -3.087184   -4.499797    1.281075
  H     -3.426566   -2.195823    2.137118
  H     -2.364657   -0.288654    1.034512
  H     -3.017205    1.210171   -2.095794
  H     -4.154154    3.237856   -1.297171
  H     -3.144403    4.614514    0.504583
  H     -0.975161    3.939284    1.501994
  H      0.176982    1.925131    0.730689

----------------------------
CARTESIAN COORDINATES (A.U.)
----------------------------
  NO LB      ZA    FRAG     MASS         X           Y           Z
   0 C     6.0000    0    12.011    9.850509    0.171326    1.416820
   1 C     6.0000    0    12.011    7.175133    0.088475    0.487455
   2 C     6.0000    0    12.011    5.368000   -1.383724    1.728230
   3 C     6.0000    0    12.011    2.883155   -1.511679    0.828819
   4 C     6.0000    0    12.011    2.145047   -0.184885   -1.341021
   5 C     6.0000    0    12.011    3.988001    1.261472   -2.592706
   6 C     6.0000    0    12.011    6.471560    1.392405   -1.696681
   7 P    15.0000    0    30.974   -1.036708   -0.231781   -2.658151
   8 C     6.0000    0    12.011   -2.613043   -2.776709   -0.954119
   9 C     6.0000    0    12.011   -2.279276   -5.260285   -1.841523
  10 C     6.0000    0    12.011   -3.427869   -7.310077   -0.635033
  11 C     6.0000    0    12.011   -4.937323   -6.913128    1.480699
  12 C     6.0000    0    12.011   -5.296509   -4.470130    2.387062
  13 C     6.0000    0    12.011   -4.145625   -2.419774    1.179083
  14 C     6.0000    0    12.011   -2.498362    2.631967   -1.420947
  15 C     6.0000    0    12.011   -4.820954    3.393908   -2.466283
  16 C     6.0000    0    12.011   -6.055763    5.568968   -1.617211
  17 C     6.0000    0    12.011   -4.986870    7.027226    0.291477
  18 C     6.0000    0    12.011   -2.687136    6.310410    1.347904
  19 C     6.0000    0    12.011   -1.452935    4.132818    0.497722
  20 H     1.0000    0     1.008    9.924426   -0.044960    3.473589
  21 H     1.0000    0     1.008   10.735171    1.985325    0.959285
  22 H     1.0000    0     1.008   10.949695   -1.347664    0.544525
  23 H     1.0000    0     1.008    5.874622   -2.448700    3.412105
  24 H     1.0000    0     1.008    1.546554   -2.669047    1.874244
  25 H     1.0000    0     1.008    3.505066    2.313907   -4.293618
  26 H     1.0000    0     1.008    7.847547    2.523374   -2.722313
  27 H     1.0000    0     1.008   -1.105603   -5.625938   -3.491535
  28 H     1.0000    0     1.008   -3.140447   -9.212598   -1.353180
  29 H     1.0000    0     1.008   -5.833932   -8.503384    2.420881
  30 H     1.0000    0     1.008   -6.475271   -4.149504    4.038568
  31 H     1.0000    0     1.008   -4.468554   -0.545477    1.954944
  32 H     1.0000    0     1.008   -5.701691    2.286892   -3.960477
  33 H     1.0000    0     1.008   -7.850213    6.118661   -2.451298
  34 H     1.0000    0     1.008   -5.942061    8.720168    0.953524
  35 H     1.0000    0     1.008   -1.842787    7.444168    2.838357
  36 H     1.0000    0     1.008    0.334448    3.637970    1.380802

--------------------------------
INTERNAL COORDINATES (ANGSTROEM)
--------------------------------
 C      0   0   0     0.000000000000     0.00000000     0.00000000
 C      1   0   0     1.499376825402     0.00000000     0.00000000
 C      2   1   0     1.397330947719   120.55589051     0.00000000
 C      3   2   1     1.400047775668   120.66289206   181.53296589
 C      4   3   2     1.401409907515   121.06909200     0.39603156
 C      5   4   3     1.405574747002   117.74477111     0.47777923
 C      2   1   3     1.396636796504   120.57759305   182.82787032
 P      5   4   3     1.822444501988   124.33496306   179.97233812
 C      8   5   4     1.822800031729   104.10222121   348.70471432
 C      9   8   5     1.406759458907   117.88132750   275.99587350
 C     10   9   8     1.397722057671   121.19436683   180.01637586
 C     11  10   9     1.391277427728   120.00491236     0.12789326
 C     12  11  10     1.391922177170   119.73028207     0.00000000
 C     13  12  11     1.398841850144   120.23048504     0.00000000
 C      8   5   4     1.823025563062   104.08222727    97.40571701
 C     15   8   5     1.406827120508   117.88540293   168.40125725
 C     16  15   8     1.397725561637   121.20074990   180.03453047
 C     17  16  15     1.391256948030   120.00377004     0.14000611
 C     18  17  16     1.391911270443   119.72829775     0.00000000
 C     19  18  17     1.398867515941   120.23342750   359.97076945
 H      1   2   3     1.095095145349   110.89555225   327.98748886
 H      1   2   3     1.095097418254   110.90130192   208.97191802
 H      1   2   3     1.094314945490   110.00188278    88.48133126
 H      3   2   1     1.087877308337   120.33450198     1.55913943
 H      4   3   2     1.086930259416   117.73558103   180.60404894
 H      6   5   4     1.088864800627   120.34503835   179.58321004
 H      7   2   1     1.087629996943   120.42105022   358.41807134
 H     10   9   8     1.088839336076   120.35289792     0.23904699
 H     11  10   9     1.086803507806   119.88899623   180.09206393
 H     12  11  10     1.086652595581   120.14573435   179.93693858
 H     13  12  11     1.087037538000   120.02338420   179.95177996
 H     14  13  12     1.086970614422   117.82039406   180.30350745
 H     16  15   8     1.088845236693   120.35059504     0.25906649
 H     17  16  15     1.086800976421   119.88914589   180.09890119
 H     18  17  16     1.086650298753   120.14721102   179.93360906
 H     19  18  17     1.087041743254   120.02458807   179.93589994
 H     20  19  18     1.086997559171   117.80343930   180.27685336

---------------------------
INTERNAL COORDINATES (A.U.)
---------------------------
 C      0   0   0     0.000000000000     0.00000000     0.00000000
 C      1   0   0     2.833411571559     0.00000000     0.00000000
 C      2   1   0     2.640572809641   120.55589051     0.00000000
 C      3   2   1     2.645706870419   120.66289206   181.53296589
 C      4   3   2     2.648280926567   121.06909200     0.39603156
 C      5   4   3     2.656151332590   117.74477111     0.47777923
 C      2   1   3     2.639261053950   120.57759305   182.82787032
 P      5   4   3     3.443921003027   124.33496306   179.97233812
 C      8   5   4     3.444592856870   104.10222121   348.70471432
 C      9   8   5     2.658390113637   117.88132750   275.99587350
 C     10   9   8     2.641311900338   121.19436683   180.01637586
 C     11  10   9     2.629133314713   120.00491236     0.12789326
 C     12  11  10     2.630351714584   119.73028207     0.00000000
 C     13  12  11     2.643428001439   120.23048504     0.00000000
 C      8   5   4     3.445019049324   104.08222727    97.40571701
 C     15   8   5     2.658517975533   117.88540293   168.40125725
 C     16  15   8     2.641318521875   121.20074990   180.03453047
 C     17  16  15     2.629094613691   120.00377004     0.14000611
 C     18  17  16     2.630331103856   119.72829775     0.00000000
 C     19  18  17     2.643476502767   120.23342750   359.97076945
 H      1   2   3     2.069429915295   110.89555225   327.98748886
 H      1   2   3     2.069434210465   110.90130192   208.97191802
 H      1   2   3     2.067955551232   110.00188278    88.48133126
 H      3   2   1     2.055790180064   120.33450198     1.55913943
 H      4   3   2     2.054000516969   117.73558103   180.60404894
 H      6   5   4     2.057656270052   120.34503835   179.58321004
 H      7   2   1     2.055322829261   120.42105022   358.41807134
 H     10   9   8     2.057608149025   120.35289792     0.23904699
 H     11  10   9     2.053760991138   119.88899623   180.09206393
 H     12  11  10     2.053475808363   120.14573435   179.93693858
 H     13  12  11     2.054203244112   120.02338420   179.95177996
 H     14  13  12     2.054076776879   117.82039406   180.30350745
 H     16  15   8     2.057619299574   120.35059504     0.25906649
 H     17  16  15     2.053756207513   119.88914589   180.09890119
 H     18  17  16     2.053471467988   120.14721102   179.93360906
 H     19  18  17     2.054211190891   120.02458807   179.93589994
 H     20  19  18     2.054127695074   117.80343930   180.27685336

---------------------
BASIS SET INFORMATION
---------------------
There are 3 groups of distinct atoms

 Group   1 Type C   : 7s4p1d contracted to 3s2p1d pattern {511/31/1}
 Group   2 Type P   : 10s7p1d contracted to 4s3p1d pattern {5311/511/1}
 Group   3 Type H   : 4s1p contracted to 2s1p pattern {31/1}

Atom   0C    basis set group =>   1
Atom   1C    basis set group =>   1
Atom   2C    basis set group =>   1
Atom   3C    basis set group =>   1
Atom   4C    basis set group =>   1
Atom   5C    basis set group =>   1
Atom   6C    basis set group =>   1
Atom   7P    basis set group =>   2
Atom   8C    basis set group =>   1
Atom   9C    basis set group =>   1
Atom  10C    basis set group =>   1
Atom  11C    basis set group =>   1
Atom  12C    basis set group =>   1
Atom  13C    basis set group =>   1
Atom  14C    basis set group =>   1
Atom  15C    basis set group =>   1
Atom  16C    basis set group =>   1
Atom  17C    basis set group =>   1
Atom  18C    basis set group =>   1
Atom  19C    basis set group =>   1
Atom  20H    basis set group =>   3
Atom  21H    basis set group =>   3
Atom  22H    basis set group =>   3
Atom  23H    basis set group =>   3
Atom  24H    basis set group =>   3
Atom  25H    basis set group =>   3
Atom  26H    basis set group =>   3
Atom  27H    basis set group =>   3
Atom  28H    basis set group =>   3
Atom  29H    basis set group =>   3
Atom  30H    basis set group =>   3
Atom  31H    basis set group =>   3
Atom  32H    basis set group =>   3
Atom  33H    basis set group =>   3
Atom  34H    basis set group =>   3
Atom  35H    basis set group =>   3
Atom  36H    basis set group =>   3
---------------------------------
AUXILIARY/J BASIS SET INFORMATION
---------------------------------
There are 3 groups of distinct atoms

 Group   1 Type C   : 12s5p4d2f1g contracted to 6s4p3d1f1g pattern {711111/2111/211/2/1}
 Group   2 Type P   : 14s5p5d2f1g contracted to 8s4p3d1f1g pattern {71111111/2111/311/2/1}
 Group   3 Type H   : 5s2p1d contracted to 3s1p1d pattern {311/2/1}

Atom   0C    basis set group =>   1
Atom   1C    basis set group =>   1
Atom   2C    basis set group =>   1
Atom   3C    basis set group =>   1
Atom   4C    basis set group =>   1
Atom   5C    basis set group =>   1
Atom   6C    basis set group =>   1
Atom   7P    basis set group =>   2
Atom   8C    basis set group =>   1
Atom   9C    basis set group =>   1
Atom  10C    basis set group =>   1
Atom  11C    basis set group =>   1
Atom  12C    basis set group =>   1
Atom  13C    basis set group =>   1
Atom  14C    basis set group =>   1
Atom  15C    basis set group =>   1
Atom  16C    basis set group =>   1
Atom  17C    basis set group =>   1
Atom  18C    basis set group =>   1
Atom  19C    basis set group =>   1
Atom  20H    basis set group =>   3
Atom  21H    basis set group =>   3
Atom  22H    basis set group =>   3
Atom  23H    basis set group =>   3
Atom  24H    basis set group =>   3
Atom  25H    basis set group =>   3
Atom  26H    basis set group =>   3
Atom  27H    basis set group =>   3
Atom  28H    basis set group =>   3
Atom  29H    basis set group =>   3
Atom  30H    basis set group =>   3
Atom  31H    basis set group =>   3
Atom  32H    basis set group =>   3
Atom  33H    basis set group =>   3
Atom  34H    basis set group =>   3
Atom  35H    basis set group =>   3
Atom  36H    basis set group =>   3


           ************************************************************
           *        Program running with 6 parallel MPI-processes     *
           *              working on a common directory               *
           ************************************************************
------------------------------------------------------------------------------
                             ORCA STARTUP CALCULATIONS
                           -- RI-GTO INTEGRALS CHOSEN --
------------------------------------------------------------------------------
------------------------------------------------------------------------------
                   ___                                                        
                  /   \      - P O W E R E D   B Y -                         
                 /     \                                                     
                 |  |  |   _    _      __       _____    __    __             
                 |  |  |  | |  | |    /  \     |  _  \  |  |  /  |          
                  \  \/   | |  | |   /    \    | | | |  |  | /  /          
                 / \  \   | |__| |  /  /\  \   | |_| |  |  |/  /          
                |  |  |   |  __  | /  /__\  \  |    /   |      \           
                |  |  |   | |  | | |   __   |  |    \   |  |\   \          
                \     /   | |  | | |  |  |  |  | |\  \  |  | \   \       
                 \___/    |_|  |_| |__|  |__|  |_| \__\ |__|  \__/        
                                                                              
                      - O R C A' S   B I G   F R I E N D -                    
                                      &                                       
                       - I N T E G R A L  F E E D E R -                       
                                                                              
 v1 FN, 2020, v2 2021, v3 2022-2024                                           
------------------------------------------------------------------------------


----------------------
SHARK INTEGRAL PACKAGE
----------------------

Number of atoms                             ...     37
Number of basis functions                   ...    369
Number of shells                            ...    173
Maximum angular momentum                    ...      2
Integral batch strategy                     ... SHARK/LIBINT Hybrid
RI-J (if used) integral strategy            ... SPLIT-RIJ (Revised 2003 algorithm where possible)
Printlevel                                  ...      1
Contraction scheme used                     ... SEGMENTED contraction
Prescreening option                         ... SCHWARTZ
   Thresh                                   ... 2.500e-11
   Tcut                                     ... 2.500e-12
   Tpresel                                  ... 2.500e-12 
Coulomb Range Separation                    ... NOT USED
Exchange Range Separation                   ... NOT USED
Multipole approximations                    ... NOT USED
Finite Nucleus Model                        ... NOT USED
CABS basis                                  ... NOT available
Auxiliary Coulomb fitting basis             ... AVAILABLE
   # of basis functions in Aux-J            ...   1169
   # of shells in Aux-J                     ...    387
   Maximum angular momentum in Aux-J        ...      4
Auxiliary J/K fitting basis                 ... NOT available
Auxiliary Correlation fitting basis         ... NOT available
Auxiliary 'external' fitting basis          ... NOT available

Checking pre-screening integrals            ... done (  0.0 sec) Dimension = 173
Check shell pair data                       ... done (  0.0 sec)
Shell pair information
Shell pair cut-off parameter TPreSel        ...   2.5e-12
Total number of shell pairs                 ...     15051
Shell pairs after pre-screening             ...     11363
Total number of primitive shell pairs       ...     55267
Primitive shell pairs kept                  ...     26815
          la=0 lb=0:   3536 shell pairs
          la=1 lb=0:   4246 shell pairs
          la=1 lb=1:   1313 shell pairs
          la=2 lb=0:   1329 shell pairs
          la=2 lb=1:    814 shell pairs
          la=2 lb=2:    125 shell pairs

Calculating one electron integrals          ... done (  0.0 sec)
Calculating RI/J V-Matrix + Cholesky decomp.... done (  0.1 sec)
Calculating Nuclear repulsion               ... done (  0.0 sec) ENN=   1523.303332817967 Eh

Diagonalization of the overlap matrix:
Smallest eigenvalue                        ... 2.614e-04
Time for diagonalization                   ...    0.018 sec
Threshold for overlap eigenvalues          ... 1.000e-07
Number of eigenvalues below threshold      ... 0
Time for construction of square roots      ...    0.010 sec
Total time needed                          ...    0.029 sec

-------------------
DFT GRID GENERATION
-------------------

General Integration Accuracy     IntAcc      ... 4.388
Radial Grid Type                 RadialGrid  ... OptM3 with GC (2021)
Angular Grid (max. ang.)         AngularGrid ... 4 (Lebedev-302)
Angular grid pruning method      GridPruning ... 4 (adaptive)
Weight generation scheme         WeightScheme... mBecke (2022)
Basis function cutoff            BFCut       ... 1.0000e-11
Integration weight cutoff        WCut        ... 1.0000e-14
Partially contracted basis set               ... off
Rotationally invariant grid construction     ... off
Angular grids for H and He will be reduced by one unit

Total number of grid points                  ...   175079
Total number of batches                      ...     2755
Average number of points per batch           ...       63
Average number of grid points per atom       ...     4732
Initializing property integral containers    ... done (  0.0 sec)

SHARK setup successfully completed in   1.4 seconds

Maximum memory used throughout the entire STARTUP-calculation: 46.1 MB


           ************************************************************
           *        Program running with 6 parallel MPI-processes     *
           *              working on a common directory               *
           ************************************************************
-------------------------------------------------------------------------------
                                 ORCA GUESS
                   Start orbitals & Density for SCF / CASSCF
-------------------------------------------------------------------------------

------------
SCF SETTINGS
------------
Hamiltonian:
 Density Functional     Method          .... DFT(GTOs)
 Exchange Functional    Exchange        .... B88
   X-Alpha parameter    XAlpha          ....  0.666667
   Becke's b parameter  XBeta           ....  0.004200
 Correlation Functional Correlation     .... LYP
 LDA part of GGA corr.  LDAOpt          .... VWN-5
 Gradients option       PostSCFGGA      .... off
 Hybrid DFT is turned on
   Fraction HF Exchange ScalHFX         ....  0.200000
   Scaling of DF-GGA-X  ScalDFX         ....  0.720000
   Scaling of DF-GGA-C  ScalDFC         ....  0.810000
   Scaling of DF-LDA-C  ScalLDAC        ....  1.000000
   Perturbative correction              ....  0.000000
   NL short-range parameter             ....  4.800000
 RI-approximation to the Coulomb term is turned on
   Number of AuxJ basis functions       .... 1169
   RIJ-ON(X) (HFX calculated with O(N)) .... on


General Settings:
 Integral files         IntName         .... data/geom_opt/70575/70575
 Hartree-Fock type      HFTyp           .... RHF
 Total Charge           Charge          ....    0
 Multiplicity           Mult            ....    1
 Number of Electrons    NEL             ....  146
 Basis Dimension        Dim             ....  369
 Nuclear Repulsion      ENuc            ....   1523.3033328180 Eh

Convergence Acceleration:
 AO-DIIS                CNVDIIS         .... on
   Start iteration      DIISMaxIt       ....    12
   Startup error        DIISStart       ....  0.200000
   # of expansion vecs  DIISMaxEq       ....     5
   Bias factor          DIISBfac        ....   1.050
   Max. coefficient     DIISMaxC        ....  10.000
 MO-DIIS                CNVKDIIS        .... off
 Trust-Rad. Augm. Hess. CNVTRAH         .... auto
   Auto Start mean grad. ratio tolernc. ....  1.125000
   Auto Start start iteration           ....    50
   Auto Start num. interpolation iter.  ....    10
   Max. Number of Micro iterations      ....    24
   Max. Number of Macro iterations      .... Maxiter - #DIIS iter
   Number of Davidson start vectors     ....     2
   Converg. threshold    (grad. norm)   ....   1.000e-05
   Grad. Scal. Fac. for Micro threshold ....   0.100
   Minimum threshold for Micro iter.    ....   1.000e-02
   NR start threshold (gradient norm)   ....   1.000e-04
   Initial trust radius                 ....   0.400
   Minimum AH scaling param. (alpha)    ....   1.000
   Maximum AH scaling param. (alpha)    .... 1000.000
   Quad. conv. algorithm                .... NR
   White noise on init. David. guess    .... on
   Maximum white noise                  ....   0.010
   Pseudo random numbers                .... off
   Inactive MOs                         .... canonical
   Orbital update algorithm             .... Taylor
   Preconditioner                       .... Diag
   Full preconditioner red. dimension   ....   250
   COSX micro iterations for RIJONX calc.... off
 SOSCF                  CNVSOSCF        .... on
   Start iteration      SOSCFMaxIt      ....   150
   Startup grad/error   SOSCFStart      ....  0.003300
   Hessian update       SOSCFHessUp     .... L-BFGS
 Level Shifting         CNVShift        .... on
   Level shift para.    LevelShift      ....    0.2500
   Turn off err/grad.   ShiftErr        ....    0.0010
 Zerner damping         CNVZerner       .... off
 Static damping         CNVDamp         .... on
   Fraction old density DampFac         ....    0.7000
   Max. Damping (<1)    DampMax         ....    0.9800
   Min. Damping (>=0)   DampMin         ....    0.0000
   Turn off err/grad.   DampErr         ....    0.1000

SCF Procedure:
 Maximum # iterations   MaxIter         ....   125
 SCF integral mode      SCFMode         .... Direct
   Integral package                     .... SHARK and LIBINT hybrid scheme
 Reset frequency        DirectResetFreq ....    20
 Integral Threshold     Thresh          ....  2.500e-11 Eh
 Primitive CutOff       TCut            ....  2.500e-12 Eh

Convergence Tolerance:
 Convergence Check Mode ConvCheckMode   .... Total+1el-Energy
 Convergence forced     ConvForced      .... 0
 Energy Change          TolE            ....  1.000e-08 Eh
 1-El. energy change                    ....  1.000e-05 Eh
 Orbital Gradient       TolG            ....  1.000e-05
 Orbital Rotation angle TolX            ....  1.000e-05
 DIIS Error             TolErr          ....  5.000e-07

------------------------------
INITIAL GUESS: MODEL POTENTIAL
------------------------------
Loading Hartree-Fock densities                     ... done
Calculating cut-offs                               ... done
Initializing the effective Hamiltonian             ... done
Setting up the integral package (SHARK)            ... done
Starting the Coulomb interaction                   ... done (   0.1 sec)
Making the grid                                    ... done (   0.2 sec)
Mapping shells                                     ... done
Starting the XC term evaluation                    ... done (   0.1 sec)
  promolecular density results
     # of electrons  =    145.987494280
     EX              =   -125.359320535
     EC              =     -4.971745443
     EX+EC           =   -130.331065977
Transforming the Hamiltonian                       ... done (   0.0 sec)
Diagonalizing the Hamiltonian                      ... done (   0.0 sec)
Back transforming the eigenvectors                 ... done (   0.0 sec)
Now organizing SCF variables                       ... done
                      ------------------
                      INITIAL GUESS DONE (   0.6 sec)
                      ------------------
             **** ENERGY FILE WAS UPDATED (data/geom_opt/70575/70575.en.tmp) ****
Finished Guess after   0.6 sec
Maximum memory used throughout the entire GUESS-calculation: 26.1 MB


           ************************************************************
           *        Program running with 6 parallel MPI-processes     *
           *              working on a common directory               *
           ************************************************************

-------------------------------------------------------------------------------------------
                                      ORCA LEAN-SCF
                              memory conserving SCF solver
-------------------------------------------------------------------------------------------

----------------------------------------D-I-I-S--------------------------------------------
Iteration    Energy (Eh)           Delta-E    RMSDP     MaxDP     DIISErr   Damp  Time(sec)
-------------------------------------------------------------------------------------------
               ***  Starting incremental Fock matrix formation  ***
    1    -1074.0422457511112952     0.00e+00  2.43e-03  7.60e-02  1.66e-01  0.700   4.7
    2    -1074.2301445655198222    -1.88e-01  1.74e-03  5.47e-02  8.95e-02  0.700   4.3
                               ***Turning on AO-DIIS***
    3    -1074.3126509357180112    -8.25e-02  8.08e-04  3.56e-02  3.65e-02  0.700   4.1
    4    -1074.3602761808756441    -4.76e-02  1.55e-03  7.99e-02  1.88e-02  0.000   3.9
    5    -1074.4618887811111563    -1.02e-01  2.10e-04  1.28e-02  5.03e-03  0.000   4.1
                              *** Initializing SOSCF ***
---------------------------------------S-O-S-C-F--------------------------------------
Iteration    Energy (Eh)           Delta-E    RMSDP     MaxDP     MaxGrad    Time(sec)
--------------------------------------------------------------------------------------
    6    -1074.4624546146419561    -5.66e-04  7.70e-05  3.88e-03  1.19e-03     3.6
               *** Restarting incremental Fock matrix formation ***
    7    -1074.4624938446081615    -3.92e-05  5.28e-05  1.66e-03  2.76e-04     4.9
    8    -1074.4624891183261752     4.73e-06  2.46e-05  6.39e-04  5.05e-04     3.2
    9    -1074.4624988810728610    -9.76e-06  1.35e-05  7.02e-04  9.52e-05     3.2
   10    -1074.4624986058802278     2.75e-07  6.71e-06  2.37e-04  8.52e-05     2.8
   11    -1074.4624994312139279    -8.25e-07  3.31e-06  2.37e-04  2.11e-05     2.6
   12    -1074.4624994044293089     2.68e-08  2.01e-06  1.25e-04  3.22e-05     2.4
   13    -1074.4624994540699845    -4.96e-08  4.43e-07  4.06e-05  2.19e-06     2.4
                  *** Gradient check signals convergence ***

               *****************************************************
               *                     SUCCESS                       *
               *           SCF CONVERGED AFTER  13 CYCLES          *
               *****************************************************

             **** ENERGY FILE WAS UPDATED (data/geom_opt/70575/70575.en.tmp) ****

----------------
TOTAL SCF ENERGY
----------------

Total Energy       :      -1074.46249945406998 Eh          -29237.61102 eV

Components:
Nuclear Repulsion  :       1523.30333281796675 Eh           41451.19102 eV
Electronic Energy  :      -2597.76583227203673 Eh          -70688.80205 eV
One Electron Energy:      -4489.00051653538958 Eh         -122151.91414 eV
Two Electron Energy:       1891.23468426335285 Eh           51463.11209 eV

Virial components:
Potential Energy   :      -2140.16959521860826 Eh          -58236.97540 eV
Kinetic Energy     :       1065.70709576453851 Eh           28999.36437 eV
Virial Ratio       :          2.00821558167749

DFT components:
N(Alpha)           :       72.999989269827 electrons
N(Beta)            :       72.999989269827 electrons
N(Total)           :      145.999978539655 electrons
E(X)               :     -100.824434900922 Eh       
E(C)               :       -5.863746437311 Eh       
E(XC)              :     -106.688181338233 Eh       

---------------
SCF CONVERGENCE
---------------

  Last Energy change         ...    4.9641e-08  Tolerance :   1.0000e-08
  Last MAX-Density change    ...    4.0640e-05  Tolerance :   1.0000e-07
  Last RMS-Density change    ...    4.4273e-07  Tolerance :   5.0000e-09
  Last DIIS Error            ...    1.1865e-03  Tolerance :   5.0000e-07
  Last Orbital Gradient      ...    2.1904e-06  Tolerance :   1.0000e-05
  Last Orbital Rotation      ...    3.7934e-06  Tolerance :   1.0000e-05


----------------
ORBITAL ENERGIES
----------------

  NO   OCC          E(Eh)            E(eV) 
   0   2.0000     -77.044370     -2096.4839 
   1   2.0000     -10.192418      -277.3498 
   2   2.0000     -10.190152      -277.2881 
   3   2.0000     -10.189714      -277.2762 
   4   2.0000     -10.189576      -277.2725 
   5   2.0000     -10.189223      -277.2629 
   6   2.0000     -10.188489      -277.2429 
   7   2.0000     -10.187928      -277.2276 
   8   2.0000     -10.187867      -277.2260 
   9   2.0000     -10.187597      -277.2186 
  10   2.0000     -10.187520      -277.2165 
  11   2.0000     -10.187515      -277.2164 
  12   2.0000     -10.187201      -277.2078 
  13   2.0000     -10.187090      -277.2048 
  14   2.0000     -10.186906      -277.1998 
  15   2.0000     -10.186806      -277.1971 
  16   2.0000     -10.186503      -277.1888 
  17   2.0000     -10.183981      -277.1202 
  18   2.0000     -10.183373      -277.1037 
  19   2.0000     -10.183365      -277.1034 
  20   2.0000      -6.541086      -177.9920 
  21   2.0000      -4.706534      -128.0713 
  22   2.0000      -4.706497      -128.0703 
  23   2.0000      -4.703546      -127.9900 
  24   2.0000      -0.852192       -23.1893 
  25   2.0000      -0.845395       -23.0044 
  26   2.0000      -0.843550       -22.9542 
  27   2.0000      -0.774915       -21.0865 
  28   2.0000      -0.750358       -20.4183 
  29   2.0000      -0.737017       -20.0552 
  30   2.0000      -0.735221       -20.0064 
  31   2.0000      -0.734759       -19.9938 
  32   2.0000      -0.732105       -19.9216 
  33   2.0000      -0.684386       -18.6231 
  34   2.0000      -0.633743       -17.2450 
  35   2.0000      -0.601446       -16.3662 
  36   2.0000      -0.598504       -16.2861 
  37   2.0000      -0.597324       -16.2540 
  38   2.0000      -0.589143       -16.0314 
  39   2.0000      -0.578001       -15.7282 
  40   2.0000      -0.552877       -15.0445 
  41   2.0000      -0.514932       -14.0120 
  42   2.0000      -0.506759       -13.7896 
  43   2.0000      -0.477973       -13.0063 
  44   2.0000      -0.464583       -12.6420 
  45   2.0000      -0.453707       -12.3460 
  46   2.0000      -0.452152       -12.3037 
  47   2.0000      -0.446633       -12.1535 
  48   2.0000      -0.445185       -12.1141 
  49   2.0000      -0.438014       -11.9190 
  50   2.0000      -0.424293       -11.5456 
  51   2.0000      -0.418787       -11.3958 
  52   2.0000      -0.418114       -11.3775 
  53   2.0000      -0.417118       -11.3504 
  54   2.0000      -0.407166       -11.0795 
  55   2.0000      -0.398059       -10.8317 
  56   2.0000      -0.383573       -10.4375 
  57   2.0000      -0.369369       -10.0510 
  58   2.0000      -0.366891        -9.9836 
  59   2.0000      -0.360593        -9.8122 
  60   2.0000      -0.355808        -9.6820 
  61   2.0000      -0.344747        -9.3810 
  62   2.0000      -0.344124        -9.3641 
  63   2.0000      -0.340209        -9.2576 
  64   2.0000      -0.323435        -8.8011 
  65   2.0000      -0.322842        -8.7850 
  66   2.0000      -0.273083        -7.4310 
  67   2.0000      -0.259710        -7.0671 
  68   2.0000      -0.257127        -6.9968 
  69   2.0000      -0.254178        -6.9165 
  70   2.0000      -0.250149        -6.8069 
  71   2.0000      -0.248779        -6.7696 
  72   2.0000      -0.203508        -5.5377 
  73   0.0000      -0.023257        -0.6328 
  74   0.0000      -0.021373        -0.5816 
  75   0.0000      -0.018738        -0.5099 
  76   0.0000      -0.003018        -0.0821 
  77   0.0000      -0.002350        -0.0640 
  78   0.0000      -0.001891        -0.0515 
  79   0.0000       0.064347         1.7510 
  80   0.0000       0.065782         1.7900 
  81   0.0000       0.067585         1.8391 
  82   0.0000       0.082737         2.2514 
  83   0.0000       0.091501         2.4899 
*Only the first 10 virtual orbitals were printed.

                    ********************************
                    * MULLIKEN POPULATION ANALYSIS *
                    ********************************

-----------------------
MULLIKEN ATOMIC CHARGES
-----------------------
   0 C :    0.088705
   1 C :   -0.038766
   2 C :   -0.002162
   3 C :    0.016221
   4 C :   -0.137310
   5 C :    0.023156
   6 C :   -0.006859
   7 P :    0.340269
   8 C :   -0.138791
   9 C :    0.020520
  10 C :    0.024306
  11 C :    0.025685
  12 C :    0.027608
  13 C :    0.012898
  14 C :   -0.138198
  15 C :    0.020227
  16 C :    0.024327
  17 C :    0.025511
  18 C :    0.027678
  19 C :    0.011622
  20 H :    0.011142
  21 H :    0.010914
  22 H :    0.032067
  23 H :   -0.037507
  24 H :   -0.009969
  25 H :   -0.021217
  26 H :   -0.035099
  27 H :   -0.018762
  28 H :   -0.019786
  29 H :   -0.020465
  30 H :   -0.022136
  31 H :   -0.007326
  32 H :   -0.018818
  33 H :   -0.019837
  34 H :   -0.020647
  35 H :   -0.022544
  36 H :   -0.006658
Sum of atomic charges:   -0.0000000

--------------------------------
MULLIKEN REDUCED ORBITAL CHARGES
--------------------------------
  0 C s       :     2.922816  s :     2.922816
      pz      :     0.990160  p :     2.959742
      px      :     0.970717
      py      :     0.998866
      dz2     :     0.008200  d :     0.028737
      dxz     :     0.004484
      dyz     :     0.002779
      dx2y2   :     0.005774
      dxy     :     0.007500

  1 C s       :     3.072864  s :     3.072864
      pz      :     0.968651  p :     2.921873
      px      :     0.983039
      py      :     0.970183
      dz2     :     0.009474  d :     0.044029
      dxz     :     0.011008
      dyz     :     0.005946
      dx2y2   :     0.008607
      dxy     :     0.008994

  2 C s       :     3.215036  s :     3.215036
      pz      :     0.869752  p :     2.752765
      px      :     0.941631
      py      :     0.941382
      dz2     :     0.005886  d :     0.034361
      dxz     :     0.008746
      dyz     :     0.004654
      dx2y2   :     0.007315
      dxy     :     0.007761

  3 C s       :     3.227359  s :     3.227359
      pz      :     0.923206  p :     2.721166
      px      :     0.854718
      py      :     0.943242
      dz2     :     0.007086  d :     0.035254
      dxz     :     0.009783
      dyz     :     0.005196
      dx2y2   :     0.005751
      dxy     :     0.007439

  4 C s       :     3.074806  s :     3.074806
      pz      :     0.990547  p :     3.025911
      px      :     1.004399
      py      :     1.030965
      dz2     :     0.008211  d :     0.036593
      dxz     :     0.009966
      dyz     :     0.005666
      dx2y2   :     0.007166
      dxy     :     0.005585

  5 C s       :     3.215217  s :     3.215217
      pz      :     0.883191  p :     2.726527
      px      :     0.910286
      py      :     0.933049
      dz2     :     0.005984  d :     0.035100
      dxz     :     0.008914
      dyz     :     0.004755
      dx2y2   :     0.007654
      dxy     :     0.007792

  6 C s       :     3.214994  s :     3.214994
      pz      :     0.935699  p :     2.757487
      px      :     0.869000
      py      :     0.952788
      dz2     :     0.007021  d :     0.034378
      dxz     :     0.009576
      dyz     :     0.005090
      dx2y2   :     0.005624
      dxy     :     0.007067

  7 P s       :     5.638771  s :     5.638771
      pz      :     3.341502  p :     8.840188
      px      :     2.748723
      py      :     2.749962
      dz2     :     0.015062  d :     0.180773
      dxz     :     0.035122
      dyz     :     0.037836
      dx2y2   :     0.047287
      dxy     :     0.045465

  8 C s       :     3.080826  s :     3.080826
      pz      :     0.986944  p :     3.021350
      px      :     1.019976
      py      :     1.014431
      dz2     :     0.008052  d :     0.036614
      dxz     :     0.005117
      dyz     :     0.009803
      dx2y2   :     0.006470
      dxy     :     0.007173

  9 C s       :     3.212263  s :     3.212263
      pz      :     0.883009  p :     2.732356
      px      :     0.920731
      py      :     0.928616
      dz2     :     0.005648  d :     0.034861
      dxz     :     0.004469
      dyz     :     0.009140
      dx2y2   :     0.007688
      dxy     :     0.007916

 10 C s       :     3.158232  s :     3.158232
      pz      :     0.954042  p :     2.782271
      px      :     0.978185
      py      :     0.850044
      dz2     :     0.007609  d :     0.035190
      dxz     :     0.005392
      dyz     :     0.008843
      dx2y2   :     0.007493
      dxy     :     0.005853

 11 C s       :     3.158107  s :     3.158107
      pz      :     0.939680  p :     2.780727
      px      :     0.950046
      py      :     0.891002
      dz2     :     0.007040  d :     0.035481
      dxz     :     0.004859
      dyz     :     0.009773
      dx2y2   :     0.006441
      dxy     :     0.007368

 12 C s       :     3.158089  s :     3.158089
      pz      :     0.883638  p :     2.779124
      px      :     0.937502
      py      :     0.957984
      dz2     :     0.005807  d :     0.035179
      dxz     :     0.004492
      dyz     :     0.009123
      dx2y2   :     0.007863
      dxy     :     0.007895

 13 C s       :     3.224114  s :     3.224114
      pz      :     0.933220  p :     2.727978
      px      :     0.966886
      py      :     0.827872
      dz2     :     0.007367  d :     0.035011
      dxz     :     0.005310
      dyz     :     0.009054
      dx2y2   :     0.007302
      dxy     :     0.005977

 14 C s       :     3.080997  s :     3.080997
      pz      :     0.989611  p :     3.020605
      px      :     1.018363
      py      :     1.012632
      dz2     :     0.007206  d :     0.036595
      dxz     :     0.007297
      dyz     :     0.007043
      dx2y2   :     0.007207
      dxy     :     0.007842

 15 C s       :     3.212062  s :     3.212062
      pz      :     0.903582  p :     2.732856
      px      :     0.934924
      py      :     0.894350
      dz2     :     0.004588  d :     0.034854
      dxz     :     0.006848
      dyz     :     0.006437
      dx2y2   :     0.008275
      dxy     :     0.008706

 16 C s       :     3.158216  s :     3.158216
      pz      :     0.951554  p :     2.782258
      px      :     0.868243
      py      :     0.962461
      dz2     :     0.006276  d :     0.035199
      dxz     :     0.006294
      dyz     :     0.007075
      dx2y2   :     0.008134
      dxy     :     0.007420

 17 C s       :     3.158073  s :     3.158073
      pz      :     0.955718  p :     2.780936
      px      :     0.944253
      py      :     0.880965
      dz2     :     0.006732  d :     0.035480
      dxz     :     0.007410
      dyz     :     0.005758
      dx2y2   :     0.007282
      dxy     :     0.008298

 18 C s       :     3.157983  s :     3.157983
      pz      :     0.901860  p :     2.779151
      px      :     0.942152
      py      :     0.935139
      dz2     :     0.004735  d :     0.035188
      dxz     :     0.006814
      dyz     :     0.006441
      dx2y2   :     0.008556
      dxy     :     0.008643

 19 C s       :     3.224358  s :     3.224358
      pz      :     0.936443  p :     2.729014
      px      :     0.871167
      py      :     0.921404
      dz2     :     0.006090  d :     0.035006
      dxz     :     0.006421
      dyz     :     0.006986
      dx2y2   :     0.008317
      dxy     :     0.007191

 20 H s       :     0.965346  s :     0.965346
      pz      :     0.014067  p :     0.023512
      px      :     0.004193
      py      :     0.005252

 21 H s       :     0.965581  s :     0.965581
      pz      :     0.005443  p :     0.023505
      px      :     0.005972
      py      :     0.012090

 22 H s       :     0.943836  s :     0.943836
      pz      :     0.006757  p :     0.024097
      px      :     0.007252
      py      :     0.010089

 23 H s       :     1.014560  s :     1.014560
      pz      :     0.011483  p :     0.022947
      px      :     0.004136
      py      :     0.007328

 24 H s       :     0.986312  s :     0.986312
      pz      :     0.006740  p :     0.023658
      px      :     0.008972
      py      :     0.007945

 25 H s       :     0.998140  s :     0.998140
      pz      :     0.011710  p :     0.023076
      px      :     0.004243
      py      :     0.007123

 26 H s       :     1.012103  s :     1.012103
      pz      :     0.006678  p :     0.022996
      px      :     0.008554
      py      :     0.007764

 27 H s       :     0.995694  s :     0.995694
      pz      :     0.011336  p :     0.023067
      px      :     0.007980
      py      :     0.003751

 28 H s       :     0.996781  s :     0.996781
      pz      :     0.005290  p :     0.023005
      px      :     0.004471
      py      :     0.013244

 29 H s       :     0.997489  s :     0.997489
      pz      :     0.006254  p :     0.022976
      px      :     0.006432
      py      :     0.010290

 30 H s       :     0.999179  s :     0.999179
      pz      :     0.011249  p :     0.022957
      px      :     0.008032
      py      :     0.003676

 31 H s       :     0.983689  s :     0.983689
      pz      :     0.005445  p :     0.023638
      px      :     0.004504
      py      :     0.013688

 32 H s       :     0.995751  s :     0.995751
      pz      :     0.010132  p :     0.023067
      px      :     0.005697
      py      :     0.007238

 33 H s       :     0.996831  s :     0.996831
      pz      :     0.005942  p :     0.023006
      px      :     0.012459
      py      :     0.004605

 34 H s       :     0.997670  s :     0.997670
      pz      :     0.005206  p :     0.022977
      px      :     0.006187
      py      :     0.011584

 35 H s       :     0.999590  s :     0.999590
      pz      :     0.010032  p :     0.022954
      px      :     0.005639
      py      :     0.007283

 36 H s       :     0.983010  s :     0.983010
      pz      :     0.006067  p :     0.023648
      px      :     0.012881
      py      :     0.004699



                     *******************************
                     * LOEWDIN POPULATION ANALYSIS *
                     *******************************

----------------------
LOEWDIN ATOMIC CHARGES
----------------------
   0 C :   -0.042161
   1 C :   -0.021918
   2 C :   -0.030668
   3 C :   -0.025383
   4 C :   -0.185436
   5 C :   -0.021398
   6 C :   -0.030550
   7 P :    0.518545
   8 C :   -0.177389
   9 C :   -0.024377
  10 C :   -0.025434
  11 C :   -0.022551
  12 C :   -0.025184
  13 C :   -0.028186
  14 C :   -0.177784
  15 C :   -0.024563
  16 C :   -0.025347
  17 C :   -0.022858
  18 C :   -0.025323
  19 C :   -0.028585
  20 H :    0.028754
  21 H :    0.028571
  22 H :    0.036546
  23 H :    0.022850
  24 H :    0.026774
  25 H :    0.023541
  26 H :    0.023533
  27 H :    0.023870
  28 H :    0.026226
  29 H :    0.025218
  30 H :    0.025613
  31 H :    0.027183
  32 H :    0.023810
  33 H :    0.026209
  34 H :    0.025141
  35 H :    0.025453
  36 H :    0.027261

-------------------------------
LOEWDIN REDUCED ORBITAL CHARGES
-------------------------------
  0 C s       :     2.828249  s :     2.828249
      pz      :     1.055338  p :     3.140140
      px      :     1.022979
      py      :     1.061823
      dz2     :     0.021653  d :     0.073772
      dxz     :     0.011233
      dyz     :     0.006607
      dx2y2   :     0.015491
      dxy     :     0.018788

  1 C s       :     2.854191  s :     2.854191
      pz      :     1.032004  p :     3.058715
      px      :     1.034276
      py      :     0.992435
      dz2     :     0.022789  d :     0.109013
      dxz     :     0.028042
      dyz     :     0.016269
      dx2y2   :     0.021090
      dxy     :     0.020822

  2 C s       :     2.860523  s :     2.860523
      pz      :     1.019556  p :     3.079750
      px      :     1.054340
      py      :     1.005854
      dz2     :     0.015040  d :     0.090395
      dxz     :     0.023514
      dyz     :     0.011575
      dx2y2   :     0.020167
      dxy     :     0.020098

  3 C s       :     2.864692  s :     2.864692
      pz      :     1.020121  p :     3.068572
      px      :     1.051453
      py      :     0.996998
      dz2     :     0.017762  d :     0.092118
      dxz     :     0.027277
      dyz     :     0.013360
      dx2y2   :     0.015496
      dxy     :     0.018224

  4 C s       :     2.910616  s :     2.910616
      pz      :     1.064962  p :     3.182765
      px      :     1.081301
      py      :     1.036502
      dz2     :     0.019438  d :     0.092056
      dxz     :     0.026183
      dyz     :     0.015499
      dx2y2   :     0.016584
      dxy     :     0.014351

  5 C s       :     2.865564  s :     2.865564
      pz      :     1.015181  p :     3.064218
      px      :     1.058723
      py      :     0.990315
      dz2     :     0.015388  d :     0.091616
      dxz     :     0.023783
      dyz     :     0.011670
      dx2y2   :     0.020739
      dxy     :     0.020035

  6 C s       :     2.859948  s :     2.859948
      pz      :     1.028934  p :     3.080164
      px      :     1.044578
      py      :     1.006652
      dz2     :     0.017768  d :     0.090437
      dxz     :     0.026828
      dyz     :     0.013042
      dx2y2   :     0.015333
      dxy     :     0.017466

  7 P s       :     5.231096  s :     5.231096
      pz      :     3.415560  p :     9.000050
      px      :     2.791277
      py      :     2.793213
      dz2     :     0.022363  d :     0.250309
      dxz     :     0.046571
      dyz     :     0.051081
      dx2y2   :     0.066341
      dxy     :     0.063953

  8 C s       :     2.912613  s :     2.912613
      pz      :     1.058111  p :     3.172838
      px      :     1.033211
      py      :     1.081516
      dz2     :     0.018924  d :     0.091939
      dxz     :     0.013849
      dyz     :     0.025486
      dx2y2   :     0.016998
      dxy     :     0.016682

  9 C s       :     2.865763  s :     2.865763
      pz      :     1.014719  p :     3.067491
      px      :     0.989164
      py      :     1.063608
      dz2     :     0.014370  d :     0.091124
      dxz     :     0.010844
      dyz     :     0.024352
      dx2y2   :     0.021573
      dxy     :     0.019984

 10 C s       :     2.859939  s :     2.859939
      pz      :     1.030441  p :     3.074245
      px      :     1.003980
      py      :     1.039824
      dz2     :     0.018696  d :     0.091250
      dxz     :     0.014866
      dyz     :     0.023764
      dx2y2   :     0.018994
      dxy     :     0.014931

 11 C s       :     2.859501  s :     2.859501
      pz      :     1.025811  p :     3.071075
      px      :     0.994922
      py      :     1.050342
      dz2     :     0.017390  d :     0.091975
      dxz     :     0.013020
      dyz     :     0.026169
      dx2y2   :     0.017262
      dxy     :     0.018135

 12 C s       :     2.860563  s :     2.860563
      pz      :     1.013291  p :     3.073393
      px      :     0.993007
      py      :     1.067096
      dz2     :     0.014325  d :     0.091228
      dxz     :     0.010840
      dyz     :     0.024572
      dx2y2   :     0.021560
      dxy     :     0.019932

 13 C s       :     2.864904  s :     2.864904
      pz      :     1.020273  p :     3.071674
      px      :     1.003100
      py      :     1.048302
      dz2     :     0.018225  d :     0.091608
      dxz     :     0.014996
      dyz     :     0.024526
      dx2y2   :     0.018514
      dxy     :     0.015347

 14 C s       :     2.912902  s :     2.912902
      pz      :     1.045004  p :     3.172983
      px      :     1.060578
      py      :     1.067401
      dz2     :     0.015911  d :     0.091899
      dxz     :     0.019543
      dyz     :     0.018456
      dx2y2   :     0.018492
      dxy     :     0.019497

 15 C s       :     2.865672  s :     2.865672
      pz      :     1.004346  p :     3.067772
      px      :     1.036390
      py      :     1.027036
      dz2     :     0.011357  d :     0.091119
      dxz     :     0.017528
      dyz     :     0.016260
      dx2y2   :     0.021302
      dxy     :     0.024672

 16 C s       :     2.859937  s :     2.859937
      pz      :     1.016810  p :     3.074138
      px      :     1.020866
      py      :     1.036462
      dz2     :     0.014801  d :     0.091272
      dxz     :     0.016204
      dyz     :     0.019555
      dx2y2   :     0.020821
      dxy     :     0.019891

 17 C s       :     2.859478  s :     2.859478
      pz      :     1.016214  p :     3.071403
      px      :     1.038574
      py      :     1.016615
      dz2     :     0.015862  d :     0.091977
      dxz     :     0.020300
      dyz     :     0.015196
[...]
      dx2y2   :     0.018519
      dxy     :     0.014522

 14 C s       :     2.917333  s :     2.917333
      pz      :     1.045048  p :     3.165483
      px      :     1.060405
      py      :     1.060030
      dz2     :     0.015927  d :     0.090582
      dxz     :     0.019933
      dyz     :     0.017489
      dx2y2   :     0.018221
      dxy     :     0.019013

 15 C s       :     2.866939  s :     2.866939
      pz      :     1.006949  p :     3.070846
      px      :     1.039940
      py      :     1.023956
      dz2     :     0.012044  d :     0.091369
      dxz     :     0.018166
      dyz     :     0.016039
      dx2y2   :     0.021024
      dxy     :     0.024095

 16 C s       :     2.863298  s :     2.863298
      pz      :     1.018394  p :     3.072358
      px      :     1.021582
      py      :     1.032382
      dz2     :     0.015410  d :     0.090277
      dxz     :     0.016582
      dyz     :     0.019140
      dx2y2   :     0.019871
      dxy     :     0.019274

 17 C s       :     2.864198  s :     2.864198
      pz      :     1.016560  p :     3.069805
      px      :     1.039584
      py      :     1.013661
      dz2     :     0.015342  d :     0.089912
      dxz     :     0.020504
      dyz     :     0.014782
      dx2y2   :     0.018446
      dxy     :     0.020839

 18 C s       :     2.863535  s :     2.863535
      pz      :     1.005044  p :     3.071852
      px      :     1.040386
      py      :     1.026423
      dz2     :     0.011562  d :     0.090383
      dxz     :     0.018064
      dyz     :     0.015656
      dx2y2   :     0.021742
      dxy     :     0.023360

 19 C s       :     2.866806  s :     2.866806
      pz      :     1.010923  p :     3.072541
      px      :     1.030088
      py      :     1.031529
      dz2     :     0.015270  d :     0.091243
      dxz     :     0.016483
      dyz     :     0.019786
      dx2y2   :     0.020543
      dxy     :     0.019161

 20 H s       :     0.906400  s :     0.906400
      pz      :     0.039763  p :     0.063975
      px      :     0.011761
      py      :     0.012451

 21 H s       :     0.906434  s :     0.906434
      pz      :     0.013655  p :     0.063983
      px      :     0.017935
      py      :     0.032392

 22 H s       :     0.898360  s :     0.898360
      pz      :     0.015833  p :     0.064101
      px      :     0.020683
      py      :     0.027585

 23 H s       :     0.909686  s :     0.909686
      pz      :     0.034136  p :     0.066725
      px      :     0.012437
      py      :     0.020153

 24 H s       :     0.901458  s :     0.901458
      pz      :     0.019258  p :     0.069437
      px      :     0.028277
      py      :     0.021902

 25 H s       :     0.908336  s :     0.908336
      pz      :     0.034725  p :     0.067210
      px      :     0.012634
      py      :     0.019851

 26 H s       :     0.909269  s :     0.909269
      pz      :     0.019053  p :     0.066699
      px      :     0.025756
      py      :     0.021890

 27 H s       :     0.908193  s :     0.908193
      pz      :     0.032805  p :     0.067290
      px      :     0.022880
      py      :     0.011605

 28 H s       :     0.906298  s :     0.906298
      pz      :     0.015091  p :     0.066470
      px      :     0.013606
      py      :     0.037774

 29 H s       :     0.906895  s :     0.906895
      pz      :     0.019324  p :     0.066545
      px      :     0.018334
      py      :     0.028887

 30 H s       :     0.906703  s :     0.906703
      pz      :     0.031981  p :     0.066496
      px      :     0.022693
      py      :     0.011823

 31 H s       :     0.901110  s :     0.901110
      pz      :     0.015095  p :     0.069693
      px      :     0.013681
      py      :     0.040917

 32 H s       :     0.908138  s :     0.908138
      pz      :     0.029735  p :     0.067306
      px      :     0.016939
      py      :     0.020632

 33 H s       :     0.906247  s :     0.906247
      pz      :     0.016621  p :     0.066477
      px      :     0.035512
      py      :     0.014344

 34 H s       :     0.906874  s :     0.906874
      pz      :     0.016423  p :     0.066544
      px      :     0.018044
      py      :     0.032077

 35 H s       :     0.906792  s :     0.906792
      pz      :     0.028994  p :     0.066487
      px      :     0.017190
      py      :     0.020303

 36 H s       :     0.900903  s :     0.900903
      pz      :     0.016687  p :     0.069760
      px      :     0.037722
      py      :     0.015351



                      *****************************
                      * MAYER POPULATION ANALYSIS *
                      *****************************

  NA   - Mulliken gross atomic population
  ZA   - Total nuclear charge
  QA   - Mulliken gross atomic charge
  VA   - Mayer's total valence
  BVA  - Mayer's bonded valence
  FA   - Mayer's free valence

  ATOM       NA         ZA         QA         VA         BVA        FA
  0 C      5.9223     6.0000     0.0777     3.9042     3.9042     0.0000
  1 C      6.0343     6.0000    -0.0343     3.9573     3.9573    -0.0000
  2 C      6.0061     6.0000    -0.0061     3.8410     3.8410    -0.0000
  3 C      5.9746     6.0000     0.0254     3.8665     3.8665    -0.0000
  4 C      6.1651     6.0000    -0.1651     3.8000     3.8000    -0.0000
  5 C      5.9701     6.0000     0.0299     3.8603     3.8603    -0.0000
  6 C      6.0108     6.0000    -0.0108     3.8634     3.8634    -0.0000
  7 P     14.6386    15.0000     0.3614     2.9293     2.9293    -0.0000
  8 C      6.1646     6.0000    -0.1646     3.8218     3.8218    -0.0000
  9 C      5.9743     6.0000     0.0257     3.8703     3.8703    -0.0000
 10 C      5.9797     6.0000     0.0203     3.8524     3.8524    -0.0000
 11 C      5.9771     6.0000     0.0229     3.8244     3.8244    -0.0000
 12 C      5.9753     6.0000     0.0247     3.8309     3.8309    -0.0000
 13 C      5.9829     6.0000     0.0171     3.8790     3.8790    -0.0000
 14 C      6.1659     6.0000    -0.1659     3.8179     3.8179    -0.0000
 15 C      5.9756     6.0000     0.0244     3.8705     3.8705    -0.0000
 16 C      5.9796     6.0000     0.0204     3.8525     3.8525    -0.0000
 17 C      5.9771     6.0000     0.0229     3.8242     3.8242    -0.0000
 18 C      5.9748     6.0000     0.0252     3.8301     3.8301    -0.0000
 19 C      5.9827     6.0000     0.0173     3.8798     3.8798    -0.0000
 20 H      0.9861     1.0000     0.0139     0.9931     0.9931     0.0000
 21 H      0.9860     1.0000     0.0140     0.9931     0.9931    -0.0000
 22 H      0.9675     1.0000     0.0325     0.9869     0.9869     0.0000
 23 H      1.0343     1.0000    -0.0343     0.9849     0.9849    -0.0000
 24 H      1.0051     1.0000    -0.0051     0.9908     0.9908    -0.0000
 25 H      1.0192     1.0000    -0.0192     0.9892     0.9892     0.0000
 26 H      1.0321     1.0000    -0.0321     0.9852     0.9852    -0.0000
 27 H      1.0167     1.0000    -0.0167     0.9898     0.9898    -0.0000
 28 H      1.0162     1.0000    -0.0162     0.9775     0.9775     0.0000
 29 H      1.0163     1.0000    -0.0163     0.9773     0.9773    -0.0000
 30 H      1.0186     1.0000    -0.0186     0.9774     0.9774     0.0000
 31 H      1.0012     1.0000    -0.0012     0.9908     0.9908     0.0000
 32 H      1.0164     1.0000    -0.0164     0.9898     0.9898    -0.0000
 33 H      1.0161     1.0000    -0.0161     0.9775     0.9775     0.0000
 34 H      1.0163     1.0000    -0.0163     0.9774     0.9774     0.0000
 35 H      1.0188     1.0000    -0.0188     0.9773     0.9773     0.0000
 36 H      1.0016     1.0000    -0.0016     0.9915     0.9915    -0.0000

  Mayer bond orders larger than 0.100000
B(  0-C ,  1-C ) :   1.0633 B(  0-C , 20-H ) :   0.9579 B(  0-C , 21-H ) :   0.9579 
B(  0-C , 22-H ) :   0.9514 B(  1-C ,  2-C ) :   1.3812 B(  1-C ,  6-C ) :   1.3789 
B(  2-C ,  3-C ) :   1.3784 B(  2-C , 23-H ) :   0.9859 B(  3-C ,  4-C ) :   1.3755 
B(  3-C , 24-H ) :   0.9792 B(  4-C ,  5-C ) :   1.3645 B(  4-C ,  7-P ) :   0.9332 
B(  5-C ,  6-C ) :   1.3978 B(  5-C , 25-H ) :   0.9809 B(  6-C , 26-H ) :   0.9864 
B(  7-P ,  8-C ) :   0.9296 B(  7-P , 14-C ) :   0.9276 B(  8-C ,  9-C ) :   1.3705 
B(  8-C , 13-C ) :   1.3878 B(  9-C , 10-C ) :   1.4062 B(  9-C , 27-H ) :   0.9814 
B( 10-C , 11-C ) :   1.3749 B( 10-C , 28-H ) :   0.9847 B( 11-C , 12-C ) :   1.3825 
B( 11-C , 29-H ) :   0.9844 B( 12-C , 13-C ) :   1.3822 B( 12-C , 30-H ) :   0.9837 
B( 13-C , 31-H ) :   0.9791 B( 14-C , 15-C ) :   1.3699 B( 14-C , 19-C ) :   1.3880 
B( 15-C , 16-C ) :   1.4059 B( 15-C , 32-H ) :   0.9815 B( 16-C , 17-C ) :   1.3752 
B( 16-C , 33-H ) :   0.9848 B( 17-C , 18-C ) :   1.3822 B( 17-C , 34-H ) :   0.9843 
B( 18-C , 19-C ) :   1.3824 B( 18-C , 35-H ) :   0.9836 B( 19-C , 36-H ) :   0.9794 


-------
TIMINGS
-------

Total SCF time: 0 days 0 hours 0 min 17 sec 

Total time                  ....      17.382 sec
Sum of individual times     ....      17.303 sec  ( 99.5%)

SCF preparation             ....       0.119 sec  (  0.7%)
Fock matrix formation       ....      16.789 sec  ( 96.6%)
  Startup                   ....       0.020 sec  (  0.1% of F)
  Exchange formation        ....      13.187 sec  ( 78.5% of F)
  Split-RI-J                ....       1.237 sec  (  7.4% of F)
  XC integration            ....       2.278 sec  ( 13.6% of F)
    Basis function eval.    ....       0.698 sec  ( 30.6% of XC)
    Density eval.           ....       0.690 sec  ( 30.3% of XC)
    XC-Functional eval.     ....       0.049 sec  (  2.2% of XC)
    XC-Potential eval.      ....       0.542 sec  ( 23.8% of XC)
Diagonalization             ....       0.000 sec  (  0.0%)
Density matrix formation    ....       0.040 sec  (  0.2%)
Total Energy calculation    ....       0.016 sec  (  0.1%)
Population analysis         ....       0.081 sec  (  0.5%)
Orbital Transformation      ....       0.041 sec  (  0.2%)
Orbital Orthonormalization  ....       0.000 sec  (  0.0%)
DIIS solution               ....       0.051 sec  (  0.3%)
SOSCF solution              ....       0.166 sec  (  1.0%)
Finished LeanSCF after  17.4 sec

Maximum memory used throughout the entire LEANSCF-calculation: 38.8 MB


-------------------------------------------------------------------------------
                          DFT DISPERSION CORRECTION                            
                                                                               
                              DFTD3 V3.1  Rev 1                                
                          USING Becke-Johnson damping                          
-------------------------------------------------------------------------------
The B3LYP functional is recognized
Active option DFTDOPT                   ...         4   

molecular C6(AA) [au] = 18644.519684 


            DFT-D V3
 parameters
 s6 scaling factor         :     1.0000 
 a1 scaling factor         :     0.3981 
 s8 scaling factor         :     1.9889 
 a2 scaling factor         :     4.4211 
 ad hoc parameters k1-k3   :    16.0000     1.3333    -4.0000 

 Edisp/kcal,au: -57.164790477859  -0.091097882570 
 E6   /kcal   : -25.966462739 
 E8   /kcal   : -31.198327739 
 % E8         :  54.576125405 

-------------------------   ----------------
Dispersion correction           -0.091097883
-------------------------   ----------------


-------------------------   --------------------
FINAL SINGLE POINT ENERGY     -1074.556095404952
-------------------------   --------------------

                                *** OPTIMIZATION RUN DONE ***



           ************************************************************
           *        Program running with 6 parallel MPI-processes     *
           *              working on a common directory               *
           ************************************************************

------------------------------------------------------------------------------
                              ORCA PROPERTY CALCULATIONS
------------------------------------------------------------------------------

GBWName                                 ... data/geom_opt/70575/70575.gbw
Number of atoms                         ...     37
Number of basis functions               ...    369
Max core memory                         ...   1024 MB

Electric properties:
Dipole moment                           ... YES
Quadrupole moment                       ...  NO
Static polarizability (Dipole/Dipole)   ...  NO
Static polarizability (Dipole/Quad.)    ...  NO
Static polarizability (Quad./Quad.)     ...  NO
Static polarizability (Velocity)        ...  NO

Atomic electric properties:
Dipole moment                           ...  NO
Quadrupole moment                       ...  NO
Static polarizability                   ...  NO

Choice of electric origin               ... Center of mass
Position of electric origin             ...    -0.407688    -0.036596    -0.439032

General magnetic properties:
Magnetizability                         ...  NO

EPR properties:
g-Tensor (aka g-matrix)                 ...  NO
Zero-Field splitting spin-orbit         ...  NO
Zero-field splitting spin-spin          ...  NO
Hyperfine couplings                     ...  NO (   0 nuclei)
Quadrupole couplings                    ...  NO (   0 nuclei)
Contact density                         ...  NO (   0 nuclei)

NMR properties:
Chemical shifts                         ...  NO (   0 nuclei)
Spin-rotation constants                 ...  NO (   0 nuclei)
Spin-spin couplings                     ...  NO (   0 nuclei,    0 pairs)

Choice of magnetic origin               ... GIAO
Position of magnetic origin             ...     0.000000     0.000000     0.000000

Properties with geometric perturbations:
SCF Hessian                             ...  NO
IR spectrum                             ...  NO
VCD spectrum                            ...  NO
X-ray spectroscopy properties:
SCF XES/XAS/RIXS spectra                ...  NO


-------------
DIPOLE MOMENT
-------------

Method             : SCF
Type of density    : Electron Density
Multiplicity       :   1
Irrep              :   0
Energy             : -1074.4649975223812817 Eh
Relativity type    : 
Basis              : AO
                                X                 Y                 Z
Electronic contribution:     -7.686151480      -0.627535160      -7.286899298
Nuclear contribution   :      7.923069673       0.657671346       7.857157544
                        -----------------------------------------
Total Dipole Moment    :      0.236918194       0.030136186       0.570258246
                        -----------------------------------------
Magnitude (a.u.)       :      0.618249859
Magnitude (Debye)      :      1.571466254



--------------------
Rotational spectrum 
--------------------
 
Rotational constants in cm-1:             0.011737             0.008932             0.005945 
Rotational constants in MHz :           351.875689           267.778386           178.230707 

Dipole components along the rotational axes: 
x,y,z [a.u.] :     0.255291    -0.015681     0.562862 
x,y,z [Debye]:     0.648897    -0.039857     1.430682 

 

Dipole moment calculation done in   0.0 sec 

Maximum memory used throughout the entire PROP-calculation: 19.7 MB

--------------------------------
SUGGESTED CITATIONS FOR THIS RUN
--------------------------------

Below you find a list of papers that are relevant to this ORCA run
We neither can nor want to force you to cite these papers, but we appreciate if you do
You receive ORCA, which is the product of decades of hard work by many enthusiastic individuals, for free
The only thing we kindly ask in return is that you cite our papers,
We deeply appreciate it, if you show your appreciation for ORCA by not just citing the generic ORCA reference.

Please note that relegating all ORCA citations to the supporting information does *not* help us.
SI sections are not indexed - citations you put there will not count into any citation statistics
But we need these citations in order to attract the funding resources that allow us to do what we are doing

Therefore, if you are a happy ORCA user, please consider citing a few of the papers listed below in the main body of your paper

In addition to the list printed below, the program has created the file data/geom_opt/70575/70575.bibtex that contains the list in bibtex format
You can import this file easily into all common literature databanks and citation aid programs


List of essential papers. We consider these as the minimum necessary citations

  1. Neese,F.
     Software update: the ORCA program system, version 5.0
     WIRES Comput. Molec. Sci., 2022 12(1)e1606
     doi.org/10.1002/wcms.1606

List of papers to cite with high priority. The work reported in these papers was absolutely
necessary for this run to complete.
Our perspective: the developers of density functionals and basis sets usually get cited in chemistry papers
Good! But without the algorithms to do something with them, the functionals or basis sets would not do anything.
Hence, in our opinion, the algorithm design and method developments papers are equally worthy of getting cited

  1. Neese,F.
     An improvement of the resolution of the identity approximation for the formation of the Coulomb matrix
     J. Comp. Chem., 2003 24(14)1740-1747
     doi.org/10.1002/jcc.10318
  2. Neese,F.
     The SHARK Integral Generation and Digestion System
     J. Comp. Chem., 2022  1-16
     doi.org/10.1002/jcc.26942
  3. Grimme,S.; Antony,J.; Ehrlich,S.; Krieg,H.
     A consistent and accurate ab initio parametrization of density functional dispersion correction (DFT-D) for the 94 elements H-Pu
     J. Chem. Phys., 2010 132 154104-XXXX
     doi.org/10.1063/1.3382344
  4. Grimme,S.; Ehrlich,S.; Goerigk,L.
     Effect of the damping function in dispersion corrected density functional theory
     J. Comput. Chem., 2011 32(7)1456-1465
     doi.org/10.1002/jcc.21759

List of suggested additional citations. These are papers that are important in the 'surrounding' of 
of this run, or papers that preceded the highly important papers. If you like your results we are grateful for a citation.

  1. Neese,F.
     The ORCA program system
     WIRES Comput. Molec. Sci., 2012 2(1)73-78
     doi.org/10.1002/wcms.81
  2. Neese,F.
     Software update: the ORCA program system, version 4.0
     WIRES Comput. Molec. Sci., 2018 8(1)1-6
     doi.org/10.1002/wcms.1327
  3. Neese,F.; Wennmohs,F.; Becker,U.; Riplinger,C.
     The ORCA quantum chemistry program package
     J. Chem. Phys., 2020 152 Art. No. L224108
     doi.org/10.1063/5.0004608

List of optional additional citations

  1. Neese,F.
     Approximate second-order SCF convergence for spin unrestricted wavefunctions
     Chem. Phys. Lett., 2000 325(1-3)93-98
     doi.org/10.1016/s0009-2614(00)00662-x

Timings for individual modules:

Sum of individual times          ...      346.297 sec (=   5.772 min)
Startup calculation              ...        9.440 sec (=   0.157 min)   2.7 %
SCF iterations                   ...      233.543 sec (=   3.892 min)  67.4 %
Property calculations            ...        0.178 sec (=   0.003 min)   0.1 %
SCF Gradient evaluation          ...      103.028 sec (=   1.717 min)  29.8 %
Geometry relaxation              ...        0.108 sec (=   0.002 min)   0.0 %
                             ****ORCA TERMINATED NORMALLY****
TOTAL RUN TIME: 0 days 0 hours 5 minutes 47 seconds 628 msec
