
                                 *****************
                                 * O   R   C   A *
                                 *****************

                                            #,                                       
                                            ###                                      
                                            ####                                     
                                            #####                                    
                                            ######                                   
                                           ########,                                 
                                     ,,################,,,,,                         
                               ,,#################################,,                 
                          ,,##########################################,,             
                       ,#########################################, ''#####,          
                    ,#############################################,,   '####,        
                  ,##################################################,,,,####,       
                ,###########''''           ''''###############################       
              ,#####''   ,,,,##########,,,,          '''####'''          '####       
            ,##' ,,,,###########################,,,                        '##       
           ' ,,###''''                  '''############,,,                           
         ,,##''                                '''############,,,,        ,,,,,,###''
      ,#''                                            '''#######################'''  
     '                                                          ''''####''''         
             ,#######,   #######,   ,#######,      ##                                
            ,#'     '#,  ##    ##  ,#'     '#,    #''#        ,####,   ,####,        
            ##       ##  ##   ,#'  ##            #'  '#       #'       #'  '#        
            ##       ##  #######   ##           ,######,      #####,   #    #        
            '#,     ,#'  ##    ##  '#,     ,#' ,#      #,     #,   #   #,  ,#        
             '#######'   ##     ##  '#######'  #'      '#     '####' # '####'        



                #########################################################
                #                        -***-                          #
                #          Department of theory and spectroscopy        #
                #                                                       #
                #                      Frank Neese                      #
                #                                                       #
                #     Directorship, Architecture, Infrastructure        #
                #                    SHARK, DRIVERS                     #
                #        Core code/Algorithms in most modules           #
                #                                                       #
                #        Max Planck Institute fuer Kohlenforschung      #
                #                Kaiser Wilhelm Platz 1                 #
                #                 D-45470 Muelheim/Ruhr                 #
                #                      Germany                          #
                #                                                       #
                #                  All rights reserved                  #
                #                        -***-                          #
                #########################################################


                         Program Version 6.0.0  -   RELEASE   -


 With contributions from (in alphabetic order):
   Daniel Aravena         : Magnetic Suceptibility
   Michael Atanasov       : Ab Initio Ligand Field Theory (pilot matlab implementation)
   Alexander A. Auer      : GIAO ZORA, VPT2 properties, NMR spectrum
   Ute Becker             : All parallelization in ORCA, NUMFREQ, NUMCALC
   Giovanni Bistoni       : ED, misc. LED, open-shell LED, HFLD
   Martin Brehm           : Molecular dynamics
   Dmytro Bykov           : pre 5.0 version of the SCF Hessian
   Marcos Casanova-Páez   : Triplet and SCS-CIS(D). UHF-(DLPNO)-IP/EA/STEOM-CCSD. UHF-CVS-IP/STEOM-CCSD
   Vijay G. Chilkuri      : MRCI spin determinant printing, contributions to CSF-ICE
   Pauline Colinet        : FMM embedding
   Dipayan Datta          : RHF DLPNO-CCSD density
   Achintya Kumar Dutta   : EOM-CC, STEOM-CC
   Nicolas Foglia         : Exact transition moments, OPA infrastructure, MCD improvements
   Dmitry Ganyushin       : Spin-Orbit,Spin-Spin,Magnetic field MRCI
   Miquel Garcia          : C-PCM and meta-GGA Hessian, CCSD/C-PCM, Gaussian charge scheme
   Tiago L. C. Gouveia    : GS-ROHF, GS-ROCIS
   Yang Guo               : DLPNO-NEVPT2, F12-NEVPT2, CIM, IAO-localization
   Andreas Hansen         : Spin unrestricted coupled pair/coupled cluster methods
   Ingolf Harden          : AUTO-CI MPn and infrastructure 
   Benjamin Helmich-Paris : MC-RPA, TRAH-(SCF,CASSCF), AVAS, COSX integrals, SCF dyn. polar.
   Lee Huntington         : MR-EOM, pCC
   Robert Izsak           : Overlap fitted RIJCOSX, COSX-SCS-MP3, EOM
   Riya Kayal             : Wick's Theorem for AUTO-CI, AUTO-CI UHF-CCSDT
   Emily Kempfer          : AUTO-CI, RHF CISDT and CCSDT
   Christian Kollmar      : KDIIS, OOCD, Brueckner-CCSD(T), CCSD density, CASPT2, CASPT2-K, improved NEVPT2
   Axel Koslowski         : Symmetry handling
   Simone Kossmann        : Meta GGA functionals, TD-DFT gradient, OOMP2, (MP2 Hessian; deprecated post 5.0)
   Lucas Lang             : DCDCAS
   Marvin Lechner         : AUTO-CI (C++ implementation), FIC-MRCC
   Spencer Leger          : CASSCF response
   Dagmar Lenk            : GEPOL surface, SMD, ORCA-2-JSON
   Dimitrios Liakos       : Extrapolation schemes; Compound Job, initial MDCI parallelization
   Dimitrios Manganas     : Further ROCIS development; embedding schemes. LFT, Crystal Embedding
   Dimitrios Pantazis     : SARC Basis sets
   Anastasios Papadopoulos: AUTO-CI, single reference methods and gradients
   Taras Petrenko         : pre 6.0 DFT Hessian and TD-DFT gradient, (ASA, deprecated), ECA, 1-Electron XAS/XES, NRVS
   Peter Pinski           : DLPNO-MP2, DLPNO-MP2 Gradient
   Christoph Reimann      : Effective Core Potentials
   Marius Retegan         : Local ZFS, SOC
   Christoph Riplinger    : Optimizer, TS searches, QM/MM, DLPNO-CCSD(T), (RO)-DLPNO pert. Triples
   Michael Roemelt        : Original ROCIS implementation
   Masaaki Saitow         : Open-shell DLPNO-CCSD energy and density
   Barbara Sandhoefer     : DKH picture change effects
   Kantharuban Sivalingam : CASSCF convergence/infrastructure, NEVPT2 and variants, FIC-MRCI
   Bernardo de Souza      : ESD, SOC TD-DFT
   Georgi Stoychev        : AutoAux, RI-MP2 NMR, DLPNO-MP2 response, X2C
   Van Anh Tran           : RI-MP2 g-tensors
   Willem Van den Heuvel  : Paramagnetic NMR
   Zikuan Wang            : NOTCH, Electric field optimization 
   Frank Wennmohs         : Technical directorship and infrastructure
   Hang Xu                : AUTO-CI-Response properties 


 We gratefully acknowledge several colleagues who have allowed us to
 interface, adapt or use parts of their codes:
   Stefan Grimme, W. Hujo, H. Kruse, P. Pracht,  : VdW corrections, initial TS optimization,
                  C. Bannwarth, S. Ehlert,         DFT functionals, gCP, sTDA/sTD-DF
                  L. Wittmann, M. Mueller
   Ed Valeev, F. Pavosevic, A. Kumar             : LibInt (2-el integral package), F12 methods
   Garnet Chan, S. Sharma, J. Yang, R. Olivares  : DMRG
   Ulf Ekstrom                                   : XCFun DFT Library
   Mihaly Kallay                                 : mrcc  (arbitrary order and MRCC methods)
   Frank Weinhold                                : gennbo (NPA and NBO analysis)
   Simon Mueller                                 : openCOSMO-RS
   Christopher J. Cramer and Donald G. Truhlar   : smd solvation model
   Lars Goerigk                                  : TD-DFT with DH, B97 family of functionals
   V. Asgeirsson, H. Jonsson                     : NEB implementation
   FAccTs GmbH                                   : IRC, NEB, NEB-TS, DLPNO-Multilevel, CI-OPT
                                                   MM, QMMM, 2- and 3-layer-ONIOM, Crystal-QMMM,
                                                   LR-CPCM, SF, NACMEs, symmetry and pop. for TD-DFT,
                                                   nearIR, NL-DFT gradient (VV10), updates on ESD,
                                                   ML-optimized integration grids, MBIS, APM,
                                                   GOAT, DOCKER, SOLVATOR, interface openCOSMO-RS
   S Lehtola, MJT Oliveira, MAL Marques          : LibXC Library
   Liviu Ungur et al                             : ANISO software


 Your calculation uses the libint2 library for the computation of 2-el integrals
 For citations please refer to: http://libint.valeyev.net

 Your ORCA version has been built with support for libXC version: 6.2.2
 For citations please refer to: https://libxc.gitlab.io

 This ORCA versions uses:
   CBLAS   interface :  Fast vector & matrix operations
   LAPACKE interface :  Fast linear algebra routines
   Shared memory     :  Shared parallel matrices


Your calculation utilizes the atom-pairwise dispersion correction
with the Becke-Johnson damping scheme (D3BJ)


Warning: RI is on but no J-basis has been assigned. Assigning Def2/J (nothing to worry about!)
================================================================================

----- Orbital basis set information -----
Your calculation utilizes the basis: def2-SVP
   F. Weigend and R. Ahlrichs, Phys. Chem. Chem. Phys. 7, 3297 (2005).

----- AuxJ basis set information -----
Your calculation utilizes the auxiliary basis: def2/J
   F. Weigend, Phys. Chem. Chem. Phys. 8, 1057 (2006).

================================================================================
                                        WARNINGS
                       Please study these warnings very carefully!
================================================================================


WARNING: Geometry Optimization
  ===> : Switching off AutoStart
         For restart on a previous wavefunction, please use MOREAD

================================================================================
                                       INPUT FILE
================================================================================
NAME = data/geom_opt_P_BP86/82100/82100.inp
|  1> ! RI BP86 def2-SVP D3BJ TIGHTSCF Opt
|  2> %pal
|  3> nprocs 6
|  4> end
|  5> 
|  6> * xyz 0 1
|  7> C      3.939771   -1.242537   -0.465123
|  8> C      2.635732   -1.328774    0.314423
|  9> C      1.900392    0.013441    0.314691
| 10> P      0.349145   -0.034553    1.322572
| 11> C     -0.437501    1.584132    0.991036
| 12> C     -1.831938    1.719274    1.109529
| 13> C     -2.463907    2.945284    0.882291
| 14> C     -1.710314    4.065279    0.547186
| 15> C     -0.326246    3.959755    0.448134
| 16> C      0.304532    2.731545    0.675138
| 17> C     -0.686293   -1.167693    0.332886
| 18> C     -1.171843   -2.336732    0.937522
| 19> C     -1.960639   -3.238826    0.218923
| 20> C     -2.274163   -2.983780   -1.113781
| 21> C     -1.799997   -1.827427   -1.728262
| 22> C     -1.010438   -0.925680   -1.010098
| 23> H      4.451477   -2.210019   -0.455465
| 24> H      3.755255   -0.966180   -1.508163
| 25> H      4.611766   -0.498725   -0.025273
| 26> H      2.856560   -1.643175    1.341980
| 27> H      2.013083   -2.112785   -0.132150
| 28> H      1.687190    0.320903   -0.715106
| 29> H      2.566405    0.768718    0.747088
| 30> H     -2.448485    0.864102    1.381277
| 31> H     -3.544228    3.021265    0.972666
| 32> H     -2.199377    5.019787    0.373002
| 33> H      0.268210    4.835467    0.200630
| 34> H      1.387841    2.700036    0.607418
| 35> H     -0.939579   -2.557266    1.977489
| 36> H     -2.329283   -4.139864    0.702000
| 37> H     -2.888578   -3.684685   -1.672528
| 38> H     -2.045510   -1.623368   -2.767132
| 39> H     -0.659043   -0.026920   -1.511905
| 40> **                         ****END OF INPUT****
================================================================================

                       *****************************
                       * Geometry Optimization Run *
                       *****************************

Geometry optimization settings:
Update method            Update   .... BFGS
Choice of coordinates    CoordSys .... (2022) Redundant Internals
Initial Hessian          InHess   .... Almloef's Model
Max. no of cycles        MaxIter  .... 99

Convergence Tolerances:
Energy Change            TolE     ....  5.0000e-06 Eh
Max. Gradient            TolMAXG  ....  3.0000e-04 Eh/bohr
RMS Gradient             TolRMSG  ....  1.0000e-04 Eh/bohr
Max. Displacement        TolMAXD  ....  4.0000e-03 bohr
RMS Displacement         TolRMSD  ....  2.0000e-03 bohr
Strict Convergence                .... False

------------------------------------------------------------------------------
                        ORCA OPTIMIZATION COORDINATE SETUP
------------------------------------------------------------------------------

The optimization will be done in redundant internal coordinates (2022)
Making redundant internal coordinates   ...  (2022 redundants) done
Evaluating the initial hessian          ...  (Almloef) done
Evaluating the coordinates              ...  done
Calculating the B-matrix                .... done
Calculating the G-matrix                .... done
Diagonalizing the G-matrix              .... done
Small eigenvalue found = 5.282e-03
Small eigenvalue found = 6.710e-03
Small eigenvalue found = 1.387e-02
Small eigenvalue found = 2.671e-02
The first mode is                       ....   71
The number of degrees of freedom        ....   93

    -----------------------------------------------------------------
                    Redundant Internal Coordinates


    -----------------------------------------------------------------
         Definition                    Initial Value    Approx d2E/dq
    -----------------------------------------------------------------
      1. B(C   1,C   0)                  1.5217         0.385106   
      2. B(C   2,C   1)                  1.5304         0.372963   
      3. B(P   3,C   2)                  1.8505         0.386787   
      4. B(C   4,P   3)                  1.8300         0.417113   
      5. B(C   5,C   4)                  1.4060         0.589190   
      6. B(C   6,C   5)                  1.3979         0.606926   
      7. B(C   7,C   6)                  1.3909         0.622747   
      8. B(C   8,C   7)                  1.3916         0.621102   
      9. B(C   9,C   8)                  1.3993         0.603913   
     10. B(C   9,C   4)                  1.4025         0.596790   
     11. B(C  10,P   3)                  1.8264         0.422704   
     12. B(C  11,C  10)                  1.4029         0.595982   
     13. B(C  12,C  11)                  1.3973         0.608336   
     14. B(C  13,C  12)                  1.3926         0.618767   
     15. B(C  14,C  13)                  1.3927         0.618663   
     16. B(C  15,C  14)                  1.3973         0.608373   
     17. B(C  15,C  10)                  1.4026         0.596567   
     18. B(H  16,C   0)                  1.0945         0.354180   
     19. B(H  17,C   0)                  1.0947         0.353946   
     20. B(H  18,C   0)                  1.0947         0.353975   
     21. B(H  19,C   1)                  1.0970         0.350912   
     22. B(H  20,C   1)                  1.0963         0.351909   
     23. B(H  21,C   2)                  1.0957         0.352690   
     24. B(H  22,C   2)                  1.0959         0.352387   
     25. B(H  23,C   5)                  1.0887         0.361806   
     26. B(H  24,C   6)                  1.0868         0.364420   
     27. B(H  25,C   7)                  1.0866         0.364682   
     28. B(H  26,C   8)                  1.0870         0.364128   
     29. B(H  27,C   9)                  1.0859         0.365591   
     30. B(H  28,C  11)                  1.0882         0.362529   
     31. B(H  29,C  12)                  1.0868         0.364360   
     32. B(H  30,C  13)                  1.0867         0.364458   
     33. B(H  31,C  14)                  1.0868         0.364338   
     34. B(H  32,C  15)                  1.0877         0.363176   
     35. A(C   1,C   0,H  16)          110.2445         0.325056   
     36. A(H  16,C   0,H  17)          108.0811         0.289300   
     37. A(C   1,C   0,H  18)          111.0223         0.325025   
     38. A(C   1,C   0,H  17)          110.9756         0.325021   
     39. A(H  16,C   0,H  18)          108.0639         0.289304   
     40. A(H  17,C   0,H  18)          108.3479         0.289274   
     41. A(C   0,C   1,H  20)          108.5766         0.324713   
     42. A(H  19,C   1,H  20)          106.9136         0.288620   
     43. A(C   2,C   1,H  19)          110.3587         0.322859   
     44. A(C   2,C   1,H  20)          110.7556         0.323010   
     45. A(C   0,C   1,C   2)          111.2311         0.365143   
     46. A(C   0,C   1,H  19)          108.8793         0.324562   
     47. A(C   1,C   2,H  22)          108.2095         0.323081   
     48. A(C   1,C   2,H  21)          109.8424         0.323127   
     49. A(H  21,C   2,H  22)          107.1996         0.288910   
     50. A(P   3,C   2,H  21)          110.8586         0.345120   
     51. A(P   3,C   2,H  22)          108.2054         0.345070   
     52. A(C   1,C   2,P   3)          112.3409         0.388901   
     53. A(C   2,P   3,C   4)          103.8115         0.422726   
     54. A(C   2,P   3,C  10)          101.3150         0.423733   
     55. A(C   4,P   3,C  10)          101.9416         0.429501   
     56. A(C   5,C   4,C   9)          117.7159         0.427175   
     57. A(P   3,C   4,C   9)          122.4819         0.428317   
     58. A(P   3,C   4,C   5)          119.7416         0.427334   
     59. A(C   4,C   5,C   6)          121.2636         0.428467   
     60. A(C   6,C   5,H  23)          118.2590         0.351920   
     61. A(C   4,C   5,H  23)          120.4773         0.350161   
     62. A(C   7,C   6,H  24)          120.1546         0.353887   
     63. A(C   5,C   6,C   7)          120.0293         0.432749   
     64. A(C   5,C   6,H  24)          119.8155         0.352349   
     65. A(C   6,C   7,C   8)          119.6668         0.434550   
     66. A(C   6,C   7,H  25)          120.1409         0.353930   
     67. A(C   8,C   7,H  25)          120.1897         0.353772   
     68. A(C   9,C   8,H  26)          119.8391         0.352005   
     69. A(C   7,C   8,H  26)          119.9367         0.353681   
     70. A(C   7,C   8,C   9)          120.2228         0.432157   
     71. A(C   8,C   9,H  27)          117.7155         0.352243   
     72. A(C   4,C   9,H  27)          121.2075         0.351537   
     73. A(C   4,C   9,C   8)          121.0746         0.429069   
     74. A(P   3,C  10,C  11)          118.6656         0.429237   
     75. A(C  11,C  10,C  15)          118.4564         0.428025   
     76. A(P   3,C  10,C  15)          122.8764         0.429312   
     77. A(C  10,C  11,C  12)          120.7798         0.429527   
     78. A(C  12,C  11,H  28)          118.7612         0.352177   
     79. A(C  10,C  11,H  28)          120.4591         0.350958   
     80. A(C  13,C  12,H  29)          120.0554         0.353493   
     81. A(C  11,C  12,H  29)          119.8778         0.352477   
     82. A(C  11,C  12,C  13)          120.0668         0.432431   
     83. A(C  14,C  13,H  30)          120.0768         0.353499   
     84. A(C  12,C  13,H  30)          120.0790         0.353509   
     85. A(C  12,C  13,C  14)          119.8441         0.433742   
     86. A(C  15,C  14,H  31)          119.8537         0.352477   
     87. A(C  13,C  14,H  31)          120.0490         0.353479   
     88. A(C  13,C  14,C  15)          120.0972         0.432423   
     89. A(C  14,C  15,H  32)          118.6009         0.352287   
     90. A(C  10,C  15,H  32)          120.6414         0.351122   
     91. A(C  10,C  15,C  14)          120.7556         0.429607   
     92. D(C   2,C   1,C   0,H  18)     60.3116         0.011804   
     93. D(H  19,C   1,C   0,H  16)     58.2103         0.011804   
     94. D(H  19,C   1,C   0,H  18)    -61.5120         0.011804   
     95. D(C   2,C   1,C   0,H  16)   -179.9662         0.011804   
     96. D(C   2,C   1,C   0,H  17)    -60.2525         0.011804   
     97. D(H  19,C   1,C   0,H  17)    177.9240         0.011804   
     98. D(H  21,C   2,C   1,H  19)    179.8085         0.011109   
     99. D(H  21,C   2,C   1,C   0)     58.8492         0.011109   
    100. D(P   3,C   2,C   1,H  20)     61.8910         0.011109   
    101. D(P   3,C   2,C   1,C   0)   -177.2638         0.011109   
    102. D(P   3,C   2,C   1,H  19)    -56.3045         0.011109   
    103. D(H  21,C   2,C   1,H  20)    -61.9960         0.011109   
    104. D(C   4,P   3,C   2,H  22)     67.6040         0.003521   
    105. D(C   4,P   3,C   2,H  21)    -49.6820         0.003521   
    106. D(C   4,P   3,C   2,C   1)   -173.0018         0.003521   
    107. D(C  10,P   3,C   2,H  21)     55.7734         0.003521   
    108. D(C  10,P   3,C   2,C   1)    -67.5463         0.003521   
    109. D(C   9,C   4,P   3,C  10)   -134.1036         0.003662   
    110. D(C   9,C   4,P   3,C   2)    -29.1222         0.003662   
    111. D(C   5,C   4,P   3,C  10)     48.7924         0.003662   
    112. D(C   5,C   4,P   3,C   2)    153.7738         0.003662   
    113. D(H  23,C   5,C   4,C   9)   -178.2371         0.023886   
    114. D(H  23,C   5,C   4,P   3)     -0.9965         0.023886   
    115. D(C   6,C   5,C   4,C   9)      1.8410         0.023886   
    116. D(C   6,C   5,C   4,P   3)    179.0816         0.023886   
    117. D(H  24,C   6,C   5,H  23)     -0.4143         0.025426   
    118. D(H  24,C   6,C   5,C   4)    179.5093         0.025426   
    119. D(C   7,C   6,C   5,H  23)    179.3087         0.025426   
    120. D(C   7,C   6,C   5,C   4)     -0.7677         0.025426   
    121. D(C   8,C   7,C   6,H  24)    179.3184         0.026850   
    122. D(C   8,C   7,C   6,C   5)     -0.4036         0.026850   
    123. D(H  25,C   7,C   6,H  24)     -0.0998         0.026850   
    124. D(H  25,C   7,C   6,C   5)   -179.8218         0.026850   
    125. D(H  26,C   8,C   7,H  25)      0.3009         0.026700   
    126. D(H  26,C   8,C   7,C   6)   -179.1170         0.026700   
    127. D(C   9,C   8,C   7,H  25)    179.8617         0.026700   
    128. D(C   9,C   8,C   7,C   6)      0.4438         0.026700   
    129. D(H  27,C   9,C   8,H  26)      0.8104         0.025160   
    130. D(H  27,C   9,C   8,C   7)   -178.7508         0.025160   
    131. D(C   4,C   9,C   8,H  26)   -179.7508         0.025160   
    132. D(C   4,C   9,C   8,C   7)      0.6879         0.025160   
    133. D(H  27,C   9,C   4,C   5)    177.6215         0.024539   
    134. D(H  27,C   9,C   4,P   3)      0.4618         0.024539   
    135. D(C   8,C   9,C   4,C   5)     -1.7976         0.024539   
    136. D(C   8,C   9,C   4,P   3)   -178.9572         0.024539   
    137. D(C  15,C  10,P   3,C   4)     49.1206         0.003722   
    138. D(C  15,C  10,P   3,C   2)    -57.8070         0.003722   
    139. D(C  11,C  10,P   3,C   4)   -131.3512         0.003722   
    140. D(C  11,C  10,P   3,C   2)    121.7212         0.003722   
    141. D(H  28,C  11,C  10,C  15)    179.9503         0.024469   
    142. D(H  28,C  11,C  10,P   3)      0.4010         0.024469   
    143. D(C  12,C  11,C  10,C  15)     -0.0330         0.024469   
    144. D(C  12,C  11,C  10,P   3)   -179.5823         0.024469   
    145. D(H  29,C  12,C  11,H  28)      0.0347         0.025551   
    146. D(H  29,C  12,C  11,C  10)   -179.9818         0.025551   
    147. D(C  13,C  12,C  11,H  28)   -179.9787         0.025551   
    148. D(C  13,C  12,C  11,C  10)      0.0048         0.025551   
    149. D(H  30,C  13,C  12,H  29)      0.0565         0.026487   
    150. D(H  30,C  13,C  12,C  11)   -179.9301         0.026487   
    151. D(C  14,C  13,C  12,H  29)    179.9668         0.026487   
    152. D(C  14,C  13,C  12,C  11)     -0.0197         0.026487   
    153. D(C  15,C  14,C  13,H  30)    179.9738         0.026478   
    154. D(C  15,C  14,C  13,C  12)      0.0635         0.026478   
    155. D(H  31,C  14,C  13,H  30)      0.1228         0.026478   
    156. D(H  31,C  14,C  13,C  12)   -179.7875         0.026478   
    157. D(H  32,C  15,C  14,H  31)      0.2784         0.025554   
    158. D(H  32,C  15,C  14,C  13)   -179.5729         0.025554   
    159. D(C  10,C  15,C  14,H  31)    179.7582         0.025554   
    160. D(C  10,C  15,C  14,C  13)     -0.0932         0.025554   
    161. D(H  32,C  15,C  10,C  11)    179.5461         0.024519   
    162. D(H  32,C  15,C  10,P   3)     -0.9248         0.024519   
    163. D(C  14,C  15,C  10,C  11)      0.0770         0.024519   
    164. D(C  14,C  15,C  10,P   3)    179.6061         0.024519   
    -----------------------------------------------------------------

Number of atoms                         .... 33
Number of degrees of freedom            .... 164


         *************************************************************
         *                GEOMETRY OPTIMIZATION CYCLE   1            *
         *************************************************************
---------------------------------
CARTESIAN COORDINATES (ANGSTROEM)
---------------------------------
  C      3.939771   -1.242537   -0.465123
  C      2.635732   -1.328774    0.314423
  C      1.900392    0.013441    0.314691
  P      0.349145   -0.034553    1.322572
  C     -0.437501    1.584132    0.991036
  C     -1.831938    1.719274    1.109529
  C     -2.463907    2.945284    0.882291
  C     -1.710314    4.065279    0.547186
  C     -0.326246    3.959755    0.448134
  C      0.304532    2.731545    0.675138
  C     -0.686293   -1.167693    0.332886
  C     -1.171843   -2.336732    0.937522
  C     -1.960639   -3.238826    0.218923
  C     -2.274163   -2.983780   -1.113781
  C     -1.799997   -1.827427   -1.728262
  C     -1.010438   -0.925680   -1.010098
  H      4.451477   -2.210019   -0.455465
  H      3.755255   -0.966180   -1.508163
  H      4.611766   -0.498725   -0.025273
  H      2.856560   -1.643175    1.341980
  H      2.013083   -2.112785   -0.132150
  H      1.687190    0.320903   -0.715106
  H      2.566405    0.768718    0.747088
  H     -2.448485    0.864102    1.381277
  H     -3.544228    3.021265    0.972666
  H     -2.199377    5.019787    0.373002
  H      0.268210    4.835467    0.200630
  H      1.387841    2.700036    0.607418
  H     -0.939579   -2.557266    1.977489
  H     -2.329283   -4.139864    0.702000
  H     -2.888578   -3.684685   -1.672528
  H     -2.045510   -1.623368   -2.767132
  H     -0.659043   -0.026920   -1.511905

----------------------------
CARTESIAN COORDINATES (A.U.)
----------------------------
  NO LB      ZA    FRAG     MASS         X           Y           Z
   0 C     6.0000    0    12.011    7.445088   -2.348055   -0.878955
   1 C     6.0000    0    12.011    4.980812   -2.511019    0.594173
   2 C     6.0000    0    12.011    3.591220    0.025400    0.594680
   3 P    15.0000    0    30.974    0.659788   -0.065296    2.499299
   4 C     6.0000    0    12.011   -0.826757    2.993576    1.872787
   5 C     6.0000    0    12.011   -3.461861    3.248957    2.096706
   6 C     6.0000    0    12.011   -4.656109    5.565780    1.667288
   7 C     6.0000    0    12.011   -3.232025    7.682264    1.034032
   8 C     6.0000    0    12.011   -0.616516    7.482853    0.846851
   9 C     6.0000    0    12.011    0.575482    5.161872    1.275826
  10 C     6.0000    0    12.011   -1.296906   -2.206620    0.629063
  11 C     6.0000    0    12.011   -2.214462   -4.415784    1.771660
  12 C     6.0000    0    12.011   -3.705071   -6.120494    0.413705
  13 C     6.0000    0    12.011   -4.297545   -5.638527   -2.104741
  14 C     6.0000    0    12.011   -3.401501   -3.453337   -3.265942
  15 C     6.0000    0    12.011   -1.909451   -1.749282   -1.908809
  16 H     1.0000    0     1.008    8.412072   -4.176331   -0.860704
  17 H     1.0000    0     1.008    7.096404   -1.825816   -2.850015
  18 H     1.0000    0     1.008    8.714975   -0.942454   -0.047759
  19 H     1.0000    0     1.008    5.398116   -3.105151    2.535975
  20 H     1.0000    0     1.008    3.804176   -3.992585   -0.249727
  21 H     1.0000    0     1.008    3.188327    0.606419   -1.351354
  22 H     1.0000    0     1.008    4.849803    1.452666    1.411792
  23 H     1.0000    0     1.008   -4.626966    1.632916    2.610235
  24 H     1.0000    0     1.008   -6.697620    5.709363    1.838072
  25 H     1.0000    0     1.008   -4.156220    9.486023    0.704872
  26 H     1.0000    0     1.008    0.506843    9.137708    0.379136
  27 H     1.0000    0     1.008    2.622639    5.102329    1.147854
  28 H     1.0000    0     1.008   -1.775547   -4.832532    3.736913
  29 H     1.0000    0     1.008   -4.401707   -7.823209    1.326588
  30 H     1.0000    0     1.008   -5.458621   -6.963046   -3.160620
  31 H     1.0000    0     1.008   -3.865454   -3.067721   -5.229122
  32 H     1.0000    0     1.008   -1.245411   -0.050871   -2.857086

--------------------------------
INTERNAL COORDINATES (ANGSTROEM)
--------------------------------
 C      0   0   0     0.000000000000     0.00000000     0.00000000
 C      1   0   0     1.521724843658     0.00000000     0.00000000
 C      2   1   0     1.530446370720   111.23109579     0.00000000
 P      3   2   1     1.850539053683   112.34086791   182.73621100
 C      4   3   2     1.829991578625   103.81149240   186.99824169
 C      5   4   3     1.405972438628   119.74157926   153.77378991
 C      6   5   4     1.397899297412   121.26361474   179.08155720
 C      7   6   5     1.390894162292   120.02931029   359.23225830
 C      8   7   6     1.391614473158   119.66682543   359.59640429
 C      9   8   7     1.399253910268   120.22276433     0.44377449
 C      4   3   2     1.826367019534   101.31498317   292.45366451
 C     11   4   3     1.402852693093   118.66558503   121.72118400
 C     12  11   4     1.397267775787   120.77978022   180.41774306
 C     13  12  11     1.392639835818   120.06684495     0.00000000
 C     14  13  12     1.392685375642   119.84414781     0.00000000
 C     15  14  13     1.397251086021   120.09715423     0.06347697
 H      1   2   3     1.094512552566   110.24445510   180.03384563
 H      1   2   3     1.094692553782   110.97557557   299.74754529
 H      1   2   3     1.094669627727   111.02226179    60.31155800
 H      2   1   3     1.097035269549   108.87930424   238.17645284
 H      2   1   3     1.096262956435   108.57658603   122.11707153
 H      3   2   1     1.095659543589   109.84242308    58.84924347
 H      3   2   1     1.095894077230   108.20948139   302.12801540
 H      6   5   4     1.088713152441   120.47729150   359.00347932
 H      7   6   5     1.086753981372   119.81551620   179.50930329
 H      8   7   6     1.086557962508   120.14089104   180.17819914
 H      9   8   7     1.086971790294   119.93668040   180.88297361
 H     10   9   8     1.085880842893   117.71545017   181.24921881
 H     12  11   4     1.088169642997   120.45906455     0.40100642
 H     13  12  11     1.086798630892   119.87777598   180.01823467
 H     14  13  12     1.086725274050   120.07901366   180.06994957
 H     15  14  13     1.086815341054   120.04897982   180.21245304
 H     16  15  14     1.087684811365   118.60088256   180.42711595

---------------------------
INTERNAL COORDINATES (A.U.)
---------------------------
 C      0   0   0     0.000000000000     0.00000000     0.00000000
 C      1   0   0     2.875643205698     0.00000000     0.00000000
 C      2   1   0     2.892124503314   111.23109579     0.00000000
 P      3   2   1     3.497012011587   112.34086791   182.73621100
 C      4   3   2     3.458182910983   103.81149240   186.99824169
 C      5   4   3     2.656902860849   119.74157926   153.77378991
 C      6   5   4     2.641646834910   121.26361474   179.08155720
 C      7   6   5     2.628409048002   120.02931029   359.23225830
 C      8   7   6     2.629770238271   119.66682543   359.59640429
 C      9   8   7     2.644206682225   120.22276433     0.44377449
 C      4   3   2     3.451333486944   101.31498317   292.45366451
 C     11   4   3     2.651007396179   118.66558503   121.72118400
 C     12  11   4     2.640453431991   120.77978022   180.41774306
 C     13  12  11     2.631707892886   120.06684495     0.00000000
 C     14  13  12     2.631793950680   119.84414781     0.00000000
 C     15  14  13     2.640421892903   120.09715423     0.06347697
 H      1   2   3     2.068328974488   110.24445510   180.03384563
 H      1   2   3     2.068669127490   110.97557557   299.74754529
 H      1   2   3     2.068625803526   111.02226179    60.31155800
 H      2   1   3     2.073096218700   108.87930424   238.17645284
 H      2   1   3     2.071636758424   108.57658603   122.11707153
 H      3   2   1     2.070496473400   109.84242308    58.84924347
 H      3   2   1     2.070939677750   108.20948139   302.12801540
 H      6   5   4     2.057369696511   120.47729150   359.00347932
 H      7   6   5     2.053667399741   119.81551620   179.50930329
 H      8   7   6     2.053296977771   120.14089104   180.17819914
 H      9   8   7     2.054078998955   119.93668040   180.88297361
 H     10   9   8     2.052017407139   117.71545017   181.24921881
 H     12  11   4     2.056342612512   120.45906455     0.40100642
 H     13  12  11     2.053751775107   119.87777598   180.01823467
 H     14  13  12     2.053613150765   120.07901366   180.06994957
 H     15  14  13     2.053783352736   120.04897982   180.21245304
 H     16  15  14     2.055426413506   118.60088256   180.42711595

---------------------
BASIS SET INFORMATION
---------------------
There are 3 groups of distinct atoms

 Group   1 Type C   : 7s4p1d contracted to 3s2p1d pattern {511/31/1}
 Group   2 Type P   : 10s7p1d contracted to 4s3p1d pattern {5311/511/1}
 Group   3 Type H   : 4s1p contracted to 2s1p pattern {31/1}

Atom   0C    basis set group =>   1
Atom   1C    basis set group =>   1
Atom   2C    basis set group =>   1
Atom   3P    basis set group =>   2
Atom   4C    basis set group =>   1
Atom   5C    basis set group =>   1
Atom   6C    basis set group =>   1
Atom   7C    basis set group =>   1
Atom   8C    basis set group =>   1
Atom   9C    basis set group =>   1
Atom  10C    basis set group =>   1
Atom  11C    basis set group =>   1
Atom  12C    basis set group =>   1
Atom  13C    basis set group =>   1
Atom  14C    basis set group =>   1
Atom  15C    basis set group =>   1
Atom  16H    basis set group =>   3
Atom  17H    basis set group =>   3
Atom  18H    basis set group =>   3
Atom  19H    basis set group =>   3
Atom  20H    basis set group =>   3
Atom  21H    basis set group =>   3
Atom  22H    basis set group =>   3
Atom  23H    basis set group =>   3
Atom  24H    basis set group =>   3
Atom  25H    basis set group =>   3
Atom  26H    basis set group =>   3
Atom  27H    basis set group =>   3
Atom  28H    basis set group =>   3
Atom  29H    basis set group =>   3
Atom  30H    basis set group =>   3
Atom  31H    basis set group =>   3
Atom  32H    basis set group =>   3
---------------------------------
AUXILIARY/J BASIS SET INFORMATION
---------------------------------
There are 3 groups of distinct atoms

 Group   1 Type C   : 12s5p4d2f1g contracted to 6s4p3d1f1g pattern {711111/2111/211/2/1}
 Group   2 Type P   : 14s5p5d2f1g contracted to 8s4p3d1f1g pattern {71111111/2111/311/2/1}
 Group   3 Type H   : 5s2p1d contracted to 3s1p1d pattern {311/2/1}

Atom   0C    basis set group =>   1
Atom   1C    basis set group =>   1
Atom   2C    basis set group =>   1
Atom   3P    basis set group =>   2
Atom   4C    basis set group =>   1
Atom   5C    basis set group =>   1
Atom   6C    basis set group =>   1
Atom   7C    basis set group =>   1
Atom   8C    basis set group =>   1
Atom   9C    basis set group =>   1
Atom  10C    basis set group =>   1
Atom  11C    basis set group =>   1
Atom  12C    basis set group =>   1
Atom  13C    basis set group =>   1
Atom  14C    basis set group =>   1
Atom  15C    basis set group =>   1
Atom  16H    basis set group =>   3
Atom  17H    basis set group =>   3
Atom  18H    basis set group =>   3
Atom  19H    basis set group =>   3
Atom  20H    basis set group =>   3
Atom  21H    basis set group =>   3
Atom  22H    basis set group =>   3
Atom  23H    basis set group =>   3
Atom  24H    basis set group =>   3
Atom  25H    basis set group =>   3
Atom  26H    basis set group =>   3
Atom  27H    basis set group =>   3
Atom  28H    basis set group =>   3
Atom  29H    basis set group =>   3
Atom  30H    basis set group =>   3
Atom  31H    basis set group =>   3
Atom  32H    basis set group =>   3


           ************************************************************
           *        Program running with 6 parallel MPI-processes     *
           *              working on a common directory               *
           ************************************************************
------------------------------------------------------------------------------
                             ORCA STARTUP CALCULATIONS
                           -- RI-GTO INTEGRALS CHOSEN --
------------------------------------------------------------------------------
------------------------------------------------------------------------------
                   ___                                                        
                  /   \      - P O W E R E D   B Y -                         
                 /     \                                                     
                 |  |  |   _    _      __       _____    __    __             
                 |  |  |  | |  | |    /  \     |  _  \  |  |  /  |          
                  \  \/   | |  | |   /    \    | | | |  |  | /  /          
                 / \  \   | |__| |  /  /\  \   | |_| |  |  |/  /          
                |  |  |   |  __  | /  /__\  \  |    /   |      \           
                |  |  |   | |  | | |   __   |  |    \   |  |\   \          
                \     /   | |  | | |  |  |  |  | |\  \  |  | \   \       
                 \___/    |_|  |_| |__|  |__|  |_| \__\ |__|  \__/        
                                                                              
                      - O R C A' S   B I G   F R I E N D -                    
                                      &                                       
                       - I N T E G R A L  F E E D E R -                       
                                                                              
 v1 FN, 2020, v2 2021, v3 2022-2024                                           
------------------------------------------------------------------------------


----------------------
SHARK INTEGRAL PACKAGE
----------------------

Number of atoms                             ...     33
Number of basis functions                   ...    313
Number of shells                            ...    149
Maximum angular momentum                    ...      2
Integral batch strategy                     ... SHARK/LIBINT Hybrid
RI-J (if used) integral strategy            ... SPLIT-RIJ (Revised 2003 algorithm where possible)
Printlevel                                  ...      1
Contraction scheme used                     ... SEGMENTED contraction
Prescreening option                         ... SCHWARTZ
   Thresh                                   ... 2.500e-11
   Tcut                                     ... 2.500e-12
   Tpresel                                  ... 2.500e-12 
Coulomb Range Separation                    ... NOT USED
Exchange Range Separation                   ... NOT USED
Multipole approximations                    ... NOT USED
Finite Nucleus Model                        ... NOT USED
CABS basis                                  ... NOT available
Auxiliary Coulomb fitting basis             ... AVAILABLE
   # of basis functions in Aux-J            ...    973
   # of shells in Aux-J                     ...    327
   Maximum angular momentum in Aux-J        ...      4
Auxiliary J/K fitting basis                 ... NOT available
Auxiliary Correlation fitting basis         ... NOT available
Auxiliary 'external' fitting basis          ... NOT available

Checking pre-screening integrals            ... done (  0.0 sec) Dimension = 149
Check shell pair data                       ... done (  0.0 sec)
Shell pair information
Shell pair cut-off parameter TPreSel        ...   2.5e-12
Total number of shell pairs                 ...     11175
Shell pairs after pre-screening             ...      9014
Total number of primitive shell pairs       ...     40455
Primitive shell pairs kept                  ...     21517
          la=0 lb=0:   2896 shell pairs
          la=1 lb=0:   3390 shell pairs
          la=1 lb=1:   1019 shell pairs
          la=2 lb=0:   1030 shell pairs
          la=2 lb=1:    589 shell pairs
          la=2 lb=2:     90 shell pairs

Calculating one electron integrals          ... done (  0.0 sec)
Calculating RI/J V-Matrix + Cholesky decomp.... done (  0.0 sec)
Calculating Nuclear repulsion               ... done (  0.0 sec) ENN=   1132.897141242795 Eh

Diagonalization of the overlap matrix:
Smallest eigenvalue                        ... 2.688e-04
Time for diagonalization                   ...    0.012 sec
Threshold for overlap eigenvalues          ... 1.000e-07
Number of eigenvalues below threshold      ... 0
Time for construction of square roots      ...    0.007 sec
Total time needed                          ...    0.020 sec

-------------------
DFT GRID GENERATION
-------------------

General Integration Accuracy     IntAcc      ... 4.388
Radial Grid Type                 RadialGrid  ... OptM3 with GC (2021)
Angular Grid (max. ang.)         AngularGrid ... 4 (Lebedev-302)
Angular grid pruning method      GridPruning ... 4 (adaptive)
Weight generation scheme         WeightScheme... mBecke (2022)
Basis function cutoff            BFCut       ... 1.0000e-11
Integration weight cutoff        WCut        ... 1.0000e-14
Partially contracted basis set               ... off
Rotationally invariant grid construction     ... off
Angular grids for H and He will be reduced by one unit

Total number of grid points                  ...   151074
Total number of batches                      ...     2381
Average number of points per batch           ...       63
Average number of grid points per atom       ...     4578
Initializing property integral containers    ... done (  0.0 sec)

SHARK setup successfully completed in   0.9 seconds

Maximum memory used throughout the entire STARTUP-calculation: 40.2 MB


           ************************************************************
           *        Program running with 6 parallel MPI-processes     *
           *              working on a common directory               *
           ************************************************************
-------------------------------------------------------------------------------
                                 ORCA GUESS
                   Start orbitals & Density for SCF / CASSCF
-------------------------------------------------------------------------------

------------
SCF SETTINGS
------------
Hamiltonian:
 Density Functional     Method          .... DFT(GTOs)
 Exchange Functional    Exchange        .... B88
   X-Alpha parameter    XAlpha          ....  0.666667
   Becke's b parameter  XBeta           ....  0.004200
 Correlation Functional Correlation     .... P86
 LDA part of GGA corr.  LDAOpt          .... PW91-LDA
 Gradients option       PostSCFGGA      .... off
   NL short-range parameter             ....  4.400000
 RI-approximation to the Coulomb term is turned on
   Number of AuxJ basis functions       .... 973


General Settings:
 Integral files         IntName         .... data/geom_opt_P_BP86/82100/82100
 Hartree-Fock type      HFTyp           .... RHF
 Total Charge           Charge          ....    0
 Multiplicity           Mult            ....    1
 Number of Electrons    NEL             ....  122
 Basis Dimension        Dim             ....  313
 Nuclear Repulsion      ENuc            ....   1132.8971412428 Eh

Convergence Acceleration:
 AO-DIIS                CNVDIIS         .... on
   Start iteration      DIISMaxIt       ....    12
   Startup error        DIISStart       ....  0.200000
   # of expansion vecs  DIISMaxEq       ....     5
   Bias factor          DIISBfac        ....   1.050
   Max. coefficient     DIISMaxC        ....  10.000
 MO-DIIS                CNVKDIIS        .... off
 Trust-Rad. Augm. Hess. CNVTRAH         .... auto
   Auto Start mean grad. ratio tolernc. ....  1.125000
   Auto Start start iteration           ....    50
   Auto Start num. interpolation iter.  ....    10
   Max. Number of Micro iterations      ....    24
   Max. Number of Macro iterations      .... Maxiter - #DIIS iter
   Number of Davidson start vectors     ....     2
   Converg. threshold    (grad. norm)   ....   1.000e-05
   Grad. Scal. Fac. for Micro threshold ....   0.100
   Minimum threshold for Micro iter.    ....   1.000e-02
   NR start threshold (gradient norm)   ....   1.000e-04
   Initial trust radius                 ....   0.400
   Minimum AH scaling param. (alpha)    ....   1.000
   Maximum AH scaling param. (alpha)    .... 1000.000
   Quad. conv. algorithm                .... NR
   White noise on init. David. guess    .... on
   Maximum white noise                  ....   0.010
   Pseudo random numbers                .... off
   Inactive MOs                         .... canonical
   Orbital update algorithm             .... Taylor
   Preconditioner                       .... Diag
   Full preconditioner red. dimension   ....   250
 SOSCF                  CNVSOSCF        .... on
   Start iteration      SOSCFMaxIt      ....   150
   Startup grad/error   SOSCFStart      ....  0.003300
   Hessian update       SOSCFHessUp     .... L-BFGS
 Level Shifting         CNVShift        .... on
   Level shift para.    LevelShift      ....    0.2500
   Turn off err/grad.   ShiftErr        ....    0.0010
 Zerner damping         CNVZerner       .... off
 Static damping         CNVDamp         .... on
   Fraction old density DampFac         ....    0.7000
   Max. Damping (<1)    DampMax         ....    0.9800
   Min. Damping (>=0)   DampMin         ....    0.0000
   Turn off err/grad.   DampErr         ....    0.1000

SCF Procedure:
 Maximum # iterations   MaxIter         ....   125
 SCF integral mode      SCFMode         .... Direct
   Integral package                     .... SHARK and LIBINT hybrid scheme
 Reset frequency        DirectResetFreq ....    20
 Integral Threshold     Thresh          ....  2.500e-11 Eh
 Primitive CutOff       TCut            ....  2.500e-12 Eh

Convergence Tolerance:
 Convergence Check Mode ConvCheckMode   .... Total+1el-Energy
 Convergence forced     ConvForced      .... 0
 Energy Change          TolE            ....  1.000e-08 Eh
 1-El. energy change                    ....  1.000e-05 Eh
 Orbital Gradient       TolG            ....  1.000e-05
 Orbital Rotation angle TolX            ....  1.000e-05
 DIIS Error             TolErr          ....  5.000e-07

------------------------------
INITIAL GUESS: MODEL POTENTIAL
------------------------------
Loading Hartree-Fock densities                     ... done
Calculating cut-offs                               ... done
Initializing the effective Hamiltonian             ... done
Setting up the integral package (SHARK)            ... done
Starting the Coulomb interaction                   ... done (   0.1 sec)
Making the grid                                    ... done (   0.2 sec)
Mapping shells                                     ... done
Starting the XC term evaluation                    ... done (   0.1 sec)
  promolecular density results
     # of electrons  =    121.990028872
     EX              =   -104.801016323
     EC              =     -4.498949581
     EX+EC           =   -109.299965904
Transforming the Hamiltonian                       ... done (   0.0 sec)
Diagonalizing the Hamiltonian                      ... done (   0.0 sec)
Back transforming the eigenvectors                 ... done (   0.0 sec)
Now organizing SCF variables                       ... done
                      ------------------
                      INITIAL GUESS DONE (   0.5 sec)
                      ------------------
             **** ENERGY FILE WAS UPDATED (data/geom_opt_P_BP86/82100/82100.en.tmp) ****
Finished Guess after   0.6 sec
Maximum memory used throughout the entire GUESS-calculation: 22.2 MB


           ************************************************************
           *        Program running with 6 parallel MPI-processes     *
           *              working on a common directory               *
           ************************************************************

-------------------------------------------------------------------------------------------
                                      ORCA LEAN-SCF
                              memory conserving SCF solver
-------------------------------------------------------------------------------------------

----------------------------------------D-I-I-S--------------------------------------------
Iteration    Energy (Eh)           Delta-E    RMSDP     MaxDP     DIISErr   Damp  Time(sec)
-------------------------------------------------------------------------------------------
               ***  Starting incremental Fock matrix formation  ***
    1    -922.3633482214979722     0.00e+00  2.24e-03  7.64e-02  1.62e-01  0.700   0.7
    2    -922.5209233612220032    -1.58e-01  1.59e-03  4.35e-02  7.67e-02  0.700   0.7
                               ***Turning on AO-DIIS***
    3    -922.5783730427131104    -5.74e-02  7.24e-04  4.18e-02  2.10e-02  0.700   0.7
    4    -922.6119699138682790    -3.36e-02  1.38e-03  9.47e-02  8.71e-03  0.000   0.7
    5    -922.6869202440432218    -7.50e-02  2.57e-04  1.34e-02  5.59e-03  0.000   0.7
                              *** Initializing SOSCF ***
---------------------------------------S-O-S-C-F--------------------------------------
Iteration    Energy (Eh)           Delta-E    RMSDP     MaxDP     MaxGrad    Time(sec)
--------------------------------------------------------------------------------------
    6    -922.6875606218775374    -6.40e-04  9.19e-05  3.64e-03  1.21e-03     0.7
               *** Restarting incremental Fock matrix formation ***
    7    -922.6876017410274926    -4.11e-05  6.67e-05  2.79e-03  1.78e-04     0.7
    8    -922.6876022805338380    -5.40e-07  2.31e-05  5.07e-04  3.23e-04     0.6
    9    -922.6876049845716352    -2.70e-06  2.96e-05  1.57e-03  2.26e-04     0.6
   10    -922.6876049877935202    -3.22e-09  1.33e-05  5.73e-04  1.08e-04     0.6
                 **** Energy Check signals convergence ****

               *****************************************************
               *                     SUCCESS                       *
               *           SCF CONVERGED AFTER  10 CYCLES          *
               *****************************************************

             **** ENERGY FILE WAS UPDATED (data/geom_opt_P_BP86/82100/82100.en.tmp) ****

----------------
TOTAL SCF ENERGY
----------------

Total Energy       :       -922.68760498779352 Eh          -25107.60618 eV

Components:
Nuclear Repulsion  :       1132.89714124279521 Eh           30827.69846 eV
Electronic Energy  :      -2055.58474623058873 Eh          -55935.30464 eV
One Electron Energy:      -3506.02797267161623 Eh          -95403.87138 eV
Two Electron Energy:       1450.44322644102749 Eh           39468.56673 eV

Virial components:
Potential Energy   :      -1837.47212932996626 Eh          -50000.15860 eV
Kinetic Energy     :        914.78452434217263 Eh           24892.55242 eV
Virial Ratio       :          2.00863928109333

DFT components:
N(Alpha)           :       60.999989369163 electrons
N(Beta)            :       60.999989369163 electrons
N(Total)           :      121.999978738326 electrons
E(X)               :     -106.431022412644 Eh       
E(C)               :       -4.501806886322 Eh       
E(XC)              :     -110.932829298966 Eh       

---------------
SCF CONVERGENCE
---------------

  Last Energy change         ...    3.2219e-09  Tolerance :   1.0000e-08
  Last MAX-Density change    ...    5.7300e-04  Tolerance :   1.0000e-07
  Last RMS-Density change    ...    1.3336e-05  Tolerance :   5.0000e-09
  Last DIIS Error            ...    1.2149e-03  Tolerance :   5.0000e-07
  Last Orbital Gradient      ...    1.0850e-04  Tolerance :   1.0000e-05
  Last Orbital Rotation      ...    1.8304e-04  Tolerance :   1.0000e-05


----------------
ORBITAL ENERGIES
----------------

  NO   OCC          E(Eh)            E(eV) 
   0   2.0000     -76.335246     -2077.1877 
   1   2.0000      -9.922664      -270.0094 
   2   2.0000      -9.922362      -270.0012 
   3   2.0000      -9.921758      -269.9848 
   4   2.0000      -9.921469      -269.9769 
   5   2.0000      -9.920808      -269.9589 
   6   2.0000      -9.920775      -269.9580 
   7   2.0000      -9.919994      -269.9367 
   8   2.0000      -9.916735      -269.8481 
   9   2.0000      -9.915700      -269.8199 
  10   2.0000      -9.915485      -269.8141 
  11   2.0000      -9.914933      -269.7991 
  12   2.0000      -9.914471      -269.7865 
  13   2.0000      -9.912534      -269.7338 
  14   2.0000      -9.912170      -269.7239 
  15   2.0000      -9.903660      -269.4923 
  16   2.0000      -6.305219      -171.5737 
  17   2.0000      -4.526779      -123.1799 
  18   2.0000      -4.526400      -123.1696 
  19   2.0000      -4.522821      -123.0722 
  20   2.0000      -0.780451       -21.2372 
  21   2.0000      -0.772278       -21.0147 
  22   2.0000      -0.720378       -19.6025 
  23   2.0000      -0.689273       -18.7561 
  24   2.0000      -0.674839       -18.3633 
  25   2.0000      -0.670424       -18.2432 
  26   2.0000      -0.667425       -18.1615 
  27   2.0000      -0.626357       -17.0440 
  28   2.0000      -0.568941       -15.4817 
  29   2.0000      -0.546830       -14.8800 
  30   2.0000      -0.543286       -14.7836 
  31   2.0000      -0.536155       -14.5895 
  32   2.0000      -0.524827       -14.2813 
  33   2.0000      -0.498589       -13.5673 
  34   2.0000      -0.468640       -12.7523 
  35   2.0000      -0.449300       -12.2261 
  36   2.0000      -0.422779       -11.5044 
  37   2.0000      -0.410565       -11.1720 
  38   2.0000      -0.407893       -11.0993 
  39   2.0000      -0.402541       -10.9537 
  40   2.0000      -0.397412       -10.8141 
  41   2.0000      -0.379858       -10.3365 
  42   2.0000      -0.378096       -10.2885 
  43   2.0000      -0.375389       -10.2149 
  44   2.0000      -0.370699       -10.0872 
  45   2.0000      -0.362054        -9.8520 
  46   2.0000      -0.345407        -9.3990 
  47   2.0000      -0.337189        -9.1754 
  48   2.0000      -0.330900        -9.0042 
  49   2.0000      -0.325177        -8.8485 
  50   2.0000      -0.308486        -8.3943 
  51   2.0000      -0.305128        -8.3030 
  52   2.0000      -0.304367        -8.2822 
  53   2.0000      -0.294409        -8.0113 
  54   2.0000      -0.284840        -7.7509 
  55   2.0000      -0.280942        -7.6448 
  56   2.0000      -0.247058        -6.7228 
  57   2.0000      -0.236911        -6.4467 
  58   2.0000      -0.234331        -6.3765 
  59   2.0000      -0.228180        -6.2091 
  60   2.0000      -0.186209        -5.0670 
  61   0.0000      -0.057923        -1.5762 
  62   0.0000      -0.048921        -1.3312 
  63   0.0000      -0.043831        -1.1927 
  64   0.0000      -0.037059        -1.0084 
  65   0.0000       0.029469         0.8019 
  66   0.0000       0.036351         0.9892 
  67   0.0000       0.040501         1.1021 
  68   0.0000       0.058918         1.6032 
  69   0.0000       0.062754         1.7076 
  70   0.0000       0.068249         1.8572 
  71   0.0000       0.071175         1.9368 
*Only the first 10 virtual orbitals were printed.

                    ********************************
                    * MULLIKEN POPULATION ANALYSIS *
                    ********************************

-----------------------
MULLIKEN ATOMIC CHARGES
-----------------------
   0 C :   -0.034796
   1 C :   -0.025145
   2 C :   -0.175457
   3 P :    0.220106
   4 C :   -0.079447
   5 C :   -0.004230
   6 C :    0.009188
   7 C :    0.004943
   8 C :    0.013937
   9 C :   -0.025146
  10 C :   -0.133645
  11 C :    0.014993
  12 C :    0.004910
  13 C :    0.013029
  14 C :    0.011041
  15 C :    0.019584
  16 H :    0.027736
  17 H :    0.023342
  18 H :    0.022387
  19 H :    0.026680
  20 H :    0.034799
  21 H :    0.036638
  22 H :    0.057424
  23 H :   -0.004774
  24 H :   -0.006358
  25 H :   -0.007778
  26 H :   -0.009011
  27 H :   -0.018775
  28 H :   -0.007449
  29 H :   -0.002915
  30 H :   -0.002393
  31 H :   -0.005047
  32 H :    0.001628
Sum of atomic charges:   -0.0000000

--------------------------------
MULLIKEN REDUCED ORBITAL CHARGES
--------------------------------
  0 C s       :     3.004651  s :     3.004651
      pz      :     1.006625  p :     3.003290
      px      :     0.988410
      py      :     1.008255
      dz2     :     0.007960  d :     0.026855
      dxz     :     0.004604
      dyz     :     0.002677
      dx2y2   :     0.003563
      dxy     :     0.008052

  1 C s       :     3.010491  s :     3.010491
      pz      :     1.015395  p :     2.979481
      px      :     0.983641
      py      :     0.980445
      dz2     :     0.007797  d :     0.035172
      dxz     :     0.005988
      dyz     :     0.005618
      dx2y2   :     0.006283
      dxy     :     0.009487

  2 C s       :     3.090148  s :     3.090148
      pz      :     1.022030  p :     3.056733
      px      :     1.009796
      py      :     1.024906
      dz2     :     0.006395  d :     0.028577
      dxz     :     0.005006
      dyz     :     0.005461
      dx2y2   :     0.005138
      dxy     :     0.006578

  3 P s       :     5.740530  s :     5.740530
      pz      :     3.297857  p :     8.869572
      px      :     2.774786
      py      :     2.796929
      dz2     :     0.018086  d :     0.169791
      dxz     :     0.039955
      dyz     :     0.030443
      dx2y2   :     0.038705
      dxy     :     0.042603

  4 C s       :     3.046622  s :     3.046622
      pz      :     0.992503  p :     2.998024
      px      :     1.008061
      py      :     0.997460
      dz2     :     0.003056  d :     0.034801
      dxz     :     0.005995
      dyz     :     0.005231
      dx2y2   :     0.010007
      dxy     :     0.010511

  5 C s       :     3.222125  s :     3.222125
      pz      :     0.972745  p :     2.749665
      px      :     0.922228
      py      :     0.854693
      dz2     :     0.002369  d :     0.032440
      dxz     :     0.005104
      dyz     :     0.003741
      dx2y2   :     0.009515
      dxy     :     0.011711

  6 C s       :     3.167842  s :     3.167842
      pz      :     0.985491  p :     2.789849
      px      :     0.836864
      py      :     0.967495
      dz2     :     0.002874  d :     0.033121
      dxz     :     0.002589
      dyz     :     0.006232
      dx2y2   :     0.012165
      dxy     :     0.009261

  7 C s       :     3.166719  s :     3.166719
      pz      :     0.987876  p :     2.795248
      px      :     0.940385
      py      :     0.866988
      dz2     :     0.002628  d :     0.033089
      dxz     :     0.005705
      dyz     :     0.003165
      dx2y2   :     0.010340
      dxy     :     0.011251

  8 C s       :     3.165449  s :     3.165449
      pz      :     0.979522  p :     2.787550
      px      :     0.924723
      py      :     0.883305
      dz2     :     0.002326  d :     0.033063
      dxz     :     0.005517
      dyz     :     0.003661
      dx2y2   :     0.009783
      dxy     :     0.011776

  9 C s       :     3.223744  s :     3.223744
      pz      :     0.997891  p :     2.768796
      px      :     0.838551
      py      :     0.932354
      dz2     :     0.002815  d :     0.032606
      dxz     :     0.002387
      dyz     :     0.006027
      dx2y2   :     0.012430
      dxy     :     0.008946

 10 C s       :     3.083324  s :     3.083324
      pz      :     1.001899  p :     3.015257
      px      :     1.005145
      py      :     1.008213
      dz2     :     0.009065  d :     0.035063
      dxz     :     0.006928
      dyz     :     0.009399
      dx2y2   :     0.004441
      dxy     :     0.005230

 11 C s       :     3.229798  s :     3.229798
      pz      :     0.838110  p :     2.722439
      px      :     0.941453
      py      :     0.942877
      dz2     :     0.008288  d :     0.032771
      dxz     :     0.004359
      dyz     :     0.007899
      dx2y2   :     0.006312
      dxy     :     0.005912

 12 C s       :     3.171877  s :     3.171877
      pz      :     0.940675  p :     2.790502
      px      :     0.965045
      py      :     0.884782
      dz2     :     0.008450  d :     0.032711
      dxz     :     0.006767
      dyz     :     0.009206
      dx2y2   :     0.004310
      dxy     :     0.003978

 13 C s       :     3.167965  s :     3.167965
      pz      :     0.933823  p :     2.785899
      px      :     0.933793
      py      :     0.918283
      dz2     :     0.008062  d :     0.033106
      dxz     :     0.006531
      dyz     :     0.009831
      dx2y2   :     0.003741
      dxy     :     0.004940

 14 C s       :     3.170530  s :     3.170530
      pz      :     0.849171  p :     2.785597
      px      :     0.972058
      py      :     0.964368
      dz2     :     0.008487  d :     0.032832
      dxz     :     0.004477
      dyz     :     0.007714
      dx2y2   :     0.006251
      dxy     :     0.005904

 15 C s       :     3.219338  s :     3.219338
      pz      :     0.932573  p :     2.728194
      px      :     0.931958
      py      :     0.863663
      dz2     :     0.008216  d :     0.032885
      dxz     :     0.006837
      dyz     :     0.009503
      dx2y2   :     0.004422
      dxy     :     0.003906

 16 H s       :     0.949507  s :     0.949507
      pz      :     0.005171  p :     0.022756
      px      :     0.006437
      py      :     0.011149

 17 H s       :     0.953734  s :     0.953734
      pz      :     0.012110  p :     0.022925
      px      :     0.004829
      py      :     0.005986

 18 H s       :     0.954701  s :     0.954701
      pz      :     0.006303  p :     0.022912
      px      :     0.007771
      py      :     0.008838

 19 H s       :     0.951678  s :     0.951678
      pz      :     0.011845  p :     0.021642
      px      :     0.004746
      py      :     0.005052

 20 H s       :     0.943164  s :     0.943164
      pz      :     0.006364  p :     0.022038
      px      :     0.007304
      py      :     0.008369

 21 H s       :     0.940964  s :     0.940964
      pz      :     0.012068  p :     0.022398
      px      :     0.005297
      py      :     0.005033

 22 H s       :     0.919940  s :     0.919940
      pz      :     0.006497  p :     0.022636
      px      :     0.007737
      py      :     0.008402

 23 H s       :     0.982092  s :     0.982092
      pz      :     0.005558  p :     0.022681
      px      :     0.006794
      py      :     0.010330

 24 H s       :     0.983975  s :     0.983975
      pz      :     0.005045  p :     0.022383
      px      :     0.013490
      py      :     0.003847

 25 H s       :     0.985351  s :     0.985351
      pz      :     0.005313  p :     0.022427
      px      :     0.005727
      py      :     0.011387

 26 H s       :     0.986611  s :     0.986611
      pz      :     0.005531  p :     0.022401
      px      :     0.006664
      py      :     0.010206

 27 H s       :     0.995949  s :     0.995949
      pz      :     0.005267  p :     0.022825
      px      :     0.013561
      py      :     0.003997

 28 H s       :     0.984915  s :     0.984915
      pz      :     0.013192  p :     0.022534
      px      :     0.005081
      py      :     0.004261

 29 H s       :     0.980530  s :     0.980530
      pz      :     0.005787  p :     0.022385
      px      :     0.005756
      py      :     0.010842

 30 H s       :     0.980065  s :     0.980065
      pz      :     0.006436  p :     0.022327
      px      :     0.007742
      py      :     0.008149

 31 H s       :     0.982671  s :     0.982671
      pz      :     0.012886  p :     0.022377
      px      :     0.005116
      py      :     0.004374

 32 H s       :     0.975804  s :     0.975804
      pz      :     0.005741  p :     0.022568
      px      :     0.005661
      py      :     0.011165



                     *******************************
                     * LOEWDIN POPULATION ANALYSIS *
                     *******************************

----------------------
LOEWDIN ATOMIC CHARGES
----------------------
   0 C :   -0.066582
   1 C :   -0.053990
   2 C :   -0.178294
   3 P :    0.485959
   4 C :   -0.173671
   5 C :   -0.032786
   6 C :   -0.027755
   7 C :   -0.034698
   8 C :   -0.028383
   9 C :   -0.044560
  10 C :   -0.177048
  11 C :   -0.030987
  12 C :   -0.029389
  13 C :   -0.022682
  14 C :   -0.027996
  15 C :   -0.022203
  16 H :    0.028398
  17 H :    0.025028
  18 H :    0.024094
  19 H :    0.025603
  20 H :    0.027290
  21 H :    0.019452
  22 H :    0.026821
  23 H :    0.028492
  24 H :    0.030054
  25 H :    0.028391
  26 H :    0.029114
  27 H :    0.023695
  28 H :    0.027465
  29 H :    0.030773
  30 H :    0.030521
  31 H :    0.030378
  32 H :    0.029495

-------------------------------
LOEWDIN REDUCED ORBITAL CHARGES
-------------------------------
  0 C s       :     2.840845  s :     2.840845
      pz      :     1.056900  p :     3.155292
      px      :     1.032460
      py      :     1.065932
      dz2     :     0.019752  d :     0.070445
      dxz     :     0.013454
      dyz     :     0.006767
      dx2y2   :     0.010252
      dxy     :     0.020220

  1 C s       :     2.838525  s :     2.838525
      pz      :     1.062205  p :     3.127018
      px      :     1.034226
      py      :     1.030588
      dz2     :     0.019816  d :     0.088447
      dxz     :     0.016001
      dyz     :     0.012705
      dx2y2   :     0.015696
      dxy     :     0.024230

  2 C s       :     2.896929  s :     2.896929
      pz      :     1.085021  p :     3.208710
      px      :     1.068593
      py      :     1.055096
      dz2     :     0.017206  d :     0.072654
      dxz     :     0.013348
      dyz     :     0.012003
      dx2y2   :     0.012304
      dxy     :     0.017793

  3 P s       :     5.264537  s :     5.264537
      pz      :     3.369330  p :     9.016562
      px      :     2.814472
      py      :     2.832761
      dz2     :     0.023628  d :     0.232942
      dxz     :     0.054352
      dyz     :     0.040699
      dx2y2   :     0.054106
      dxy     :     0.060158

  4 C s       :     2.915546  s :     2.915546
      pz      :     0.992871  p :     3.167552
      px      :     1.086837
      py      :     1.087844
      dz2     :     0.007184  d :     0.090573
      dxz     :     0.013181
      dyz     :     0.011052
      dx2y2   :     0.029483
      dxy     :     0.029672

  5 C s       :     2.866443  s :     2.866443
      pz      :     0.976581  p :     3.077619
      px      :     1.053125
      py      :     1.047913
      dz2     :     0.005951  d :     0.088724
      dxz     :     0.011347
      dyz     :     0.008061
      dx2y2   :     0.028723
      dxy     :     0.034642

  6 C s       :     2.863264  s :     2.863264
      pz      :     0.973447  p :     3.074865
      px      :     1.038625
      py      :     1.062794
      dz2     :     0.007015  d :     0.089626
      dxz     :     0.005319
      dyz     :     0.014548
      dx2y2   :     0.034365
      dxy     :     0.028380

  7 C s       :     2.861862  s :     2.861862
      pz      :     0.978533  p :     3.082997
      px      :     1.063203
      py      :     1.041260
      dz2     :     0.006546  d :     0.089839
      dxz     :     0.012987
      dyz     :     0.006863
      dx2y2   :     0.030859
      dxy     :     0.032584

  8 C s       :     2.863678  s :     2.863678
      pz      :     0.972928  p :     3.075251
      px      :     1.060864
      py      :     1.041459
      dz2     :     0.005938  d :     0.089454
      dxz     :     0.012279
      dyz     :     0.007887
      dx2y2   :     0.029489
      dxy     :     0.033861

  9 C s       :     2.864639  s :     2.864639
      pz      :     0.987725  p :     3.090413
      px      :     1.040553
      py      :     1.062135
      dz2     :     0.006813  d :     0.089508
      dxz     :     0.004917
      dyz     :     0.013960
      dx2y2   :     0.036184
      dxy     :     0.027634

 10 C s       :     2.915319  s :     2.915319
      pz      :     1.088253  p :     3.169911
      px      :     1.021099
      py      :     1.060559
      dz2     :     0.025623  d :     0.091818
      dxz     :     0.017470
      dyz     :     0.026213
      dx2y2   :     0.010124
      dxy     :     0.012388

 11 C s       :     2.871689  s :     2.871689
      pz      :     1.037957  p :     3.069607
      px      :     0.990923
      py      :     1.040726
      dz2     :     0.022971  d :     0.089691
      dxz     :     0.011508
      dyz     :     0.022733
      dx2y2   :     0.015432
      dxy     :     0.017046

 12 C s       :     2.864340  s :     2.864340
      pz      :     1.055183  p :     3.076296
      px      :     0.996882
      py      :     1.024231
      dz2     :     0.024580  d :     0.088753
      dxz     :     0.017993
      dyz     :     0.025739
      dx2y2   :     0.009762
      dxy     :     0.010679

 13 C s       :     2.863929  s :     2.863929
      pz      :     1.053910  p :     3.069134
      px      :     0.984375
      py      :     1.030848
      dz2     :     0.023613  d :     0.089619
      dxz     :     0.016516
      dyz     :     0.027855
      dx2y2   :     0.009009
      dxy     :     0.012626

 14 C s       :     2.864299  s :     2.864299
      pz      :     1.033771  p :     3.074631
      px      :     0.997764
      py      :     1.043096
      dz2     :     0.022816  d :     0.089066
      dxz     :     0.011819
      dyz     :     0.022706
      dx2y2   :     0.015172
      dxy     :     0.016553

 15 C s       :     2.868371  s :     2.868371
      pz      :     1.053075  p :     3.063831
      px      :     0.986752
      py      :     1.024004
      dz2     :     0.024299  d :     0.090001
      dxz     :     0.018663
      dyz     :     0.026511
      dx2y2   :     0.010008
      dxy     :     0.010519

 16 H s       :     0.905831  s :     0.905831
      pz      :     0.013048  p :     0.065770
      px      :     0.019231
      py      :     0.033490

 17 H s       :     0.909280  s :     0.909280
      pz      :     0.037261  p :     0.065693
      px      :     0.013823
      py      :     0.014608

 18 H s       :     0.910305  s :     0.910305
      pz      :     0.017093  p :     0.065601
      px      :     0.023279
      py      :     0.025229

 19 H s       :     0.907919  s :     0.907919
      pz      :     0.037025  p :     0.066478
      px      :     0.014350
      py      :     0.015103

 20 H s       :     0.905651  s :     0.905651
      pz      :     0.017685  p :     0.067059
      px      :     0.022460
      py      :     0.026914

 21 H s       :     0.908738  s :     0.908738
      pz      :     0.040255  p :     0.071809
      px      :     0.015933
      py      :     0.015621

 22 H s       :     0.902472  s :     0.902472
      pz      :     0.017564  p :     0.070707
      px      :     0.025911
      py      :     0.027231

 23 H s       :     0.902478  s :     0.902478
      pz      :     0.016281  p :     0.069030
      px      :     0.021423
      py      :     0.031327

 24 H s       :     0.901945  s :     0.901945
      pz      :     0.014661  p :     0.068001
      px      :     0.041356
      py      :     0.011984

 25 H s       :     0.903351  s :     0.903351
      pz      :     0.015527  p :     0.068258
      px      :     0.017853
      py      :     0.034879

 26 H s       :     0.902856  s :     0.902856
      pz      :     0.016084  p :     0.068029
      px      :     0.020660
      py      :     0.031285

 27 H s       :     0.906486  s :     0.906486
      pz      :     0.015375  p :     0.069819
      px      :     0.042202
      py      :     0.012241

 28 H s       :     0.903362  s :     0.903362
      pz      :     0.040992  p :     0.069173
      px      :     0.014991
      py      :     0.013190

 29 H s       :     0.901013  s :     0.901013
      pz      :     0.017886  p :     0.068214
      px      :     0.017181
      py      :     0.033146

 30 H s       :     0.901393  s :     0.901393
      pz      :     0.019972  p :     0.068086
      px      :     0.023184
      py      :     0.024930

 31 H s       :     0.901355  s :     0.901355
      pz      :     0.039573  p :     0.068267
      px      :     0.015207
      py      :     0.013487

 32 H s       :     0.901629  s :     0.901629
      pz      :     0.018084  p :     0.068876
      px      :     0.016834
      py      :     0.033958



                      *****************************
                      * MAYER POPULATION ANALYSIS *
                      *****************************

  NA   - Mulliken gross atomic population
  ZA   - Total nuclear charge
  QA   - Mulliken gross atomic charge
  VA   - Mayer's total valence
  BVA  - Mayer's bonded valence
  FA   - Mayer's free valence

  ATOM       NA         ZA         QA         VA         BVA        FA
  0 C      6.0348     6.0000    -0.0348     4.0396     4.0396    -0.0000
  1 C      6.0251     6.0000    -0.0251     4.0940     4.0940    -0.0000
  2 C      6.1755     6.0000    -0.1755     3.9703     3.9703    -0.0000
  3 P     14.7799    15.0000     0.2201     3.0315     3.0315    -0.0000
  4 C      6.0794     6.0000    -0.0794     3.7644     3.7644    -0.0000
  5 C      6.0042     6.0000    -0.0042     3.8948     3.8948    -0.0000
  6 C      5.9908     6.0000     0.0092     3.8625     3.8625    -0.0000
  7 C      5.9951     6.0000     0.0049     3.8324     3.8324    -0.0000
  8 C      5.9861     6.0000     0.0139     3.8556     3.8556     0.0000
  9 C      6.0251     6.0000    -0.0251     3.9028     3.9028    -0.0000
 10 C      6.1336     6.0000    -0.1336     3.8023     3.8023    -0.0000
 11 C      5.9850     6.0000     0.0150     3.8558     3.8558    -0.0000
 12 C      5.9951     6.0000     0.0049     3.8458     3.8458    -0.0000
 13 C      5.9870     6.0000     0.0130     3.8254     3.8254    -0.0000
 14 C      5.9890     6.0000     0.0110     3.8473     3.8473    -0.0000
 15 C      5.9804     6.0000     0.0196     3.8652     3.8652    -0.0000
 16 H      0.9723     1.0000     0.0277     0.9838     0.9838     0.0000
 17 H      0.9767     1.0000     0.0233     0.9906     0.9906    -0.0000
 18 H      0.9776     1.0000     0.0224     0.9908     0.9908    -0.0000
 19 H      0.9733     1.0000     0.0267     0.9824     0.9824     0.0000
 20 H      0.9652     1.0000     0.0348     0.9843     0.9843     0.0000
 21 H      0.9634     1.0000     0.0366     0.9919     0.9919    -0.0000
 22 H      0.9426     1.0000     0.0574     0.9774     0.9774    -0.0000
 23 H      1.0048     1.0000    -0.0048     0.9907     0.9907    -0.0000
 24 H      1.0064     1.0000    -0.0064     0.9779     0.9779    -0.0000
 25 H      1.0078     1.0000    -0.0078     0.9780     0.9780    -0.0000
 26 H      1.0090     1.0000    -0.0090     0.9776     0.9776     0.0000
 27 H      1.0188     1.0000    -0.0188     0.9932     0.9932    -0.0000
 28 H      1.0074     1.0000    -0.0074     0.9969     0.9969    -0.0000
 29 H      1.0029     1.0000    -0.0029     0.9784     0.9784    -0.0000
 30 H      1.0024     1.0000    -0.0024     0.9782     0.9782    -0.0000
 31 H      1.0050     1.0000    -0.0050     0.9784     0.9784    -0.0000
 32 H      0.9984     1.0000     0.0016     0.9901     0.9901    -0.0000

  Mayer bond orders larger than 0.100000
B(  0-C ,  1-C ) :   1.1182 B(  0-C , 16-H ) :   0.9616 B(  0-C , 17-H ) :   0.9668 
B(  0-C , 18-H ) :   0.9679 B(  1-C ,  2-C ) :   1.0654 B(  1-C , 19-H ) :   0.9367 
B(  1-C , 20-H ) :   0.9381 B(  2-C ,  3-P ) :   0.9756 B(  2-C , 21-H ) :   0.9193 
B(  2-C , 22-H ) :   0.9274 B(  3-P ,  4-C ) :   0.9229 B(  3-P , 10-C ) :   0.9431 
B(  4-C ,  5-C ) :   1.3605 B(  4-C ,  9-C ) :   1.3662 B(  5-C ,  6-C ) :   1.4136 
B(  5-C , 23-H ) :   0.9761 B(  6-C ,  7-C ) :   1.3714 B(  6-C , 24-H ) :   0.9801 
B(  7-C ,  8-C ) :   1.3845 B(  7-C , 25-H ) :   0.9804 B(  8-C ,  9-C ) :   1.3963 
B(  8-C , 26-H ) :   0.9774 B(  9-C , 27-H ) :   0.9752 B( 10-C , 11-C ) :   1.3708 
B( 10-C , 15-C ) :   1.3504 B( 11-C , 12-C ) :   1.3806 B( 11-C , 28-H ) :   0.9829 
B( 12-C , 13-C ) :   1.3868 B( 12-C , 29-H ) :   0.9814 B( 13-C , 14-C ) :   1.3693 
B( 13-C , 30-H ) :   0.9805 B( 14-C , 15-C ) :   1.4036 B( 14-C , 31-H ) :   0.9796 
B( 15-C , 32-H ) :   0.9746 

-------
TIMINGS
-------

Total SCF time: 0 days 0 hours 0 min 6 sec 

[...]
      px      :     1.053261
      py      :     1.038050
      dz2     :     0.006050  d :     0.086457
      dxz     :     0.013104
      dyz     :     0.010279
      dx2y2   :     0.026922
      dxy     :     0.030102

  9 C s       :     2.873633  s :     2.873633
      pz      :     0.992997  p :     3.087111
      px      :     1.037734
      py      :     1.056380
      dz2     :     0.007792  d :     0.087015
      dxz     :     0.007799
      dyz     :     0.015103
      dx2y2   :     0.031222
      dxy     :     0.025098

 10 C s       :     2.925194  s :     2.925194
      pz      :     1.074232  p :     3.158095
      px      :     1.014083
      py      :     1.069780
      dz2     :     0.022165  d :     0.088090
      dxz     :     0.013749
      dyz     :     0.025601
      dx2y2   :     0.013161
      dxy     :     0.013414

 11 C s       :     2.878826  s :     2.878826
      pz      :     1.030117  p :     3.071883
      px      :     0.986600
      py      :     1.055166
      dz2     :     0.019280  d :     0.087152
      dxz     :     0.009543
      dyz     :     0.024646
      dx2y2   :     0.016662
      dxy     :     0.017021

 12 C s       :     2.873299  s :     2.873299
      pz      :     1.047121  p :     3.073462
      px      :     0.994372
      py      :     1.031970
      dz2     :     0.022658  d :     0.085850
      dxz     :     0.015555
      dyz     :     0.024660
      dx2y2   :     0.012916
      dxy     :     0.010060

 13 C s       :     2.873974  s :     2.873974
      pz      :     1.040319  p :     3.068218
      px      :     0.983877
      py      :     1.044022
      dz2     :     0.019669  d :     0.085705
      dxz     :     0.012680
      dyz     :     0.027845
      dx2y2   :     0.011879
      dxy     :     0.013632

 14 C s       :     2.873161  s :     2.873161
      pz      :     1.026693  p :     3.071615
      px      :     0.991575
      py      :     1.053347
      dz2     :     0.018749  d :     0.086127
      dxz     :     0.009713
      dyz     :     0.024458
      dx2y2   :     0.016725
      dxy     :     0.016482

 15 C s       :     2.876140  s :     2.876140
      pz      :     1.042303  p :     3.065482
      px      :     0.985938
      py      :     1.037241
      dz2     :     0.023018  d :     0.087287
      dxz     :     0.016199
      dyz     :     0.024656
      dx2y2   :     0.013287
      dxy     :     0.010127

 16 H s       :     0.906211  s :     0.906211
      pz      :     0.012234  p :     0.063382
      px      :     0.017541
      py      :     0.033607

 17 H s       :     0.909240  s :     0.909240
      pz      :     0.036704  p :     0.063203
      px      :     0.012691
      py      :     0.013809

 18 H s       :     0.910588  s :     0.910588
      pz      :     0.015874  p :     0.063101
      px      :     0.023481
      py      :     0.023746

 19 H s       :     0.909157  s :     0.909157
      pz      :     0.036459  p :     0.063882
      px      :     0.013020
      py      :     0.014404

 20 H s       :     0.904967  s :     0.904967
      pz      :     0.016352  p :     0.064976
      px      :     0.023393
      py      :     0.025231

 21 H s       :     0.908501  s :     0.908501
      pz      :     0.039291  p :     0.068892
      px      :     0.014880
      py      :     0.014721

 22 H s       :     0.904361  s :     0.904361
      pz      :     0.017080  p :     0.067993
      px      :     0.024811
      py      :     0.026102

 23 H s       :     0.901922  s :     0.901922
      pz      :     0.018400  p :     0.066543
      px      :     0.019434
      py      :     0.028708

 24 H s       :     0.900970  s :     0.900970
      pz      :     0.014839  p :     0.065734
      px      :     0.039329
      py      :     0.011565

 25 H s       :     0.901838  s :     0.901838
      pz      :     0.014597  p :     0.065995
      px      :     0.017110
      py      :     0.034289

 26 H s       :     0.901997  s :     0.901997
      pz      :     0.018452  p :     0.065775
      px      :     0.019322
      py      :     0.028000

 27 H s       :     0.903976  s :     0.903976
      pz      :     0.015774  p :     0.067959
      px      :     0.040221
      py      :     0.011964

 28 H s       :     0.904012  s :     0.904012
      pz      :     0.037263  p :     0.066883
      px      :     0.016494
      py      :     0.013125

 29 H s       :     0.900803  s :     0.900803
      pz      :     0.014772  p :     0.065885
      px      :     0.014132
      py      :     0.036981

 30 H s       :     0.901144  s :     0.901144
      pz      :     0.021137  p :     0.065868
      px      :     0.021062
      py      :     0.023669

 31 H s       :     0.900980  s :     0.900980
      pz      :     0.035942  p :     0.065890
      px      :     0.016340
      py      :     0.013607

 32 H s       :     0.898681  s :     0.898681
      pz      :     0.014315  p :     0.067562
      px      :     0.014033
      py      :     0.039214



                      *****************************
                      * MAYER POPULATION ANALYSIS *
                      *****************************

  NA   - Mulliken gross atomic population
  ZA   - Total nuclear charge
  QA   - Mulliken gross atomic charge
  VA   - Mayer's total valence
  BVA  - Mayer's bonded valence
  FA   - Mayer's free valence

  ATOM       NA         ZA         QA         VA         BVA        FA
  0 C      6.0489     6.0000    -0.0489     4.0291     4.0291    -0.0000
  1 C      6.0306     6.0000    -0.0306     4.0789     4.0789     0.0000
  2 C      6.1965     6.0000    -0.1965     3.9620     3.9620    -0.0000
  3 P     14.7702    15.0000     0.2298     3.0126     3.0126    -0.0000
  4 C      6.1276     6.0000    -0.1276     3.7971     3.7971    -0.0000
  5 C      5.9918     6.0000     0.0082     3.8836     3.8836    -0.0000
  6 C      6.0019     6.0000    -0.0019     3.8659     3.8659    -0.0000
  7 C      5.9996     6.0000     0.0004     3.8300     3.8300    -0.0000
  8 C      5.9950     6.0000     0.0050     3.8455     3.8455    -0.0000
  9 C      6.0220     6.0000    -0.0220     3.8949     3.8949     0.0000
 10 C      6.1494     6.0000    -0.1494     3.8319     3.8319    -0.0000
 11 C      5.9891     6.0000     0.0109     3.8591     3.8591    -0.0000
 12 C      6.0032     6.0000    -0.0032     3.8486     3.8486    -0.0000
 13 C      5.9966     6.0000     0.0034     3.8277     3.8277    -0.0000
 14 C      5.9972     6.0000     0.0028     3.8420     3.8420    -0.0000
 15 C      5.9809     6.0000     0.0191     3.8713     3.8713    -0.0000
 16 H      0.9667     1.0000     0.0333     0.9828     0.9828     0.0000
 17 H      0.9717     1.0000     0.0283     0.9890     0.9890    -0.0000
 18 H      0.9731     1.0000     0.0269     0.9883     0.9883    -0.0000
 19 H      0.9707     1.0000     0.0293     0.9801     0.9801     0.0000
 20 H      0.9589     1.0000     0.0411     0.9866     0.9866     0.0000
 21 H      0.9524     1.0000     0.0476     0.9878     0.9878    -0.0000
 22 H      0.9373     1.0000     0.0627     0.9718     0.9718     0.0000
 23 H      0.9962     1.0000     0.0038     0.9907     0.9907    -0.0000
 24 H      0.9962     1.0000     0.0038     0.9787     0.9787     0.0000
 25 H      0.9971     1.0000     0.0029     0.9788     0.9788    -0.0000
 26 H      0.9997     1.0000     0.0003     0.9784     0.9784    -0.0000
 27 H      1.0059     1.0000    -0.0059     0.9970     0.9970     0.0000
 28 H      1.0001     1.0000    -0.0001     0.9942     0.9942    -0.0000
 29 H      0.9953     1.0000     0.0047     0.9789     0.9789     0.0000
 30 H      0.9947     1.0000     0.0053     0.9787     0.9787    -0.0000
 31 H      0.9969     1.0000     0.0031     0.9789     0.9789    -0.0000
 32 H      0.9865     1.0000     0.0135     0.9906     0.9906     0.0000

  Mayer bond orders larger than 0.100000
B(  0-C ,  1-C ) :   1.1141 B(  0-C , 16-H ) :   0.9627 B(  0-C , 17-H ) :   0.9667 
B(  0-C , 18-H ) :   0.9680 B(  1-C ,  2-C ) :   1.0605 B(  1-C , 19-H ) :   0.9357 
B(  1-C , 20-H ) :   0.9362 B(  2-C ,  3-P ) :   0.9766 B(  2-C , 21-H ) :   0.9185 
B(  2-C , 22-H ) :   0.9274 B(  3-P ,  4-C ) :   0.9201 B(  3-P , 10-C ) :   0.9336 
B(  4-C ,  5-C ) :   1.3586 B(  4-C ,  9-C ) :   1.3811 B(  5-C ,  6-C ) :   1.4209 
B(  5-C , 23-H ) :   0.9708 B(  6-C ,  7-C ) :   1.3654 B(  6-C , 24-H ) :   0.9755 
B(  7-C ,  8-C ) :   1.3906 B(  7-C , 25-H ) :   0.9758 B(  8-C ,  9-C ) :   1.3811 
B(  8-C , 26-H ) :   0.9729 B(  9-C , 27-H ) :   0.9677 B( 10-C , 11-C ) :   1.3765 
B( 10-C , 15-C ) :   1.3688 B( 11-C , 12-C ) :   1.3800 B( 11-C , 28-H ) :   0.9743 
B( 12-C , 13-C ) :   1.3893 B( 12-C , 29-H ) :   0.9765 B( 13-C , 14-C ) :   1.3683 
B( 13-C , 30-H ) :   0.9757 B( 14-C , 15-C ) :   1.4005 B( 14-C , 31-H ) :   0.9746 
B( 15-C , 32-H ) :   0.9648 

-------
TIMINGS
-------

Total SCF time: 0 days 0 hours 0 min 4 sec 

Total time                  ....       4.641 sec
Sum of individual times     ....       4.551 sec  ( 98.1%)

SCF preparation             ....       0.120 sec  (  2.6%)
Fock matrix formation       ....       4.039 sec  ( 87.0%)
  Startup                   ....       0.022 sec  (  0.5% of F)
  Split-RI-J                ....       1.391 sec  ( 34.4% of F)
  XC integration            ....       2.541 sec  ( 62.9% of F)
    Basis function eval.    ....       0.782 sec  ( 30.8% of XC)
    Density eval.           ....       0.722 sec  ( 28.4% of XC)
    XC-Functional eval.     ....       0.073 sec  (  2.9% of XC)
    XC-Potential eval.      ....       0.528 sec  ( 20.8% of XC)
Diagonalization             ....       0.000 sec  (  0.0%)
Density matrix formation    ....       0.049 sec  (  1.1%)
Total Energy calculation    ....       0.021 sec  (  0.5%)
Population analysis         ....       0.085 sec  (  1.8%)
Orbital Transformation      ....       0.029 sec  (  0.6%)
Orbital Orthonormalization  ....       0.000 sec  (  0.0%)
DIIS solution               ....       0.034 sec  (  0.7%)
SOSCF solution              ....       0.174 sec  (  3.7%)
Finished LeanSCF after   4.7 sec

Maximum memory used throughout the entire LEANSCF-calculation: 32.9 MB


-------------------------------------------------------------------------------
                          DFT DISPERSION CORRECTION                            
                                                                               
                              DFTD3 V3.1  Rev 1                                
                          USING Becke-Johnson damping                          
-------------------------------------------------------------------------------
The BP86 functional is recognized
Active option DFTDOPT                   ...         4   

molecular C6(AA) [au] = 13239.349974 


            DFT-D V3
 parameters
 s6 scaling factor         :     1.0000 
 a1 scaling factor         :     0.3946 
 s8 scaling factor         :     3.2822 
 a2 scaling factor         :     4.8516 
 ad hoc parameters k1-k3   :    16.0000     1.3333    -4.0000 

 Edisp/kcal,au: -43.611377911858  -0.069499147124 
 E6   /kcal   : -15.984178614 
 E8   /kcal   : -27.627199298 
 % E8         :  63.348604471 

-------------------------   ----------------
Dispersion correction           -0.069499147
-------------------------   ----------------


-------------------------   --------------------
FINAL SINGLE POINT ENERGY      -922.762779925582
-------------------------   --------------------

                                *** OPTIMIZATION RUN DONE ***



           ************************************************************
           *        Program running with 6 parallel MPI-processes     *
           *              working on a common directory               *
           ************************************************************

------------------------------------------------------------------------------
                              ORCA PROPERTY CALCULATIONS
------------------------------------------------------------------------------

GBWName                                 ... data/geom_opt_P_BP86/82100/82100.gbw
Number of atoms                         ...     33
Number of basis functions               ...    313
Max core memory                         ...   1024 MB

Electric properties:
Dipole moment                           ... YES
Quadrupole moment                       ...  NO
Static polarizability (Dipole/Dipole)   ...  NO
Static polarizability (Dipole/Quad.)    ...  NO
Static polarizability (Quad./Quad.)     ...  NO
Static polarizability (Velocity)        ...  NO

Atomic electric properties:
Dipole moment                           ...  NO
Quadrupole moment                       ...  NO
Static polarizability                   ...  NO

Choice of electric origin               ... Center of mass
Position of electric origin             ...    -0.547654     0.188351     0.586812

General magnetic properties:
Magnetizability                         ...  NO

EPR properties:
g-Tensor (aka g-matrix)                 ...  NO
Zero-Field splitting spin-orbit         ...  NO
Zero-field splitting spin-spin          ...  NO
Hyperfine couplings                     ...  NO (   0 nuclei)
Quadrupole couplings                    ...  NO (   0 nuclei)
Contact density                         ...  NO (   0 nuclei)

NMR properties:
Chemical shifts                         ...  NO (   0 nuclei)
Spin-rotation constants                 ...  NO (   0 nuclei)
Spin-spin couplings                     ...  NO (   0 nuclei,    0 pairs)

Choice of magnetic origin               ... GIAO
Position of magnetic origin             ...     0.000000     0.000000     0.000000

Properties with geometric perturbations:
SCF Hessian                             ...  NO
IR spectrum                             ...  NO
VCD spectrum                            ...  NO
X-ray spectroscopy properties:
SCF XES/XAS/RIXS spectra                ...  NO


-------------
DIPOLE MOMENT
-------------

Method             : SCF
Type of density    : Electron Density
Multiplicity       :   1
Irrep              :   0
Energy             :  -922.6932807784580746 Eh
Relativity type    : 
Basis              : AO
                                X                 Y                 Z
Electronic contribution:    -10.202651157       3.397962623       5.790408742
Nuclear contribution   :     10.218417917      -3.454219347      -6.305267222
                        -----------------------------------------
Total Dipole Moment    :      0.015766760      -0.056256724      -0.514858480
                        -----------------------------------------
Magnitude (a.u.)       :      0.518162778
Magnitude (Debye)      :      1.317065113



--------------------
Rotational spectrum 
--------------------
 
Rotational constants in cm-1:             0.019376             0.012036             0.008627 
Rotational constants in MHz :           580.869391           360.828865           258.629803 

Dipole components along the rotational axes: 
x,y,z [a.u.] :    -0.142484    -0.068484    -0.493458 
x,y,z [Debye]:    -0.362166    -0.174074    -1.254270 

 

Dipole moment calculation done in   0.0 sec 

Maximum memory used throughout the entire PROP-calculation: 16.4 MB

--------------------------------
SUGGESTED CITATIONS FOR THIS RUN
--------------------------------

Below you find a list of papers that are relevant to this ORCA run
We neither can nor want to force you to cite these papers, but we appreciate if you do
You receive ORCA, which is the product of decades of hard work by many enthusiastic individuals, for free
The only thing we kindly ask in return is that you cite our papers,
We deeply appreciate it, if you show your appreciation for ORCA by not just citing the generic ORCA reference.

Please note that relegating all ORCA citations to the supporting information does *not* help us.
SI sections are not indexed - citations you put there will not count into any citation statistics
But we need these citations in order to attract the funding resources that allow us to do what we are doing

Therefore, if you are a happy ORCA user, please consider citing a few of the papers listed below in the main body of your paper

In addition to the list printed below, the program has created the file data/geom_opt_P_BP86/82100/82100.bibtex that contains the list in bibtex format
You can import this file easily into all common literature databanks and citation aid programs


List of essential papers. We consider these as the minimum necessary citations

  1. Neese,F.
     Software update: the ORCA program system, version 5.0
     WIRES Comput. Molec. Sci., 2022 12(1)e1606
     doi.org/10.1002/wcms.1606

List of papers to cite with high priority. The work reported in these papers was absolutely
necessary for this run to complete.
Our perspective: the developers of density functionals and basis sets usually get cited in chemistry papers
Good! But without the algorithms to do something with them, the functionals or basis sets would not do anything.
Hence, in our opinion, the algorithm design and method developments papers are equally worthy of getting cited

  1. Neese,F.
     An improvement of the resolution of the identity approximation for the formation of the Coulomb matrix
     J. Comp. Chem., 2003 24(14)1740-1747
     doi.org/10.1002/jcc.10318
  2. Neese,F.
     The SHARK Integral Generation and Digestion System
     J. Comp. Chem., 2022  1-16
     doi.org/10.1002/jcc.26942
  3. Grimme,S.; Antony,J.; Ehrlich,S.; Krieg,H.
     A consistent and accurate ab initio parametrization of density functional dispersion correction (DFT-D) for the 94 elements H-Pu
     J. Chem. Phys., 2010 132 154104-XXXX
     doi.org/10.1063/1.3382344
  4. Grimme,S.; Ehrlich,S.; Goerigk,L.
     Effect of the damping function in dispersion corrected density functional theory
     J. Comput. Chem., 2011 32(7)1456-1465
     doi.org/10.1002/jcc.21759

List of suggested additional citations. These are papers that are important in the 'surrounding' of 
of this run, or papers that preceded the highly important papers. If you like your results we are grateful for a citation.

  1. Neese,F.
     The ORCA program system
     WIRES Comput. Molec. Sci., 2012 2(1)73-78
     doi.org/10.1002/wcms.81
  2. Neese,F.
     Software update: the ORCA program system, version 4.0
     WIRES Comput. Molec. Sci., 2018 8(1)1-6
     doi.org/10.1002/wcms.1327
  3. Neese,F.; Wennmohs,F.; Becker,U.; Riplinger,C.
     The ORCA quantum chemistry program package
     J. Chem. Phys., 2020 152 Art. No. L224108
     doi.org/10.1063/5.0004608

List of optional additional citations

  1. Neese,F.
     Approximate second-order SCF convergence for spin unrestricted wavefunctions
     Chem. Phys. Lett., 2000 325(1-3)93-98
     doi.org/10.1016/s0009-2614(00)00662-x

Timings for individual modules:

Sum of individual times          ...      143.175 sec (=   2.386 min)
Startup calculation              ...       12.882 sec (=   0.215 min)   9.0 %
SCF iterations                   ...       81.513 sec (=   1.359 min)  56.9 %
Property calculations            ...        0.156 sec (=   0.003 min)   0.1 %
SCF Gradient evaluation          ...       48.460 sec (=   0.808 min)  33.8 %
Geometry relaxation              ...        0.164 sec (=   0.003 min)   0.1 %
                             ****ORCA TERMINATED NORMALLY****
TOTAL RUN TIME: 0 days 0 hours 2 minutes 25 seconds 448 msec
