
                                 *****************
                                 * O   R   C   A *
                                 *****************

                                            #,                                       
                                            ###                                      
                                            ####                                     
                                            #####                                    
                                            ######                                   
                                           ########,                                 
                                     ,,################,,,,,                         
                               ,,#################################,,                 
                          ,,##########################################,,             
                       ,#########################################, ''#####,          
                    ,#############################################,,   '####,        
                  ,##################################################,,,,####,       
                ,###########''''           ''''###############################       
              ,#####''   ,,,,##########,,,,          '''####'''          '####       
            ,##' ,,,,###########################,,,                        '##       
           ' ,,###''''                  '''############,,,                           
         ,,##''                                '''############,,,,        ,,,,,,###''
      ,#''                                            '''#######################'''  
     '                                                          ''''####''''         
             ,#######,   #######,   ,#######,      ##                                
            ,#'     '#,  ##    ##  ,#'     '#,    #''#        ,####,   ,####,        
            ##       ##  ##   ,#'  ##            #'  '#       #'       #'  '#        
            ##       ##  #######   ##           ,######,      #####,   #    #        
            '#,     ,#'  ##    ##  '#,     ,#' ,#      #,     #,   #   #,  ,#        
             '#######'   ##     ##  '#######'  #'      '#     '####' # '####'        



                #########################################################
                #                        -***-                          #
                #          Department of theory and spectroscopy        #
                #                                                       #
                #                      Frank Neese                      #
                #                                                       #
                #     Directorship, Architecture, Infrastructure        #
                #                    SHARK, DRIVERS                     #
                #        Core code/Algorithms in most modules           #
                #                                                       #
                #        Max Planck Institute fuer Kohlenforschung      #
                #                Kaiser Wilhelm Platz 1                 #
                #                 D-45470 Muelheim/Ruhr                 #
                #                      Germany                          #
                #                                                       #
                #                  All rights reserved                  #
                #                        -***-                          #
                #########################################################


                         Program Version 6.0.0  -   RELEASE   -


 With contributions from (in alphabetic order):
   Daniel Aravena         : Magnetic Suceptibility
   Michael Atanasov       : Ab Initio Ligand Field Theory (pilot matlab implementation)
   Alexander A. Auer      : GIAO ZORA, VPT2 properties, NMR spectrum
   Ute Becker             : All parallelization in ORCA, NUMFREQ, NUMCALC
   Giovanni Bistoni       : ED, misc. LED, open-shell LED, HFLD
   Martin Brehm           : Molecular dynamics
   Dmytro Bykov           : pre 5.0 version of the SCF Hessian
   Marcos Casanova-Páez   : Triplet and SCS-CIS(D). UHF-(DLPNO)-IP/EA/STEOM-CCSD. UHF-CVS-IP/STEOM-CCSD
   Vijay G. Chilkuri      : MRCI spin determinant printing, contributions to CSF-ICE
   Pauline Colinet        : FMM embedding
   Dipayan Datta          : RHF DLPNO-CCSD density
   Achintya Kumar Dutta   : EOM-CC, STEOM-CC
   Nicolas Foglia         : Exact transition moments, OPA infrastructure, MCD improvements
   Dmitry Ganyushin       : Spin-Orbit,Spin-Spin,Magnetic field MRCI
   Miquel Garcia          : C-PCM and meta-GGA Hessian, CCSD/C-PCM, Gaussian charge scheme
   Tiago L. C. Gouveia    : GS-ROHF, GS-ROCIS
   Yang Guo               : DLPNO-NEVPT2, F12-NEVPT2, CIM, IAO-localization
   Andreas Hansen         : Spin unrestricted coupled pair/coupled cluster methods
   Ingolf Harden          : AUTO-CI MPn and infrastructure 
   Benjamin Helmich-Paris : MC-RPA, TRAH-(SCF,CASSCF), AVAS, COSX integrals, SCF dyn. polar.
   Lee Huntington         : MR-EOM, pCC
   Robert Izsak           : Overlap fitted RIJCOSX, COSX-SCS-MP3, EOM
   Riya Kayal             : Wick's Theorem for AUTO-CI, AUTO-CI UHF-CCSDT
   Emily Kempfer          : AUTO-CI, RHF CISDT and CCSDT
   Christian Kollmar      : KDIIS, OOCD, Brueckner-CCSD(T), CCSD density, CASPT2, CASPT2-K, improved NEVPT2
   Axel Koslowski         : Symmetry handling
   Simone Kossmann        : Meta GGA functionals, TD-DFT gradient, OOMP2, (MP2 Hessian; deprecated post 5.0)
   Lucas Lang             : DCDCAS
   Marvin Lechner         : AUTO-CI (C++ implementation), FIC-MRCC
   Spencer Leger          : CASSCF response
   Dagmar Lenk            : GEPOL surface, SMD, ORCA-2-JSON
   Dimitrios Liakos       : Extrapolation schemes; Compound Job, initial MDCI parallelization
   Dimitrios Manganas     : Further ROCIS development; embedding schemes. LFT, Crystal Embedding
   Dimitrios Pantazis     : SARC Basis sets
   Anastasios Papadopoulos: AUTO-CI, single reference methods and gradients
   Taras Petrenko         : pre 6.0 DFT Hessian and TD-DFT gradient, (ASA, deprecated), ECA, 1-Electron XAS/XES, NRVS
   Peter Pinski           : DLPNO-MP2, DLPNO-MP2 Gradient
   Christoph Reimann      : Effective Core Potentials
   Marius Retegan         : Local ZFS, SOC
   Christoph Riplinger    : Optimizer, TS searches, QM/MM, DLPNO-CCSD(T), (RO)-DLPNO pert. Triples
   Michael Roemelt        : Original ROCIS implementation
   Masaaki Saitow         : Open-shell DLPNO-CCSD energy and density
   Barbara Sandhoefer     : DKH picture change effects
   Kantharuban Sivalingam : CASSCF convergence/infrastructure, NEVPT2 and variants, FIC-MRCI
   Bernardo de Souza      : ESD, SOC TD-DFT
   Georgi Stoychev        : AutoAux, RI-MP2 NMR, DLPNO-MP2 response, X2C
   Van Anh Tran           : RI-MP2 g-tensors
   Willem Van den Heuvel  : Paramagnetic NMR
   Zikuan Wang            : NOTCH, Electric field optimization 
   Frank Wennmohs         : Technical directorship and infrastructure
   Hang Xu                : AUTO-CI-Response properties 


 We gratefully acknowledge several colleagues who have allowed us to
 interface, adapt or use parts of their codes:
   Stefan Grimme, W. Hujo, H. Kruse, P. Pracht,  : VdW corrections, initial TS optimization,
                  C. Bannwarth, S. Ehlert,         DFT functionals, gCP, sTDA/sTD-DF
                  L. Wittmann, M. Mueller
   Ed Valeev, F. Pavosevic, A. Kumar             : LibInt (2-el integral package), F12 methods
   Garnet Chan, S. Sharma, J. Yang, R. Olivares  : DMRG
   Ulf Ekstrom                                   : XCFun DFT Library
   Mihaly Kallay                                 : mrcc  (arbitrary order and MRCC methods)
   Frank Weinhold                                : gennbo (NPA and NBO analysis)
   Simon Mueller                                 : openCOSMO-RS
   Christopher J. Cramer and Donald G. Truhlar   : smd solvation model
   Lars Goerigk                                  : TD-DFT with DH, B97 family of functionals
   V. Asgeirsson, H. Jonsson                     : NEB implementation
   FAccTs GmbH                                   : IRC, NEB, NEB-TS, DLPNO-Multilevel, CI-OPT
                                                   MM, QMMM, 2- and 3-layer-ONIOM, Crystal-QMMM,
                                                   LR-CPCM, SF, NACMEs, symmetry and pop. for TD-DFT,
                                                   nearIR, NL-DFT gradient (VV10), updates on ESD,
                                                   ML-optimized integration grids, MBIS, APM,
                                                   GOAT, DOCKER, SOLVATOR, interface openCOSMO-RS
   S Lehtola, MJT Oliveira, MAL Marques          : LibXC Library
   Liviu Ungur et al                             : ANISO software


 Your calculation uses the libint2 library for the computation of 2-el integrals
 For citations please refer to: http://libint.valeyev.net

 Your ORCA version has been built with support for libXC version: 6.2.2
 For citations please refer to: https://libxc.gitlab.io

 This ORCA versions uses:
   CBLAS   interface :  Fast vector & matrix operations
   LAPACKE interface :  Fast linear algebra routines
   Shared memory     :  Shared parallel matrices


Your calculation utilizes the atom-pairwise dispersion correction
with the zero-damping scheme (D30)


XCFun DFT library Copyright 2009-2010 Ulf Ekstrom and contributors.
See http://admol.org/xcfun for more information.
This is free software; see the source code for copying conditions.
There is ABSOLUTELY NO WARRANTY; not even for MERCHANTABILITY or FITNESS FOR A PARTICULAR PURPOSE.
For details see the documentation.
Scientific users of this library should cite U. Ekstrom, L. Visscher, R. Bast, A. J. Thorvaldsen and K. Ruud;
J.Chem.Theor.Comp. 2010, DOI: 10.1021/ct100117s
XCFun Version 0.99 

Warning: RI is on but no J-basis has been assigned. Assigning Def2/J (nothing to worry about!)
================================================================================

----- Orbital basis set information -----
Your calculation utilizes the basis: def2-TZVP
   F. Weigend and R. Ahlrichs, Phys. Chem. Chem. Phys. 7, 3297 (2005).

----- AuxJ basis set information -----
Your calculation utilizes the auxiliary basis: def2/J
   F. Weigend, Phys. Chem. Chem. Phys. 8, 1057 (2006).

================================================================================
                                        WARNINGS
                       Please study these warnings very carefully!
================================================================================

WARNING: Functional chosen is sensitive to the integration grid.
         DEFGRID3 seems to be a minimum grid for robust results!

================================================================================
                                       INPUT FILE
================================================================================
NAME = data/single_point_PO_M06-2x/80102/80102.inp
|  1> ! RIJCOSX M062X def2-TZVP D3ZERO NormalSCF
|  2> %pal
|  3> nprocs 6
|  4> end
|  5> 
|  6> * xyz 0 1
|  7>   C          -1.02984884886445     -2.80350672950244      0.05656261008235
|  8>   C           0.19196959644090     -1.90910459013631     -0.23206011322893
|  9>   C           0.31373378695584     -1.63165623799214     -1.73643499674581
| 10>   C           1.47737933520316     -2.55833859075860      0.31567079480256
| 11>   P          -0.07561552533986     -0.36890389277955      0.81835556172019
| 12>   O          -0.25413704251445     -0.74494434151282      2.28544409486042
| 13>   C           1.37058261953965      0.74205850553489      0.59781024814283
| 14>   C           1.80842894930859      1.30837032187505     -0.61832374228241
| 15>   C           2.94147409048454      2.13686323646412     -0.64297569704757
| 16>   C           3.64585892188978      2.40593972479585      0.54300634731694
| 17>   C           3.21318590642137      1.84590282268770      1.75657635057800
| 18>   C           2.08057592382395      1.01779026992300      1.78548798302016
| 19>   C          -1.56531103864308      0.49202357866196      0.17480495403906
| 20>   C          -1.66063650169455      1.15672586740079     -1.06553608540662
| 21>   C          -2.86923640401237      1.75743897169863     -1.45202543641200
| 22>   C          -3.98895137381392      1.69982790207484     -0.60452492161058
| 23>   C          -3.89574090512410      1.04716197489254      0.63614983081827
| 24>   C          -2.68855162222189      0.44765162836565      1.02726877389166
| 25>   H          -1.15082562908228     -2.96088818516196      1.14608732357773
| 26>   H          -1.96521863834703     -2.35272083687463     -0.33392470449936
| 27>   H          -0.89543783084858     -3.79109785977738     -0.43316406505192
| 28>   H           0.42040471831739     -2.59525563889509     -2.27947995642364
| 29>   H           1.20758854597524     -1.02309010436333     -1.97766444197915
| 30>   H          -0.58601478575956     -1.12533463283919     -2.13950299906169
| 31>   H           2.36920468299669     -1.93235959238458      0.10820314231445
| 32>   H           1.40475833524785     -2.70438087820102      1.41144794071117
| 33>   H           1.63441637103912     -3.54813229941945     -0.16301123949506
| 34>   H           1.27359473297961      1.11141388862802     -1.55769527551089
| 35>   H           3.27592810801033      2.57555164964782     -1.59560619878672
| 36>   H           4.53403025464737      3.05600907497429      0.51970568238903
| 37>   H           3.76073247989515      2.05674584035114      2.68816289122002
| 38>   H           1.71404010214550      0.56719381502123      2.72116039735227
| 39>   H          -0.79234232103673      1.22451679463247     -1.73557814293326
| 40>   H          -2.93553737184850      2.27730528986540     -2.42009640737134
| 41>   H          -4.93527237852341      2.17162711928585     -0.91086287099568
| 42>   H          -4.76817709475466      1.00891972722230      1.30658241561192
| 43>   H          -2.58103414889265     -0.05732259340505      1.99997795239358
| 44> **                         ****END OF INPUT****
================================================================================

                       ****************************
                       * Single Point Calculation *
                       ****************************

---------------------------------
CARTESIAN COORDINATES (ANGSTROEM)
---------------------------------
  C     -1.029849   -2.803507    0.056563
  C      0.191970   -1.909105   -0.232060
  C      0.313734   -1.631656   -1.736435
  C      1.477379   -2.558339    0.315671
  P     -0.075616   -0.368904    0.818356
  O     -0.254137   -0.744944    2.285444
  C      1.370583    0.742059    0.597810
  C      1.808429    1.308370   -0.618324
  C      2.941474    2.136863   -0.642976
  C      3.645859    2.405940    0.543006
  C      3.213186    1.845903    1.756576
  C      2.080576    1.017790    1.785488
  C     -1.565311    0.492024    0.174805
  C     -1.660637    1.156726   -1.065536
  C     -2.869236    1.757439   -1.452025
  C     -3.988951    1.699828   -0.604525
  C     -3.895741    1.047162    0.636150
  C     -2.688552    0.447652    1.027269
  H     -1.150826   -2.960888    1.146087
  H     -1.965219   -2.352721   -0.333925
  H     -0.895438   -3.791098   -0.433164
  H      0.420405   -2.595256   -2.279480
  H      1.207589   -1.023090   -1.977664
  H     -0.586015   -1.125335   -2.139503
  H      2.369205   -1.932360    0.108203
  H      1.404758   -2.704381    1.411448
  H      1.634416   -3.548132   -0.163011
  H      1.273595    1.111414   -1.557695
  H      3.275928    2.575552   -1.595606
  H      4.534030    3.056009    0.519706
  H      3.760732    2.056746    2.688163
  H      1.714040    0.567194    2.721160
  H     -0.792342    1.224517   -1.735578
  H     -2.935537    2.277305   -2.420096
  H     -4.935272    2.171627   -0.910863
  H     -4.768177    1.008920    1.306582
  H     -2.581034   -0.057323    1.999978

----------------------------
CARTESIAN COORDINATES (A.U.)
----------------------------
  NO LB      ZA    FRAG     MASS         X           Y           Z
   0 C     6.0000    0    12.011   -1.946132   -5.297860    0.106888
   1 C     6.0000    0    12.011    0.362770   -3.607685   -0.438530
   2 C     6.0000    0    12.011    0.592871   -3.083383   -3.281387
   3 C     6.0000    0    12.011    2.791842   -4.834559    0.596531
   4 P    15.0000    0    30.974   -0.142893   -0.697127    1.546468
   5 O     8.0000    0    15.999   -0.480249   -1.407741    4.318863
   6 C     6.0000    0    12.011    2.590026    1.402287    1.129698
   7 C     6.0000    0    12.011    3.417435    2.472462   -1.168463
   8 C     6.0000    0    12.011    5.558580    4.038086   -1.215048
   9 C     6.0000    0    12.011    6.889675    4.546567    1.026133
  10 C     6.0000    0    12.011    6.072041    3.488251    3.319448
  11 C     6.0000    0    12.011    3.931719    1.923345    3.374083
  12 C     6.0000    0    12.011   -2.958009    0.929790    0.330333
  13 C     6.0000    0    12.011   -3.138148    2.185895   -2.013571
  14 C     6.0000    0    12.011   -5.422071    3.321078   -2.743930
  15 C     6.0000    0    12.011   -7.538026    3.212209   -1.142387
  16 C     6.0000    0    12.011   -7.361883    1.978849    1.202149
  17 C     6.0000    0    12.011   -5.080626    0.845939    1.941257
  18 H     1.0000    0     1.008   -2.174745   -5.595268    2.165791
  19 H     1.0000    0     1.008   -3.713725   -4.445998   -0.631026
  20 H     1.0000    0     1.008   -1.692132   -7.164137   -0.818561
  21 H     1.0000    0     1.008    0.794450   -4.904322   -4.307593
  22 H     1.0000    0     1.008    2.282012   -1.933360   -3.737244
  23 H     1.0000    0     1.008   -1.107407   -2.126574   -4.043075
  24 H     1.0000    0     1.008    4.477148   -3.651630    0.204474
  25 H     1.0000    0     1.008    2.654609   -5.110539    2.667250
  26 H     1.0000    0     1.008    3.088599   -6.704998   -0.308047
  27 H     1.0000    0     1.008    2.406745    2.100268   -2.943617
  28 H     1.0000    0     1.008    6.190607    4.867087   -3.015259
  29 H     1.0000    0     1.008    8.568075    5.775020    0.982101
  30 H     1.0000    0     1.008    7.106754    3.886686    5.079892
  31 H     1.0000    0     1.008    3.239066    1.071841    5.142248
  32 H     1.0000    0     1.008   -1.497310    2.314001   -3.279767
  33 H     1.0000    0     1.008   -5.547362    4.303483   -4.573319
  34 H     1.0000    0     1.008   -9.326313    4.103781   -1.721281
  35 H     1.0000    0     1.008   -9.010549    1.906582    2.469083
  36 H     1.0000    0     1.008   -4.877448   -0.108324    3.779411

--------------------------------
INTERNAL COORDINATES (ANGSTROEM)
--------------------------------
 C      0   0   0     0.000000000000     0.00000000     0.00000000
 C      1   0   0     1.541459884850     0.00000000     0.00000000
 C      2   1   0     1.534583948944   110.56997733     0.00000000
 C      2   1   3     1.540711566674   110.50129214   236.69348877
 P      2   1   3     1.883399340479   104.91920956   123.59845080
 O      5   2   1     1.525000037787   110.58062420    55.95114604
 C      5   2   1     1.836944952921   108.40712869   177.72915683
 C      7   5   2     1.411169856710   126.18860391    59.99183736
 C      8   7   5     1.403851673198   120.15803733   180.46008513
 C      9   8   7     1.405387333386   120.17833302     0.03398057
 C     10   9   8     1.404848540894   119.88723753   359.89124557
 C     11  10   9     1.403357279960   120.10601366     0.07359856
 C      5   2   1     1.836993799142   107.64324136   294.59735173
 C     13   5   2     1.410447436346   125.71479121   290.61242401
 C     14  13   5     1.403903122013   120.12766610   178.84535331
 C     15  14  13     1.405467100835   120.15301279     0.03973746
 C     16  15  14     1.404967916108   119.91245828     0.42224466
 C     17  16  15     1.403457390866   120.10567156   359.70174827
 H      1   2   3     1.107460340263   110.68624612   182.99843351
 H      1   2   3     1.109326330219   111.50915354   303.47644184
 H      1   2   3     1.110511043934   109.72449971    63.02895457
 H      3   2   1     1.111215695196   109.26340409   300.71835341
 H      3   2   1     1.107935338578   112.13349299   182.25468737
 H      3   2   1     1.108319843925   112.00551313    59.39299526
 H      4   2   1     1.109164092550   111.50010927   179.45796484
 H      4   2   1     1.107849138128   110.63976848   299.91151227
 H      4   2   1     1.110625367209   109.89409282    59.76528586
 H      8   7   5     1.098753090095   120.91843339     0.46534095
 H      9   8   7     1.100823276709   119.70886920   180.06099239
 H     10   9   8     1.100900266763   119.97019907   179.99118648
 H     11  10   9     1.100961175939   120.09479773   180.17524369
 H     12  11  10     1.101303110268   121.84000327   180.24997320
 H     14  13   5     1.098857021106   120.78992411   358.02658034
 H     15  14  13     1.100826149723   119.73682975   179.80662837
 H     16  15  14     1.100890950344   119.96470285   180.02300047
 H     17  16  15     1.100948329958   120.08684220   179.39596059
 H     18  17  16     1.101236631095   121.73658309   179.04407638

---------------------------
INTERNAL COORDINATES (A.U.)
---------------------------
 C      0   0   0     0.000000000000     0.00000000     0.00000000
 C      1   0   0     2.912937028793     0.00000000     0.00000000
 C      2   1   0     2.899943393015   110.56997733     0.00000000
 C      2   1   3     2.911522912378   110.50129214   236.69348877
 P      2   1   3     3.559108954313   104.91920956   123.59845080
 O      5   2   1     2.881832425636   110.58062420    55.95114604
 C      5   2   1     3.471322884110   108.40712869   177.72915683
 C      7   5   2     2.666724557626   126.18860391    59.99183736
 C      8   7   5     2.652895194991   120.15803733   180.46008513
 C      9   8   7     2.655797172181   120.17833302     0.03398057
 C     10   9   8     2.654779001929   119.88723753   359.89124557
 C     11  10   9     2.651960927169   120.10601366     0.07359856
 C      5   2   1     3.471415190089   107.64324136   294.59735173
 C     13   5   2     2.665359380984   125.71479121   290.61242401
 C     14  13   5     2.652992419162   120.12766610   178.84535331
 C     15  14  13     2.655947910814   120.15301279     0.03973746
 C     16  15  14     2.655004588390   119.91245828     0.42224466
 C     17  16  15     2.652150109365   120.10567156   359.70174827
 H      1   2   3     2.092796747276   110.68624612   182.99843351
 H      1   2   3     2.096322957263   111.50915354   303.47644184
 H      1   2   3     2.098561741731   109.72449971    63.02895457
 H      3   2   1     2.099893339635   109.26340409   300.71835341
 H      3   2   1     2.093694364005   112.13349299   182.25468737
 H      3   2   1     2.094420973809   112.00551313    59.39299526
 H      4   2   1     2.096016372498   111.50010927   179.45796484
 H      4   2   1     2.093531468763   110.63976848   299.91151227
 H      4   2   1     2.098777781411   109.89409282    59.76528586
 H      8   7   5     2.076342429080   120.91843339     0.46534095
 H      9   8   7     2.080254514826   119.70886920   180.06099239
 H     10   9   8     2.080400004944   119.97019907   179.99118648
 H     11  10   9     2.080515106605   120.09479773   180.17524369
 H     12  11  10     2.081161268842   121.84000327   180.24997320
 H     14  13   5     2.076538830227   120.78992411   358.02658034
 H     15  14  13     2.080259944036   119.73682975   179.80662837
 H     16  15  14     2.080382399462   119.96470285   180.02300047
 H     17  16  15     2.080490831218   120.08684220   179.39596059
 H     18  17  16     2.081035641412   121.73658309   179.04407638

---------------------
BASIS SET INFORMATION
---------------------
There are 4 groups of distinct atoms

 Group   1 Type C   : 11s6p2d1f contracted to 5s3p2d1f pattern {62111/411/11/1}
 Group   2 Type P   : 14s9p3d1f contracted to 5s5p2d1f pattern {73211/51111/21/1}
 Group   3 Type O   : 11s6p2d1f contracted to 5s3p2d1f pattern {62111/411/11/1}
 Group   4 Type H   : 5s1p contracted to 3s1p pattern {311/1}

Atom   0C    basis set group =>   1
Atom   1C    basis set group =>   1
Atom   2C    basis set group =>   1
Atom   3C    basis set group =>   1
Atom   4P    basis set group =>   2
Atom   5O    basis set group =>   3
Atom   6C    basis set group =>   1
Atom   7C    basis set group =>   1
Atom   8C    basis set group =>   1
Atom   9C    basis set group =>   1
Atom  10C    basis set group =>   1
Atom  11C    basis set group =>   1
Atom  12C    basis set group =>   1
Atom  13C    basis set group =>   1
Atom  14C    basis set group =>   1
Atom  15C    basis set group =>   1
Atom  16C    basis set group =>   1
Atom  17C    basis set group =>   1
Atom  18H    basis set group =>   4
Atom  19H    basis set group =>   4
Atom  20H    basis set group =>   4
Atom  21H    basis set group =>   4
Atom  22H    basis set group =>   4
Atom  23H    basis set group =>   4
Atom  24H    basis set group =>   4
Atom  25H    basis set group =>   4
Atom  26H    basis set group =>   4
Atom  27H    basis set group =>   4
Atom  28H    basis set group =>   4
Atom  29H    basis set group =>   4
Atom  30H    basis set group =>   4
Atom  31H    basis set group =>   4
Atom  32H    basis set group =>   4
Atom  33H    basis set group =>   4
Atom  34H    basis set group =>   4
Atom  35H    basis set group =>   4
Atom  36H    basis set group =>   4
---------------------------------
AUXILIARY/J BASIS SET INFORMATION
---------------------------------
There are 4 groups of distinct atoms

 Group   1 Type C   : 12s5p4d2f1g contracted to 6s4p3d1f1g pattern {711111/2111/211/2/1}
 Group   2 Type P   : 14s5p5d2f1g contracted to 8s4p3d1f1g pattern {71111111/2111/311/2/1}
 Group   3 Type O   : 12s5p4d2f1g contracted to 6s4p3d1f1g pattern {711111/2111/211/2/1}
 Group   4 Type H   : 5s2p1d contracted to 3s1p1d pattern {311/2/1}

Atom   0C    basis set group =>   1
Atom   1C    basis set group =>   1
Atom   2C    basis set group =>   1
Atom   3C    basis set group =>   1
Atom   4P    basis set group =>   2
Atom   5O    basis set group =>   3
Atom   6C    basis set group =>   1
Atom   7C    basis set group =>   1
Atom   8C    basis set group =>   1
Atom   9C    basis set group =>   1
Atom  10C    basis set group =>   1
Atom  11C    basis set group =>   1
Atom  12C    basis set group =>   1
Atom  13C    basis set group =>   1
Atom  14C    basis set group =>   1
Atom  15C    basis set group =>   1
Atom  16C    basis set group =>   1
Atom  17C    basis set group =>   1
Atom  18H    basis set group =>   4
Atom  19H    basis set group =>   4
Atom  20H    basis set group =>   4
Atom  21H    basis set group =>   4
Atom  22H    basis set group =>   4
Atom  23H    basis set group =>   4
Atom  24H    basis set group =>   4
Atom  25H    basis set group =>   4
Atom  26H    basis set group =>   4
Atom  27H    basis set group =>   4
Atom  28H    basis set group =>   4
Atom  29H    basis set group =>   4
Atom  30H    basis set group =>   4
Atom  31H    basis set group =>   4
Atom  32H    basis set group =>   4
Atom  33H    basis set group =>   4
Atom  34H    basis set group =>   4
Atom  35H    basis set group =>   4
Atom  36H    basis set group =>   4


           ************************************************************
           *        Program running with 6 parallel MPI-processes     *
           *              working on a common directory               *
           ************************************************************
------------------------------------------------------------------------------
                             ORCA STARTUP CALCULATIONS
                           -- RI-GTO INTEGRALS CHOSEN --
------------------------------------------------------------------------------
------------------------------------------------------------------------------
                   ___                                                        
                  /   \      - P O W E R E D   B Y -                         
                 /     \                                                     
                 |  |  |   _    _      __       _____    __    __             
                 |  |  |  | |  | |    /  \     |  _  \  |  |  /  |          
                  \  \/   | |  | |   /    \    | | | |  |  | /  /          
                 / \  \   | |__| |  /  /\  \   | |_| |  |  |/  /          
                |  |  |   |  __  | /  /__\  \  |    /   |      \           
                |  |  |   | |  | | |   __   |  |    \   |  |\   \          
                \     /   | |  | | |  |  |  |  | |\  \  |  | \   \       
                 \___/    |_|  |_| |__|  |__|  |_| \__\ |__|  \__/        
                                                                              
                      - O R C A' S   B I G   F R I E N D -                    
                                      &                                       
                       - I N T E G R A L  F E E D E R -                       
                                                                              
 v1 FN, 2020, v2 2021, v3 2022-2024                                           
------------------------------------------------------------------------------


----------------------
SHARK INTEGRAL PACKAGE
----------------------

Number of atoms                             ...     37
Number of basis functions                   ...    678
Number of shells                            ...    276
Maximum angular momentum                    ...      3
Integral batch strategy                     ... SHARK/LIBINT Hybrid
RI-J (if used) integral strategy            ... SPLIT-RIJ (Revised 2003 algorithm where possible)
Printlevel                                  ...      1
Contraction scheme used                     ... SEGMENTED contraction
Prescreening option                         ... SCHWARTZ
   Thresh                                   ... 1.000e-10
   Tcut                                     ... 1.000e-11
   Tpresel                                  ... 1.000e-11 
Coulomb Range Separation                    ... NOT USED
Exchange Range Separation                   ... NOT USED
Multipole approximations                    ... NOT USED
Finite Nucleus Model                        ... NOT USED
CABS basis                                  ... NOT available
Auxiliary Coulomb fitting basis             ... AVAILABLE
   # of basis functions in Aux-J            ...   1093
   # of shells in Aux-J                     ...    367
   Maximum angular momentum in Aux-J        ...      4
Auxiliary J/K fitting basis                 ... NOT available
Auxiliary Correlation fitting basis         ... NOT available
Auxiliary 'external' fitting basis          ... NOT available

Checking pre-screening integrals            ... done (  0.0 sec) Dimension = 276
Check shell pair data                       ... done (  0.0 sec)
Shell pair information
Shell pair cut-off parameter TPreSel        ...   1.0e-11
Total number of shell pairs                 ...     38226
Shell pairs after pre-screening             ...     29200
Total number of primitive shell pairs       ...    116388
Primitive shell pairs kept                  ...     59811
          la=0 lb=0:   8036 shell pairs
          la=1 lb=0:   8592 shell pairs
          la=1 lb=1:   2357 shell pairs
          la=2 lb=0:   3981 shell pairs
          la=2 lb=1:   2183 shell pairs
          la=2 lb=2:    546 shell pairs
          la=3 lb=0:   1887 shell pairs
          la=3 lb=1:   1019 shell pairs
          la=3 lb=2:    476 shell pairs
          la=3 lb=3:    123 shell pairs

Calculating one electron integrals          ... done (  0.0 sec)
Calculating RI/J V-Matrix + Cholesky decomp.... done (  0.1 sec)
Calculating Nuclear repulsion               ... done (  0.0 sec) ENN=   1454.661309325484 Eh

Diagonalization of the overlap matrix:
Smallest eigenvalue                        ... 7.654e-06
Time for diagonalization                   ...    0.102 sec
Threshold for overlap eigenvalues          ... 1.000e-07
Number of eigenvalues below threshold      ... 0
Time for construction of square roots      ...    0.046 sec
Total time needed                          ...    0.152 sec

-------------------
DFT GRID GENERATION
-------------------

General Integration Accuracy     IntAcc      ... 4.388
Radial Grid Type                 RadialGrid  ... OptM3 with GC (2021)
Angular Grid (max. ang.)         AngularGrid ... 4 (Lebedev-302)
Angular grid pruning method      GridPruning ... 4 (adaptive)
Weight generation scheme         WeightScheme... mBecke (2022)
Basis function cutoff            BFCut       ... 1.0000e-10
Integration weight cutoff        WCut        ... 1.0000e-14
Partially contracted basis set               ... off
Rotationally invariant grid construction     ... off
Angular grids for H and He will be reduced by one unit

Total number of grid points                  ...   168937
Total number of batches                      ...     2660
Average number of points per batch           ...       63
Average number of grid points per atom       ...     4566

--------------------
COSX GRID GENERATION
--------------------

GRIDX 1
-------
General Integration Accuracy     IntAcc      ... 3.816
Radial Grid Type                 RadialGrid  ... OptM3 with GC (2021)
Angular Grid (max. ang.)         AngularGrid ... 1 (Lebedev-50)
Angular grid pruning method      GridPruning ... 4 (adaptive)
Weight generation scheme         WeightScheme... mBecke (2022)
Basis function cutoff            BFCut       ... 1.0000e-10
Integration weight cutoff        WCut        ... 1.0000e-14
Partially contracted basis set               ... on
Rotationally invariant grid construction     ... off
Angular grids for H and He will be reduced by one unit

Total number of grid points                  ...    22474
Total number of batches                      ...      195
Average number of points per batch           ...      115
Average number of grid points per atom       ...      607
UseSFitting                                  ... on

GRIDX 2
-------
General Integration Accuracy     IntAcc      ... 4.020
Radial Grid Type                 RadialGrid  ... OptM3 with GC (2021)
Angular Grid (max. ang.)         AngularGrid ... 2 (Lebedev-110)
Angular grid pruning method      GridPruning ... 4 (adaptive)
Weight generation scheme         WeightScheme... mBecke (2022)
Basis function cutoff            BFCut       ... 1.0000e-10
Integration weight cutoff        WCut        ... 1.0000e-14
Partially contracted basis set               ... on
Rotationally invariant grid construction     ... off
Angular grids for H and He will be reduced by one unit

Total number of grid points                  ...    45669
Total number of batches                      ...      378
Average number of points per batch           ...      120
Average number of grid points per atom       ...     1234
UseSFitting                                  ... on

GRIDX 3
-------
General Integration Accuracy     IntAcc      ... 4.338
Radial Grid Type                 RadialGrid  ... OptM3 with GC (2021)
Angular Grid (max. ang.)         AngularGrid ... 3 (Lebedev-194)
Angular grid pruning method      GridPruning ... 4 (adaptive)
Weight generation scheme         WeightScheme... mBecke (2022)
Basis function cutoff            BFCut       ... 1.0000e-10
Integration weight cutoff        WCut        ... 1.0000e-14
Partially contracted basis set               ... on
Rotationally invariant grid construction     ... off
Angular grids for H and He will be reduced by one unit

Total number of grid points                  ...    99944
Total number of batches                      ...      801
Average number of points per batch           ...      124
Average number of grid points per atom       ...     2701
UseSFitting                                  ... on
Initializing property integral containers    ... done (  0.0 sec)

SHARK setup successfully completed in   4.2 seconds

Maximum memory used throughout the entire STARTUP-calculation: 69.0 MB


           ************************************************************
           *        Program running with 6 parallel MPI-processes     *
           *              working on a common directory               *
           ************************************************************
-------------------------------------------------------------------------------
                                 ORCA GUESS
                   Start orbitals & Density for SCF / CASSCF
-------------------------------------------------------------------------------

------------
SCF SETTINGS
------------
Hamiltonian:
 Density Functional     Method          .... DFT(GTOs)
 Exchange Functional    Exchange        .... M062X
 Correlation Functional Correlation     .... M062X
 Gradients option       PostSCFGGA      .... off
 Hybrid DFT is turned on
   Fraction HF Exchange ScalHFX         ....  0.540000
   Scaling of DF-GGA-X  ScalDFX         ....  0.460000
   Scaling of DF-GGA-C  ScalDFC         ....  1.000000
   Scaling of DF-LDA-C  ScalLDAC        ....  1.000000
   Perturbative correction              ....  0.000000
 RI-approximation to the Coulomb term is turned on
   Number of AuxJ basis functions       .... 1093
   RIJ-COSX (HFX calculated with COS-X)).... on


General Settings:
 Integral files         IntName         .... data/single_point_PO_M06-2x/80102/80102
 Hartree-Fock type      HFTyp           .... RHF
 Total Charge           Charge          ....    0
 Multiplicity           Mult            ....    1
 Number of Electrons    NEL             ....  138
 Basis Dimension        Dim             ....  678
 Nuclear Repulsion      ENuc            ....   1454.6613093255 Eh

Convergence Acceleration:
 AO-DIIS                CNVDIIS         .... on
   Start iteration      DIISMaxIt       ....    12
   Startup error        DIISStart       ....  0.200000
   # of expansion vecs  DIISMaxEq       ....     5
   Bias factor          DIISBfac        ....   1.050
   Max. coefficient     DIISMaxC        ....  10.000
 MO-DIIS                CNVKDIIS        .... off
 Trust-Rad. Augm. Hess. CNVTRAH         .... auto
   Auto Start mean grad. ratio tolernc. ....  1.125000
   Auto Start start iteration           ....    50
   Auto Start num. interpolation iter.  ....    10
   Max. Number of Micro iterations      ....    24
   Max. Number of Macro iterations      .... Maxiter - #DIIS iter
   Number of Davidson start vectors     ....     2
   Converg. threshold    (grad. norm)   ....   5.000e-05
   Grad. Scal. Fac. for Micro threshold ....   0.100
   Minimum threshold for Micro iter.    ....   1.000e-02
   NR start threshold (gradient norm)   ....   1.000e-04
   Initial trust radius                 ....   0.400
   Minimum AH scaling param. (alpha)    ....   1.000
   Maximum AH scaling param. (alpha)    .... 1000.000
   Quad. conv. algorithm                .... NR
   White noise on init. David. guess    .... on
   Maximum white noise                  ....   0.010
   Pseudo random numbers                .... off
   Inactive MOs                         .... canonical
   Orbital update algorithm             .... Taylor
   Preconditioner                       .... Diag
   Full preconditioner red. dimension   ....   250
 SOSCF                  CNVSOSCF        .... on
   Start iteration      SOSCFMaxIt      ....   150
   Startup grad/error   SOSCFStart      ....  0.003300
   Hessian update       SOSCFHessUp     .... L-BFGS
 Level Shifting         CNVShift        .... on
   Level shift para.    LevelShift      ....    0.2500
   Turn off err/grad.   ShiftErr        ....    0.0010
 Zerner damping         CNVZerner       .... off
 Static damping         CNVDamp         .... on
   Fraction old density DampFac         ....    0.7000
   Max. Damping (<1)    DampMax         ....    0.9800
   Min. Damping (>=0)   DampMin         ....    0.0000
   Turn off err/grad.   DampErr         ....    0.1000

SCF Procedure:
 Maximum # iterations   MaxIter         ....   125
 SCF integral mode      SCFMode         .... Direct
   Integral package                     .... SHARK and LIBINT hybrid scheme
 Reset frequency        DirectResetFreq ....    20
 Integral Threshold     Thresh          ....  1.000e-10 Eh
 Primitive CutOff       TCut            ....  1.000e-11 Eh

Convergence Tolerance:
 Convergence Check Mode ConvCheckMode   .... Total+1el-Energy
 Convergence forced     ConvForced      .... 0
 Energy Change          TolE            ....  1.000e-06 Eh
 1-El. energy change                    ....  1.000e-03 Eh
 Orbital Gradient       TolG            ....  5.000e-05
 Orbital Rotation angle TolX            ....  5.000e-05
 DIIS Error             TolErr          ....  1.000e-05

------------------------------
INITIAL GUESS: MODEL POTENTIAL
------------------------------
Loading Hartree-Fock densities                     ... done
Calculating cut-offs                               ... done
Initializing the effective Hamiltonian             ... done
Setting up the integral package (SHARK)            ... done
Starting the Coulomb interaction                   ... done (   0.5 sec)
Making the grid                                    ... done (   0.3 sec)
Mapping shells                                     ... done
Starting the XC term evaluation                    ... done (   0.5 sec)
  promolecular density results
     # of electrons  =    137.985299163
     EX              =   -118.039094365
     EC              =     -4.653331417
     EX+EC           =   -122.692425782
Transforming the Hamiltonian                       ... done (   0.0 sec)
Diagonalizing the Hamiltonian                      ... done (   0.1 sec)
Back transforming the eigenvectors                 ... done (   0.0 sec)
Now organizing SCF variables                       ... done
                      ------------------
                      INITIAL GUESS DONE (   1.6 sec)
                      ------------------
             **** ENERGY FILE WAS UPDATED (data/single_point_PO_M06-2x/80102/80102.en.tmp) ****
Finished Guess after   1.8 sec
Maximum memory used throughout the entire GUESS-calculation: 50.6 MB


           ************************************************************
           *        Program running with 6 parallel MPI-processes     *
           *              working on a common directory               *
           ************************************************************

-------------------------------------------------------------------------------------------
                                      ORCA LEAN-SCF
                              memory conserving SCF solver
-------------------------------------------------------------------------------------------

----------------------------------------D-I-I-S--------------------------------------------
Iteration    Energy (Eh)           Delta-E    RMSDP     MaxDP     DIISErr   Damp  Time(sec)
-------------------------------------------------------------------------------------------
               ***  Starting incremental Fock matrix formation  ***
    1    -1037.1508705045710030     0.00e+00  1.49e-03  9.80e-02  3.57e-01  0.700  15.7
    2    -1037.3928932944807002    -2.42e-01  1.22e-03  8.33e-02  1.54e-01  0.700   8.3
                               ***Turning on AO-DIIS***
    3    -1037.5019710896792731    -1.09e-01  6.88e-04  2.55e-02  4.72e-02  0.700   8.0
    4    -1037.5668483676529377    -6.49e-02  1.57e-03  6.52e-02  3.32e-02  0.000   7.9
    5    -1037.7067661468524875    -1.40e-01  1.43e-04  1.18e-02  6.57e-03  0.000   8.4
                              *** Initializing SOSCF ***
---------------------------------------S-O-S-C-F--------------------------------------
Iteration    Energy (Eh)           Delta-E    RMSDP     MaxDP     MaxGrad    Time(sec)
--------------------------------------------------------------------------------------
    6    -1037.7071326126999793    -3.66e-04  5.32e-05  4.92e-03  2.23e-03     7.0
               *** Restarting incremental Fock matrix formation ***
    7    -1037.7071908700061158    -5.83e-05  8.05e-05  3.89e-03  1.68e-04    14.3
    8    -1037.7071917168834716    -8.47e-07  2.55e-05  1.99e-03  2.53e-04    10.0
                 **** Energy Check signals convergence ****

               *****************************************************
               *                     SUCCESS                       *
               *           SCF CONVERGED AFTER   8 CYCLES          *
               *****************************************************

Recomputing exchange energy using gridx3       ... done (   19.939 sec)
Old exchange energy                            :    -65.066953630 Eh
New exchange energy                            :    -65.066952801 Eh
Exchange energy change after final integration :      0.000000829 Eh
Total energy after final integration           :  -1037.707190888 Eh
             **** ENERGY FILE WAS UPDATED (data/single_point_PO_M06-2x/80102/80102.en.tmp) ****

----------------
TOTAL SCF ENERGY
----------------

Total Energy       :      -1037.70719088805163 Eh          -28237.44823 eV

Components:
Nuclear Repulsion  :       1454.66130932548435 Eh           39583.34661 eV
Electronic Energy  :      -2492.36850104236782 Eh          -67820.79486 eV
One Electron Energy:      -4304.91589816563555 Eh         -117142.71701 eV
Two Electron Energy:       1812.54739712326773 Eh           49321.92215 eV

Virial components:
Potential Energy   :      -2070.15511605679512 Eh          -56331.78456 eV
Kinetic Energy     :       1032.44792516874372 Eh           28094.33633 eV
Virial Ratio       :          2.00509397674314

DFT components:
N(Alpha)           :       69.000173156378 electrons
N(Beta)            :       69.000173156378 electrons
N(Total)           :      138.000346312756 electrons
E(XC)              :      -60.377699432450 Eh       

---------------
SCF CONVERGENCE
---------------

  Last Energy change         ...    8.4688e-07  Tolerance :   1.0000e-06
  Last MAX-Density change    ...    1.9932e-03  Tolerance :   1.0000e-05
  Last RMS-Density change    ...    2.5501e-05  Tolerance :   1.0000e-06
  Last DIIS Error            ...    2.2269e-03  Tolerance :   1.0000e-05
  Last Orbital Gradient      ...    2.5277e-04  Tolerance :   5.0000e-05
  Last Orbital Rotation      ...    3.2574e-04  Tolerance :   5.0000e-05


----------------
ORBITAL ENERGIES
----------------

  NO   OCC          E(Eh)            E(eV) 
   0   2.0000     -78.090031     -2124.9378 
   1   2.0000     -19.563277      -532.3438 
   2   2.0000     -10.564702      -287.4801 
   3   2.0000     -10.563798      -287.4556 
   4   2.0000     -10.562603      -287.4230 
   5   2.0000     -10.560412      -287.3634 
   6   2.0000     -10.559959      -287.3511 
   7   2.0000     -10.559561      -287.3403 
   8   2.0000     -10.559070      -287.3269 
   9   2.0000     -10.558740      -287.3179 
  10   2.0000     -10.558497      -287.3113 
  11   2.0000     -10.556336      -287.2525 
  12   2.0000     -10.556144      -287.2473 
  13   2.0000     -10.555084      -287.2184 
  14   2.0000     -10.554928      -287.2142 
  15   2.0000     -10.541108      -286.8381 
  16   2.0000     -10.531865      -286.5866 
  17   2.0000     -10.531281      -286.5707 
  18   2.0000      -6.896906      -187.6744 
  19   2.0000      -5.014106      -136.4407 
  20   2.0000      -5.013453      -136.4230 
  21   2.0000      -5.012278      -136.3910 
  22   2.0000      -1.059047       -28.8181 
  23   2.0000      -0.964617       -26.2486 
  24   2.0000      -0.962035       -26.1783 
  25   2.0000      -0.914883       -24.8952 
  26   2.0000      -0.858114       -23.3505 
  27   2.0000      -0.848973       -23.1017 
  28   2.0000      -0.848089       -23.0777 
  29   2.0000      -0.845609       -23.0102 
  30   2.0000      -0.781815       -21.2743 
  31   2.0000      -0.775496       -21.1023 
  32   2.0000      -0.729485       -19.8503 
  33   2.0000      -0.696903       -18.9637 
  34   2.0000      -0.693339       -18.8667 
  35   2.0000      -0.683917       -18.6103 
  36   2.0000      -0.658547       -17.9200 
  37   2.0000      -0.616574       -16.7778 
  38   2.0000      -0.598005       -16.2725 
  39   2.0000      -0.573315       -15.6007 
  40   2.0000      -0.543281       -14.7834 
  41   2.0000      -0.530426       -14.4336 
  42   2.0000      -0.527428       -14.3520 
  43   2.0000      -0.523607       -14.2481 
  44   2.0000      -0.514310       -13.9951 
  45   2.0000      -0.512229       -13.9385 
  46   2.0000      -0.507352       -13.8058 
  47   2.0000      -0.495122       -13.4730 
  48   2.0000      -0.492744       -13.4082 
  49   2.0000      -0.479377       -13.0445 
  50   2.0000      -0.463563       -12.6142 
  51   2.0000      -0.452991       -12.3265 
  52   2.0000      -0.451073       -12.2743 
  53   2.0000      -0.447089       -12.1659 
  54   2.0000      -0.442117       -12.0306 
  55   2.0000      -0.429583       -11.6895 
  56   2.0000      -0.423644       -11.5279 
  57   2.0000      -0.407971       -11.1015 
  58   2.0000      -0.405132       -11.0242 
  59   2.0000      -0.404401       -11.0043 
  60   2.0000      -0.394889       -10.7455 
  61   2.0000      -0.393085       -10.6964 
  62   2.0000      -0.386327       -10.5125 
  63   2.0000      -0.335227        -9.1220 
  64   2.0000      -0.328830        -8.9479 
  65   2.0000      -0.316636        -8.6161 
  66   2.0000      -0.315254        -8.5785 
  67   2.0000      -0.313840        -8.5400 
  68   2.0000      -0.311802        -8.4846 
  69   0.0000      -0.014853        -0.4042 
  70   0.0000       0.004137         0.1126 
  71   0.0000       0.005727         0.1558 
  72   0.0000       0.014159         0.3853 
  73   0.0000       0.058231         1.5846 
  74   0.0000       0.067949         1.8490 
  75   0.0000       0.083350         2.2681 
  76   0.0000       0.084109         2.2887 
  77   0.0000       0.093829         2.5532 
  78   0.0000       0.107728         2.9314 
  79   0.0000       0.108332         2.9479 
*Only the first 10 virtual orbitals were printed.

                    ********************************
                    * MULLIKEN POPULATION ANALYSIS *
                    ********************************

-----------------------
MULLIKEN ATOMIC CHARGES
-----------------------
   0 C :   -0.469457
   1 C :   -0.006688
   2 C :   -0.534739
   3 C :   -0.461997
   4 P :    0.572530
   5 O :   -0.614088
   6 C :   -0.041991
   7 C :   -0.184727
   8 C :   -0.175795
   9 C :   -0.132028
  10 C :   -0.141248
  11 C :   -0.138690
  12 C :   -0.040721
  13 C :   -0.180033
  14 C :   -0.169695
  15 C :   -0.133395
  16 C :   -0.138775
  17 C :   -0.143695
  18 H :    0.189364
  19 H :    0.165633
  20 H :    0.147712
  21 H :    0.159043
  22 H :    0.171240
  23 H :    0.180124
  24 H :    0.165200
  25 H :    0.187056
  26 H :    0.147798
  27 H :    0.168315
  28 H :    0.146401
  29 H :    0.148695
  30 H :    0.150060
  31 H :    0.200801
  32 H :    0.161130
  33 H :    0.146529
  34 H :    0.148633
  35 H :    0.150136
  36 H :    0.201363
Sum of atomic charges:   -0.0000000

--------------------------------
MULLIKEN REDUCED ORBITAL CHARGES
--------------------------------
  0 C s       :     3.351653  s :     3.351653
      pz      :     1.096378  p :     3.058156
      px      :     0.959064
      py      :     1.002713
      dz2     :     0.013215  d :     0.056265
      dxz     :     0.008900
      dyz     :     0.008503
      dx2y2   :     0.017081
      dxy     :     0.008567
      f0      :     0.000800  f :     0.003383
      f+1     :     0.000272
      f-1     :     0.000191
      f+2     :     0.000277
      f-2     :     0.000502
      f+3     :     0.000683
      f-3     :     0.000658

  1 C s       :     3.051545  s :     3.051545
      pz      :     0.913174  p :     2.827185
      px      :     0.952349
      py      :     0.961662
      dz2     :     0.020909  d :     0.121167
      dxz     :     0.029308
      dyz     :     0.028508
      dx2y2   :     0.026374
      dxy     :     0.016069
      f0      :     0.001029  f :     0.006791
      f+1     :     0.001385
      f-1     :     0.001088
      f+2     :     0.000520
      f-2     :     0.000793
      f+3     :     0.001337
      f-3     :     0.000637

  2 C s       :     3.380885  s :     3.380885
      pz      :     0.912232  p :     3.092204
      px      :     1.060820
      py      :     1.119152
      dz2     :     0.009470  d :     0.058321
      dxz     :     0.014486
      dyz     :     0.018879
      dx2y2   :     0.005507
      dxy     :     0.009979
      f0      :     0.000846  f :     0.003329
      f+1     :     0.000724
      f-1     :     0.000716
      f+2     :     0.000252
      f-2     :     0.000208
      f+3     :     0.000037
      f-3     :     0.000546

  3 C s       :     3.346861  s :     3.346861
      pz      :     1.077503  p :     3.055178
      px      :     0.944671
      py      :     1.033004
      dz2     :     0.017294  d :     0.056579
      dxz     :     0.006395
      dyz     :     0.006469
      dx2y2   :     0.012497
      dxy     :     0.013925
      f0      :     0.000668  f :     0.003378
      f+1     :     0.000499
      f-1     :     0.000202
      f+2     :     0.000408
      f-2     :     0.000346
      f+3     :     0.000604
      f-3     :     0.000650

  4 P s       :     5.320497  s :     5.320497
      pz      :     2.632286  p :     8.366389
      px      :     2.867463
      py      :     2.866641
      dz2     :     0.115942  d :     0.675340
      dxz     :     0.174801
      dyz     :     0.189179
      dx2y2   :     0.069913
      dxy     :     0.125504
      f0      :     0.011541  f :     0.065244
      f+1     :     0.016457
      f-1     :     0.013230
      f+2     :     0.007764
      f-2     :     0.006197
      f+3     :     0.006186
      f-3     :     0.003869

  5 O s       :     3.887464  s :     3.887464
      pz      :     1.388334  p :     4.701105
      px      :     1.658878
      py      :     1.653893
      dz2     :     0.009130  d :     0.024280
      dxz     :     0.006651
      dyz     :     0.007108
      dx2y2   :     0.000724
      dxy     :     0.000666
      f0      :     0.000448  f :     0.001238
      f+1     :     0.000298
      f-1     :     0.000351
      f+2     :     0.000066
      f-2     :     0.000067
      f+3     :     0.000004
      f-3     :     0.000004

  6 C s       :     3.246360  s :     3.246360
      pz      :     0.835813  p :     2.713130
      px      :     0.934910
      py      :     0.942407
      dz2     :     0.019355  d :     0.075452
      dxz     :     0.015509
      dyz     :     0.018921
      dx2y2   :     0.009870
      dxy     :     0.011797
      f0      :     0.001588  f :     0.007050
      f+1     :     0.001011
      f-1     :     0.000949
      f+2     :     0.000905
      f-2     :     0.001181
      f+3     :     0.000703
      f-3     :     0.000711

  7 C s       :     3.161920  s :     3.161920
      pz      :     0.954320  p :     2.950012
      px      :     1.026127
      py      :     0.969565
      dz2     :     0.011993  d :     0.066329
      dxz     :     0.017223
      dyz     :     0.011156
      dx2y2   :     0.018208
      dxy     :     0.007749
      f0      :     0.001228  f :     0.006466
      f+1     :     0.000915
      f-1     :     0.000628
      f+2     :     0.000535
      f-2     :     0.001123
      f+3     :     0.001231
      f-3     :     0.000806

  8 C s       :     3.240612  s :     3.240612
      pz      :     0.974774  p :     2.867503
      px      :     0.937080
      py      :     0.955649
      dz2     :     0.012346  d :     0.061354
      dxz     :     0.012439
      dyz     :     0.012328
      dx2y2   :     0.015503
      dxy     :     0.008738
      f0      :     0.001195  f :     0.006325
      f+1     :     0.000701
      f-1     :     0.000822
      f+2     :     0.000410
      f-2     :     0.001216
      f+3     :     0.001229
      f-3     :     0.000752

  9 C s       :     3.225645  s :     3.225645
      pz      :     0.883811  p :     2.838452
      px      :     0.984016
      py      :     0.970625
      dz2     :     0.013786  d :     0.061649
      dxz     :     0.015914
      dyz     :     0.018343
      dx2y2   :     0.005499
      dxy     :     0.008107
      f0      :     0.001449  f :     0.006282
      f+1     :     0.000964
      f-1     :     0.000941
      f+2     :     0.000886
      f-2     :     0.000940
      f+3     :     0.000395
      f-3     :     0.000707

 10 C s       :     3.227215  s :     3.227215
      pz      :     0.966401  p :     2.848216
      px      :     0.945181
      py      :     0.936634
      dz2     :     0.012343  d :     0.059579
      dxz     :     0.014438
      dyz     :     0.009851
      dx2y2   :     0.015424
      dxy     :     0.007522
      f0      :     0.001198  f :     0.006238
      f+1     :     0.000904
      f-1     :     0.000657
      f+2     :     0.000513
      f-2     :     0.001073
      f+3     :     0.001159
      f-3     :     0.000736

 11 C s       :     3.210934  s :     3.210934
      pz      :     0.998946  p :     2.860032
      px      :     0.926940
      py      :     0.934147
      dz2     :     0.011458  d :     0.061239
      dxz     :     0.013460
      dyz     :     0.013004
      dx2y2   :     0.016443
      dxy     :     0.006873
      f0      :     0.001188  f :     0.006485
      f+1     :     0.000729
      f-1     :     0.000745
      f+2     :     0.000460
      f-2     :     0.001296
      f+3     :     0.001242
      f-3     :     0.000825

 12 C s       :     3.240796  s :     3.240796
      pz      :     0.847522  p :     2.717603
      px      :     0.920590
      py      :     0.949491
      dz2     :     0.020909  d :     0.075285
      dxz     :     0.014654
      dyz     :     0.013283
      dx2y2   :     0.009903
      dxy     :     0.016537
      f0      :     0.001164  f :     0.007037
      f+1     :     0.001343
      f-1     :     0.000771
      f+2     :     0.000977
      f-2     :     0.001351
      f+3     :     0.000638
      f-3     :     0.000793

 13 C s       :     3.179920  s :     3.179920
      pz      :     0.905597  p :     2.927558
      px      :     1.063488
      py      :     0.958473
      dz2     :     0.013377  d :     0.066068
      dxz     :     0.019505
      dyz     :     0.009930
      dx2y2   :     0.014310
      dxy     :     0.008946
      f0      :     0.001081  f :     0.006487
      f+1     :     0.000960
      f-1     :     0.000755
      f+2     :     0.001067
      f-2     :     0.000948
      f+3     :     0.001095
      f-3     :     0.000581

 14 C s       :     3.235527  s :     3.235527
      pz      :     0.996645  p :     2.867485
      px      :     0.900059
      py      :     0.970781
      dz2     :     0.010556  d :     0.060375
      dxz     :     0.013938
      dyz     :     0.008450
      dx2y2   :     0.011199
      dxy     :     0.016233
      f0      :     0.000497  f :     0.006308
      f+1     :     0.001142
      f-1     :     0.000740
      f+2     :     0.000842
      f-2     :     0.001075
      f+3     :     0.001145
      f-3     :     0.000868

 15 C s       :     3.226990  s :     3.226990
      pz      :     0.905254  p :     2.838576
      px      :     0.978147
      py      :     0.955175
      dz2     :     0.016587  d :     0.061552
      dxz     :     0.012761
      dyz     :     0.013015
      dx2y2   :     0.008217
      dxy     :     0.010972
      f0      :     0.001072  f :     0.006277
      f+1     :     0.001249
      f-1     :     0.000656
      f+2     :     0.000873
      f-2     :     0.001168
      f+3     :     0.000428
      f-3     :     0.000832

 16 C s       :     3.224792  s :     3.224792
      pz      :     0.931988  p :     2.848335
      px      :     0.976339
      py      :     0.940009
      dz2     :     0.013716  d :     0.059404
      dxz     :     0.015556
      dyz     :     0.008225
      dx2y2   :     0.012859
      dxy     :     0.009048
      f0      :     0.001065  f :     0.006244
      f+1     :     0.000937
      f-1     :     0.000759
      f+2     :     0.001049
      f-2     :     0.000836
      f+3     :     0.001049
      f-3     :     0.000549

 17 C s       :     3.209473  s :     3.209473
      pz      :     1.016529  p :     2.865551
      px      :     0.898835
      py      :     0.950187
      dz2     :     0.011872  d :     0.062176
      dxz     :     0.014336
      dyz     :     0.009371
      dx2y2   :     0.012245
      dxy     :     0.014354
      f0      :     0.000490  f :     0.006495
      f+1     :     0.001278
      f-1     :     0.000682
      f+2     :     0.000803
      f-2     :     0.001060
      f+3     :     0.001202
      f-3     :     0.000980

 18 H s       :     0.791522  s :     0.791522
      pz      :     0.012014  p :     0.019114
      px      :     0.003557
      py      :     0.003543

 19 H s       :     0.815895  s :     0.815895
      pz      :     0.004367  p :     0.018473
      px      :     0.009459
      py      :     0.004647

 20 H s       :     0.833999  s :     0.833999
      pz      :     0.004900  p :     0.018289
      px      :     0.003389
      py      :     0.009999

 21 H s       :     0.822552  s :     0.822552
      pz      :     0.005575  p :     0.018405
      px      :     0.003573
      py      :     0.009256

 22 H s       :     0.809807  s :     0.809807
      pz      :     0.003902  p :     0.018953
      px      :     0.008920
      py      :     0.006130

 23 H s       :     0.801053  s :     0.801053
      pz      :     0.004676  p :     0.018823
      px      :     0.008810
      py      :     0.005338

 24 H s       :     0.816317  s :     0.816317
      pz      :     0.003714  p :     0.018483
      px      :     0.008871
      py      :     0.005898

 25 H s       :     0.793917  s :     0.793917
      pz      :     0.012029  p :     0.019027
      px      :     0.003466
      py      :     0.003531

 26 H s       :     0.833920  s :     0.833920
      pz      :     0.004753  p :     0.018282
      px      :     0.003616
      py      :     0.009913

 27 H s       :     0.811282  s :     0.811282
      pz      :     0.010725  p :     0.020402
      px      :     0.005759
      py      :     0.003918

 28 H s       :     0.833893  s :     0.833893
      pz      :     0.010562  p :     0.019706
      px      :     0.004037
      py      :     0.005107

 29 H s       :     0.831670  s :     0.831670
      pz      :     0.002677  p :     0.019635
      px      :     0.009918
      py      :     0.007040

 30 H s       :     0.830196  s :     0.830196
      pz      :     0.010334  p :     0.019743
      px      :     0.005642
      py      :     0.003767

 31 H s       :     0.778129  s :     0.778129
      pz      :     0.010655  p :     0.021071
      px      :     0.004853
      py      :     0.005562

 32 H s       :     0.818625  s :     0.818625
      pz      :     0.006895  p :     0.020245
      px      :     0.009779
      py      :     0.003571

 33 H s       :     0.833756  s :     0.833756
      pz      :     0.011034  p :     0.019715
      px      :     0.002791
      py      :     0.005889

 34 H s       :     0.831724  s :     0.831724
      pz      :     0.003680  p :     0.019643
      px      :     0.010575
      py      :     0.005388

 35 H s       :     0.830136  s :     0.830136
      pz      :     0.006830  p :     0.019728
      px      :     0.009393
      py      :     0.003505

 36 H s       :     0.777705  s :     0.777705
      pz      :     0.011902  p :     0.020933
      px      :     0.003186
      py      :     0.005845



                     *******************************
                     * LOEWDIN POPULATION ANALYSIS *
                     *******************************

----------------------
LOEWDIN ATOMIC CHARGES
----------------------
   0 C :   -0.286398
   1 C :   -0.419629
   2 C :   -0.292228
   3 C :   -0.286285
   4 P :    0.701871
   5 O :   -0.318086
   6 C :   -0.227898
   7 C :   -0.142835
   8 C :   -0.141858
   9 C :   -0.132133
  10 C :   -0.135796
  11 C :   -0.115825
  12 C :   -0.229445
  13 C :   -0.139672
  14 C :   -0.141757
  15 C :   -0.132581
  16 C :   -0.136797
  17 C :   -0.117588
  18 H :    0.138166
  19 H :    0.130249
  20 H :    0.128543
  21 H :    0.133569
  22 H :    0.127630
  23 H :    0.130790
  24 H :    0.129809
  25 H :    0.138176
  26 H :    0.128839
  27 H :    0.142895
  28 H :    0.148573
  29 H :    0.148659
  30 H :    0.149767
  31 H :    0.163980
  32 H :    0.145200
  33 H :    0.148505
  34 H :    0.148575
  35 H :    0.149625
  36 H :    0.163392

-------------------------------
LOEWDIN REDUCED ORBITAL CHARGES
-------------------------------
  0 C s       :     2.838844  s :     2.838844
      pz      :     1.081633  p :     3.160434
      px      :     1.032763
      py      :     1.046039
      dz2     :     0.056330  d :     0.262961
      dxz     :     0.038148
      dyz     :     0.039678
      dx2y2   :     0.078556
      dxy     :     0.050248
      f0      :     0.004034  f :     0.024159
      f+1     :     0.002054
      f-1     :     0.001206
      f+2     :     0.003694
      f-2     :     0.004297
      f+3     :     0.004585
      f-3     :     0.004290

  1 C s       :     2.747585  s :     2.747585
      pz      :     1.017216  p :     3.045987
      px      :     1.017748
      py      :     1.011023
      dz2     :     0.119038  d :     0.571203
      dxz     :     0.110213
      dyz     :     0.123610
      dx2y2   :     0.114481
      dxy     :     0.103861
      f0      :     0.007802  f :     0.054853
      f+1     :     0.010973
      f-1     :     0.007374
      f+2     :     0.006145
      f-2     :     0.007253
      f+3     :     0.009665
      f-3     :     0.005642

  2 C s       :     2.837097  s :     2.837097
      pz      :     1.023539  p :     3.165608
      px      :     1.066341
      py      :     1.075728
      dz2     :     0.058240  d :     0.265232
      dxz     :     0.063492
      dyz     :     0.080501
      dx2y2   :     0.019891
      dxy     :     0.043107
      f0      :     0.005089  f :     0.024292
      f+1     :     0.005925
      f-1     :     0.004720
      f+2     :     0.003697
      f-2     :     0.002009
      f+3     :     0.000206
      f-3     :     0.002646

  3 C s       :     2.838619  s :     2.838619
      pz      :     1.075705  p :     3.160410
      px      :     1.027461
      py      :     1.057245
      dz2     :     0.071210  d :     0.263095
      dxz     :     0.032471
      dyz     :     0.030814
      dx2y2   :     0.061075
      dxy     :     0.067524
      f0      :     0.003203  f :     0.024161
      f+1     :     0.003629
      f-1     :     0.001117
      f+2     :     0.004612
      f-2     :     0.003561
      f+3     :     0.003895
      f-3     :     0.004144

  4 P s       :     4.659760  s :     4.659760
      pz      :     2.728388  p :     8.266950
      px      :     2.765797
      py      :     2.772765
      dz2     :     0.256784  d :     1.153258
      dxz     :     0.254609
      dyz     :     0.297113
      dx2y2   :     0.129221
      dxy     :     0.215532
      f0      :     0.045573  f :     0.218161
      f+1     :     0.049285
      f-1     :     0.044296
      f+2     :     0.023527
      f-2     :     0.022055
      f+3     :     0.019678
      f-3     :     0.013746

  5 O s       :     3.536187  s :     3.536187
      pz      :     1.532468  p :     4.738075
      px      :     1.602089
      py      :     1.603518
      dz2     :     0.021695  d :     0.041722
      dxz     :     0.007966
      dyz     :     0.010311
      dx2y2   :     0.000895
      dxy     :     0.000855
      f0      :     0.000895  f :     0.002102
      f+1     :     0.000396
      f-1     :     0.000602
      f+2     :     0.000071
      f-2     :     0.000124
      f+3     :     0.000008
      f-3     :     0.000007

  6 C s       :     2.772315  s :     2.772315
      pz      :     1.059890  p :     2.982798
      px      :     0.984678
      py      :     0.938230
      dz2     :     0.139852  d :     0.429179
      dxz     :     0.100854
      dyz     :     0.089045
      dx2y2   :     0.033228
      dxy     :     0.066199
      f0      :     0.011660  f :     0.043606
      f+1     :     0.006676
      f-1     :     0.005077
      f+2     :     0.007052
      f-2     :     0.008536
      f+3     :     0.002075
      f-3     :     0.002530

  7 C s       :     2.774601  s :     2.774601
      pz      :     1.002288  p :     2.943002
      px      :     0.991057
      py      :     0.949658
      dz2     :     0.087775  d :     0.384460
      dxz     :     0.114815
      dyz     :     0.065169
      dx2y2   :     0.063065
      dxy     :     0.053637
      f0      :     0.009809  f :     0.040772
      f+1     :     0.005721
      f-1     :     0.004746
      f+2     :     0.003406
      f-2     :     0.007532
      f+3     :     0.004976
      f-3     :     0.004582

  8 C s       :     2.777568  s :     2.777568
      pz      :     1.008160  p :     2.949708
      px      :     0.999569
      py      :     0.941978
      dz2     :     0.087567  d :     0.374011
      dxz     :     0.096693
      dyz     :     0.073274
      dx2y2   :     0.061123
      dxy     :     0.055354
      f0      :     0.009583  f :     0.040572
      f+1     :     0.005507
      f-1     :     0.004611
      f+2     :     0.003348
      f-2     :     0.007849
      f+3     :     0.004741
      f-3     :     0.004932

  9 C s       :     2.779240  s :     2.779240
      pz      :     1.064922  p :     2.937764
      px      :     0.954630
      py      :     0.918212
      dz2     :     0.134185  d :     0.374577
      dxz     :     0.090288
      dyz     :     0.082283
      dx2y2   :     0.017620
      dxy     :     0.050201
      f0      :     0.011003  f :     0.040552
      f+1     :     0.006506
      f-1     :     0.005138
      f+2     :     0.007055
      f-2     :     0.007455
      f+3     :     0.000881
      f-3     :     0.002513

 10 C s       :     2.777915  s :     2.777915
      pz      :     1.009912  p :     2.944984
      px      :     0.987682
      py      :     0.947390
      dz2     :     0.084544  d :     0.372450
      dxz     :     0.113030
      dyz     :     0.065486
      dx2y2   :     0.057190
      dxy     :     0.052200
      f0      :     0.009864  f :     0.040447
      f+1     :     0.005604
      f-1     :     0.004768
      f+2     :     0.003238
      f-2     :     0.007576
      f+3     :     0.004785
      f-3     :     0.004611

 11 C s       :     2.776959  s :     2.776959
      pz      :     1.012716  p :     2.918142
      px      :     0.984857
      py      :     0.920569
      dz2     :     0.085649  d :     0.379775
      dxz     :     0.100100
      dyz     :     0.074253
      dx2y2   :     0.062255
      dxy     :     0.057517
      f0      :     0.009538  f :     0.040949
      f+1     :     0.005533
      f-1     :     0.004500
      f+2     :     0.003602
      f-2     :     0.008148
      f+3     :     0.004747
      f-3     :     0.004881

 12 C s       :     2.772161  s :     2.772161
      pz      :     1.031175  p :     2.983972
      px      :     1.025363
      py      :     0.927434
      dz2     :     0.111352  d :     0.429670
      dxz     :     0.118287
      dyz     :     0.070201
      dx2y2   :     0.053911
      dxy     :     0.075918
      f0      :     0.006392  f :     0.043642
      f+1     :     0.010945
      f-1     :     0.004968
      f+2     :     0.005612
      f-2     :     0.007827
      f+3     :     0.003830
      f-3     :     0.004069

 13 C s       :     2.774762  s :     2.774762
      pz      :     0.997991  p :     2.940002
      px      :     1.010051
      py      :     0.931959
      dz2     :     0.073511  d :     0.384076
      dxz     :     0.134681
      dyz     :     0.054783
      dx2y2   :     0.068382
      dxy     :     0.052718
      f0      :     0.007311  f :     0.040832
      f+1     :     0.007790
      f-1     :     0.005385
      f+2     :     0.004027
      f-2     :     0.006315
      f+3     :     0.005858
      f-3     :     0.004146

 14 C s       :     2.777586  s :     2.777586
      pz      :     0.976790  p :     2.949775
      px      :     1.051187
      py      :     0.921798
      dz2     :     0.080016  d :     0.373839
      dxz     :     0.090803
      dyz     :     0.047648
      dx2y2   :     0.080014
      dxy     :     0.075358
      f0      :     0.003842  f :     0.040558
      f+1     :     0.009784
      f-1     :     0.002956
      f+2     :     0.004963
      f-2     :     0.007434
      f+3     :     0.006460
      f-3     :     0.005118

 15 C s       :     2.779314  s :     2.779314
      pz      :     1.028150  p :     2.938146
      px      :     0.997522
      py      :     0.912475
      dz2     :     0.105146  d :     0.374582
      dxz     :     0.104239
      dyz     :     0.062594
      dx2y2   :     0.043256
      dxy     :     0.059348
      f0      :     0.006241  f :     0.040538
      f+1     :     0.010207
      f-1     :     0.004736
      f+2     :     0.005272
      f-2     :     0.007134
      f+3     :     0.002898
      f-3     :     0.004051

 16 C s       :     2.777904  s :     2.777904
      pz      :     1.006679  p :     2.945890
      px      :     1.006332
      py      :     0.932879
      dz2     :     0.072481  d :     0.372557
      dxz     :     0.130662
      dyz     :     0.055141
      dx2y2   :     0.064857
      dxy     :     0.049416
      f0      :     0.007176  f :     0.040446
      f+1     :     0.007858
      f-1     :     0.005419
      f+2     :     0.004036
      f-2     :     0.006260
      f+3     :     0.005626
      f-3     :     0.004072

 17 C s       :     2.776990  s :     2.776990
      pz      :     0.982455  p :     2.919692
      px      :     1.038576
      py      :     0.898660
      dz2     :     0.081913  d :     0.379954
      dxz     :     0.093185
      dyz     :     0.046929
      dx2y2   :     0.081207
      dxy     :     0.076720
      f0      :     0.003881  f :     0.040952
      f+1     :     0.010026
      f-1     :     0.002744
      f+2     :     0.005048
      f-2     :     0.007669
      f+3     :     0.006398
      f-3     :     0.005186

 18 H s       :     0.801666  s :     0.801666
      pz      :     0.036496  p :     0.060169
      px      :     0.011684
      py      :     0.011989

 19 H s       :     0.810984  s :     0.810984
      pz      :     0.015223  p :     0.058768
      px      :     0.027726
      py      :     0.015819

 20 H s       :     0.813560  s :     0.813560
      pz      :     0.016633  p :     0.057897
      px      :     0.011957
      py      :     0.029307

 21 H s       :     0.808556  s :     0.808556
      pz      :     0.016585  p :     0.057874
      px      :     0.012349
      py      :     0.028941

 22 H s       :     0.813132  s :     0.813132
      pz      :     0.012468  p :     0.059238
      px      :     0.027362
      py      :     0.019407

 23 H s       :     0.809820  s :     0.809820
      pz      :     0.014278  p :     0.059389
      px      :     0.027845
      py      :     0.017266

 24 H s       :     0.811459  s :     0.811459
      pz      :     0.013099  p :     0.058733
      px      :     0.026116
      py      :     0.019518

 25 H s       :     0.801930  s :     0.801930
      pz      :     0.036181  p :     0.059894
      px      :     0.011589
      py      :     0.012125

 26 H s       :     0.813262  s :     0.813262
      pz      :     0.016380  p :     0.057900
      px      :     0.011975
      py      :     0.029545

 27 H s       :     0.799720  s :     0.799720
      pz      :     0.027888  p :     0.057386
      px      :     0.016951
      py      :     0.012547

 28 H s       :     0.795522  s :     0.795522
      pz      :     0.027970  p :     0.055905
      px      :     0.012823
      py      :     0.015112

 29 H s       :     0.795586  s :     0.795586
      pz      :     0.009920  p :     0.055755
      px      :     0.026322
      py      :     0.019514

 30 H s       :     0.794357  s :     0.794357
      pz      :     0.027449  p :     0.055876
      px      :     0.016457
      py      :     0.011970

 31 H s       :     0.776255  s :     0.776255
      pz      :     0.029155  p :     0.059765
      px      :     0.014445
      py      :     0.016165

 32 H s       :     0.797518  s :     0.797518
      pz      :     0.019472  p :     0.057282
      px      :     0.026000
      py      :     0.011810

 33 H s       :     0.795592  s :     0.795592
      pz      :     0.028939  p :     0.055903
      px      :     0.010085
      py      :     0.016879

 34 H s       :     0.795650  s :     0.795650
      pz      :     0.012084  p :     0.055775
      px      :     0.028008
      py      :     0.015682

 35 H s       :     0.794497  s :     0.794497
      pz      :     0.019323  p :     0.055878
      px      :     0.025210
      py      :     0.011345

 36 H s       :     0.777195  s :     0.777195
      pz      :     0.031833  p :     0.059414
      px      :     0.010537
      py      :     0.017043



                      *****************************
                      * MAYER POPULATION ANALYSIS *
                      *****************************

  NA   - Mulliken gross atomic population
  ZA   - Total nuclear charge
  QA   - Mulliken gross atomic charge
  VA   - Mayer's total valence
  BVA  - Mayer's bonded valence
  FA   - Mayer's free valence

  ATOM       NA         ZA         QA         VA         BVA        FA
  0 C      6.4695     6.0000    -0.4695     3.7400     3.7400    -0.0000
  1 C      6.0067     6.0000    -0.0067     3.7258     3.7258    -0.0000
  2 C      6.5347     6.0000    -0.5347     3.7336     3.7336    -0.0000
  3 C      6.4620     6.0000    -0.4620     3.7303     3.7303    -0.0000
  4 P     14.4275    15.0000     0.5725     4.8503     4.8503    -0.0000
  5 O      8.6141     8.0000    -0.6141     1.9477     1.9477    -0.0000
  6 C      6.0420     6.0000    -0.0420     3.6860     3.6860    -0.0000
  7 C      6.1847     6.0000    -0.1847     3.9078     3.9078     0.0000
  8 C      6.1758     6.0000    -0.1758     4.0542     4.0542     0.0000
  9 C      6.1320     6.0000    -0.1320     3.9444     3.9444     0.0000
 10 C      6.1412     6.0000    -0.1412     3.9149     3.9149     0.0000
 11 C      6.1387     6.0000    -0.1387     3.9337     3.9337    -0.0000
 12 C      6.0407     6.0000    -0.0407     3.6744     3.6744    -0.0000
 13 C      6.1800     6.0000    -0.1800     3.9067     3.9067    -0.0000
 14 C      6.1697     6.0000    -0.1697     4.0518     4.0518    -0.0000
 15 C      6.1334     6.0000    -0.1334     3.9422     3.9422     0.0000
 16 C      6.1388     6.0000    -0.1388     3.9143     3.9143     0.0000
 17 C      6.1437     6.0000    -0.1437     3.9213     3.9213    -0.0000
 18 H      0.8106     1.0000     0.1894     0.9640     0.9640     0.0000
 19 H      0.8344     1.0000     0.1656     0.9510     0.9510    -0.0000
 20 H      0.8523     1.0000     0.1477     0.9619     0.9619     0.0000
 21 H      0.8410     1.0000     0.1590     0.9706     0.9706    -0.0000
 22 H      0.8288     1.0000     0.1712     0.9482     0.9482    -0.0000
 23 H      0.8199     1.0000     0.1801     0.9461     0.9461    -0.0000
 24 H      0.8348     1.0000     0.1652     0.9513     0.9513    -0.0000
 25 H      0.8129     1.0000     0.1871     0.9644     0.9644    -0.0000
 26 H      0.8522     1.0000     0.1478     0.9613     0.9613     0.0000
 27 H      0.8317     1.0000     0.1683     0.9479     0.9479     0.0000
 28 H      0.8536     1.0000     0.1464     0.9666     0.9666     0.0000
 29 H      0.8513     1.0000     0.1487     0.9631     0.9631     0.0000
 30 H      0.8499     1.0000     0.1501     0.9656     0.9656     0.0000
 31 H      0.7992     1.0000     0.2008     0.9751     0.9751     0.0000
 32 H      0.8389     1.0000     0.1611     0.9544     0.9544    -0.0000
 33 H      0.8535     1.0000     0.1465     0.9662     0.9662    -0.0000
 34 H      0.8514     1.0000     0.1486     0.9631     0.9631     0.0000
 35 H      0.8499     1.0000     0.1501     0.9653     0.9653     0.0000
 36 H      0.7986     1.0000     0.2014     0.9734     0.9734    -0.0000

  Mayer bond orders larger than 0.100000
B(  0-C ,  1-C ) :   0.9567 B(  0-C , 18-H ) :   0.9577 B(  0-C , 19-H ) :   0.9543 
B(  0-C , 20-H ) :   0.9588 B(  1-C ,  2-C ) :   0.9095 B(  1-C ,  3-C ) :   0.9616 
B(  1-C ,  4-P ) :   0.8626 B(  2-C , 21-H ) :   0.9557 B(  2-C , 22-H ) :   0.9649 
B(  2-C , 23-H ) :   0.9598 B(  3-C , 24-H ) :   0.9541 B(  3-C , 25-H ) :   0.9570 
B(  3-C , 26-H ) :   0.9587 B(  4-P ,  5-O ) :   1.9069 B(  4-P ,  6-C ) :   0.9053 
B(  4-P , 12-C ) :   0.9042 B(  6-C ,  7-C ) :   1.3153 B(  6-C , 11-C ) :   1.4148 
B(  7-C ,  8-C ) :   1.5149 B(  7-C , 27-H ) :   0.9191 B(  8-C ,  9-C ) :   1.4444 
B(  8-C , 28-H ) :   0.9431 B(  9-C , 10-C ) :   1.4385 B(  9-C , 29-H ) :   0.9463 
B( 10-C , 11-C ) :   1.4320 B( 10-C , 30-H ) :   0.9470 B( 11-C , 31-H ) :   0.9062 
B( 12-C , 13-C ) :   1.3196 B( 12-C , 17-C ) :   1.4056 B( 13-C , 14-C ) :   1.5143 
B( 13-C , 32-H ) :   0.9214 B( 14-C , 15-C ) :   1.4433 B( 14-C , 33-H ) :   0.9424 
B( 15-C , 16-C ) :   1.4383 B( 15-C , 34-H ) :   0.9466 B( 16-C , 17-C ) :   1.4321 
B( 16-C , 35-H ) :   0.9460 B( 17-C , 36-H ) :   0.9092 

-------
TIMINGS
-------

Total SCF time: 0 days 0 hours 1 min 40 sec 

Total time                  ....     100.266 sec
Sum of individual times     ....     100.300 sec  (100.0%)

SCF preparation             ....       0.360 sec  (  0.4%)
Fock matrix formation       ....      96.943 sec  ( 96.7%)
  Startup                   ....       0.096 sec  (  0.1% of F)
  Split-RI-J                ....       6.562 sec  (  6.8% of F)
  Chain of spheres X        ....      68.360 sec  ( 70.5% of F)
  XC integration            ....      21.669 sec  ( 22.4% of F)
    Basis function eval.    ....       2.975 sec  ( 13.7% of XC)
    Density eval.           ....       8.975 sec  ( 41.4% of XC)
    XC-Functional eval.     ....       0.368 sec  (  1.7% of XC)
    XC-Potential eval.      ....       8.422 sec  ( 38.9% of XC)
Diagonalization             ....       0.000 sec  (  0.0%)
Density matrix formation    ....       0.245 sec  (  0.2%)
Total Energy calculation    ....       0.155 sec  (  0.2%)
Population analysis         ....       0.170 sec  (  0.2%)
Orbital Transformation      ....       0.391 sec  (  0.4%)
Orbital Orthonormalization  ....       0.000 sec  (  0.0%)
DIIS solution               ....       1.567 sec  (  1.6%)
SOSCF solution              ....       0.469 sec  (  0.5%)
Finished LeanSCF after 100.3 sec

Maximum memory used throughout the entire LEANSCF-calculation: 97.7 MB


-------------------------------------------------------------------------------
                          DFT DISPERSION CORRECTION                            
                                                                               
                              DFTD3 V3.1  Rev 1                                
                              USING zero damping                               
-------------------------------------------------------------------------------
The M062X functional is recognized
Active option DFTDOPT                   ...         3   

molecular C6(AA) [au] = 15939.418316 


            DFT-D V3
 parameters
 s6 scaling factor         :     1.0000 
 rs6 scaling factor        :     1.6190 
 s8 scaling factor         :     0.0000 
 rs8 scaling factor        :     1.0000 
 Damping factor alpha6     :    14.0000 
 Damping factor alpha8     :    16.0000 
 ad hoc parameters k1-k3   :    16.0000     1.3333    -4.0000 

 Edisp/kcal,au: -1.574787492683  -0.002509583345 
 E6   /kcal   :  -1.574787493 
 E8   /kcal   :  -0.000000000 
 % E8         :   0.000000000 

-------------------------   ----------------
Dispersion correction           -0.002509583
-------------------------   ----------------


-------------------------   --------------------
FINAL SINGLE POINT ENERGY     -1037.709700471396
-------------------------   --------------------



           ************************************************************
           *        Program running with 6 parallel MPI-processes     *
           *              working on a common directory               *
           ************************************************************

------------------------------------------------------------------------------
                              ORCA PROPERTY CALCULATIONS
------------------------------------------------------------------------------

GBWName                                 ... data/single_point_PO_M06-2x/80102/80102.gbw
Number of atoms                         ...     37
Number of basis functions               ...    678
Max core memory                         ...   1024 MB

Electric properties:
Dipole moment                           ... YES
Quadrupole moment                       ...  NO
Static polarizability (Dipole/Dipole)   ...  NO
Static polarizability (Dipole/Quad.)    ...  NO
Static polarizability (Quad./Quad.)     ...  NO
Static polarizability (Velocity)        ...  NO

Atomic electric properties:
Dipole moment                           ...  NO
Quadrupole moment                       ...  NO
Static polarizability                   ...  NO

Choice of electric origin               ... Center of mass
Position of electric origin             ...    -0.097183     0.413398     0.473648

General magnetic properties:
Magnetizability                         ...  NO

EPR properties:
g-Tensor (aka g-matrix)                 ...  NO
Zero-Field splitting spin-orbit         ...  NO
Zero-field splitting spin-spin          ...  NO
Hyperfine couplings                     ...  NO (   0 nuclei)
Quadrupole couplings                    ...  NO (   0 nuclei)
Contact density                         ...  NO (   0 nuclei)

NMR properties:
Chemical shifts                         ...  NO (   0 nuclei)
Spin-rotation constants                 ...  NO (   0 nuclei)
Spin-spin couplings                     ...  NO (   0 nuclei,    0 pairs)

Choice of magnetic origin               ... GIAO
Position of magnetic origin             ...     0.000000     0.000000     0.000000

Properties with geometric perturbations:
SCF Hessian                             ...  NO
IR spectrum                             ...  NO
VCD spectrum                            ...  NO
X-ray spectroscopy properties:
SCF XES/XAS/RIXS spectra                ...  NO


-------------
DIPOLE MOMENT
-------------

Method             : SCF
Type of density    : Electron Density
Multiplicity       :   1
Irrep              :   0
Energy             : -1037.7071908880516276 Eh
Relativity type    : 
Basis              : AO
                                X                 Y                 Z
Electronic contribution:     -1.691543849       9.517862389       6.939879663
Nuclear contribution   :      1.859267243      -9.056466258      -8.364865828
                        -----------------------------------------
Total Dipole Moment    :      0.167723394       0.461396130      -1.424986165
                        -----------------------------------------
Magnitude (a.u.)       :      1.507183830
Magnitude (Debye)      :      3.830956844



--------------------
Rotational spectrum 
--------------------
 
Rotational constants in cm-1:             0.017526             0.010307             0.008531 
Rotational constants in MHz :           525.422868           309.009831           255.741402 

Dipole components along the rotational axes: 
x,y,z [a.u.] :     0.008650     0.548637     1.403754 
x,y,z [Debye]:     0.021987     1.394524     3.568060 

 

Dipole moment calculation done in   0.0 sec 

Maximum memory used throughout the entire PROP-calculation: 51.6 MB

--------------------------------
SUGGESTED CITATIONS FOR THIS RUN
--------------------------------

Below you find a list of papers that are relevant to this ORCA run
We neither can nor want to force you to cite these papers, but we appreciate if you do
You receive ORCA, which is the product of decades of hard work by many enthusiastic individuals, for free
The only thing we kindly ask in return is that you cite our papers,
We deeply appreciate it, if you show your appreciation for ORCA by not just citing the generic ORCA reference.

Please note that relegating all ORCA citations to the supporting information does *not* help us.
SI sections are not indexed - citations you put there will not count into any citation statistics
But we need these citations in order to attract the funding resources that allow us to do what we are doing

Therefore, if you are a happy ORCA user, please consider citing a few of the papers listed below in the main body of your paper

In addition to the list printed below, the program has created the file data/single_point_PO_M06-2x/80102/80102.bibtex that contains the list in bibtex format
You can import this file easily into all common literature databanks and citation aid programs


List of essential papers. We consider these as the minimum necessary citations

  1. Neese,F.
     Software update: the ORCA program system, version 5.0
     WIRES Comput. Molec. Sci., 2022 12(1)e1606
     doi.org/10.1002/wcms.1606

List of papers to cite with high priority. The work reported in these papers was absolutely
necessary for this run to complete.
Our perspective: the developers of density functionals and basis sets usually get cited in chemistry papers
Good! But without the algorithms to do something with them, the functionals or basis sets would not do anything.
Hence, in our opinion, the algorithm design and method developments papers are equally worthy of getting cited

  1. Neese,F.
     An improvement of the resolution of the identity approximation for the formation of the Coulomb matrix
     J. Comp. Chem., 2003 24(14)1740-1747
     doi.org/10.1002/jcc.10318
  2. Neese,F.; Wennmohs,F.; Hansen,A.; Becker,U.
     Efficient, approximate and parallel Hartree-Fock and hybrid DFT calculations. A 'chain-of-spheres' algorithm for the Hartree-Fock exchange
     Chem. Phys., 2009 356(1-3)98-109
     doi.org/10.1016/j.chemphys.2008.10.036
  3. Helmich-Paris,B.; de Souza,B.; Neese,F.; Izsák,R.
     An improved chain of spheres for exchange algorithm
     J. Chem. Phys., 2021 155 104109
     doi.org/doi: 10.1063/5.0058766.
  4. Neese,F.
     The SHARK Integral Generation and Digestion System
     J. Comp. Chem., 2022  1-16
     doi.org/10.1002/jcc.26942
  5. Grimme,S.; Antony,J.; Ehrlich,S.; Krieg,H.
     A consistent and accurate ab initio parametrization of density functional dispersion correction (DFT-D) for the 94 elements H-Pu
     J. Chem. Phys., 2010 132 154104-XXXX
     doi.org/10.1063/1.3382344

List of suggested additional citations. These are papers that are important in the 'surrounding' of 
of this run, or papers that preceded the highly important papers. If you like your results we are grateful for a citation.

  1. Izsak,R.; Neese,F.
     An overlap fitted chain of spheres exchange method
     J. Chem. Phys., 2011 135 144105
     doi.org/10.1063/1.3646921
  2. Izsak,R.; Hansen,A.; Neese,F.
     The resolution of identity and chain of spheres approximations for the LPNO-CCSD singles Fock term
     Molec. Phys., 2012 110 2413-2417
     doi.org/10.1080/00268976.2012.687466
  3. Neese,F.
     The ORCA program system
     WIRES Comput. Molec. Sci., 2012 2(1)73-78
     doi.org/10.1002/wcms.81
  4. Izsak,R.; Neese,F.; Klopper,W.
     Robust fitting techniques in the chain of spheres approximation to the Fock exchange: The role of the complementary space
     J. Chem. Phys., 2013 139 
     doi.org/10.1063/1.4819264
  5. Neese,F.
     Software update: the ORCA program system, version 4.0
     WIRES Comput. Molec. Sci., 2018 8(1)1-6
     doi.org/10.1002/wcms.1327
  6. Neese,F.; Wennmohs,F.; Becker,U.; Riplinger,C.
     The ORCA quantum chemistry program package
     J. Chem. Phys., 2020 152 Art. No. L224108
     doi.org/10.1063/5.0004608

List of optional additional citations

  1. Neese,F.
     Approximate second-order SCF convergence for spin unrestricted wavefunctions
     Chem. Phys. Lett., 2000 325(1-3)93-98
     doi.org/10.1016/s0009-2614(00)00662-x

Timings for individual modules:

Sum of individual times          ...      107.104 sec (=   1.785 min)
Startup calculation              ...        4.377 sec (=   0.073 min)   4.1 %
SCF iterations                   ...      102.439 sec (=   1.707 min)  95.6 %
Property calculations            ...        0.288 sec (=   0.005 min)   0.3 %
                             ****ORCA TERMINATED NORMALLY****
TOTAL RUN TIME: 0 days 0 hours 1 minutes 47 seconds 463 msec
