
                                 *****************
                                 * O   R   C   A *
                                 *****************

                                            #,                                       
                                            ###                                      
                                            ####                                     
                                            #####                                    
                                            ######                                   
                                           ########,                                 
                                     ,,################,,,,,                         
                               ,,#################################,,                 
                          ,,##########################################,,             
                       ,#########################################, ''#####,          
                    ,#############################################,,   '####,        
                  ,##################################################,,,,####,       
                ,###########''''           ''''###############################       
              ,#####''   ,,,,##########,,,,          '''####'''          '####       
            ,##' ,,,,###########################,,,                        '##       
           ' ,,###''''                  '''############,,,                           
         ,,##''                                '''############,,,,        ,,,,,,###''
      ,#''                                            '''#######################'''  
     '                                                          ''''####''''         
             ,#######,   #######,   ,#######,      ##                                
            ,#'     '#,  ##    ##  ,#'     '#,    #''#        ,####,   ,####,        
            ##       ##  ##   ,#'  ##            #'  '#       #'       #'  '#        
            ##       ##  #######   ##           ,######,      #####,   #    #        
            '#,     ,#'  ##    ##  '#,     ,#' ,#      #,     #,   #   #,  ,#        
             '#######'   ##     ##  '#######'  #'      '#     '####' # '####'        



                #########################################################
                #                        -***-                          #
                #          Department of theory and spectroscopy        #
                #                                                       #
                #                      Frank Neese                      #
                #                                                       #
                #     Directorship, Architecture, Infrastructure        #
                #                    SHARK, DRIVERS                     #
                #        Core code/Algorithms in most modules           #
                #                                                       #
                #        Max Planck Institute fuer Kohlenforschung      #
                #                Kaiser Wilhelm Platz 1                 #
                #                 D-45470 Muelheim/Ruhr                 #
                #                      Germany                          #
                #                                                       #
                #                  All rights reserved                  #
                #                        -***-                          #
                #########################################################


                         Program Version 6.0.0  -   RELEASE   -


 With contributions from (in alphabetic order):
   Daniel Aravena         : Magnetic Suceptibility
   Michael Atanasov       : Ab Initio Ligand Field Theory (pilot matlab implementation)
   Alexander A. Auer      : GIAO ZORA, VPT2 properties, NMR spectrum
   Ute Becker             : All parallelization in ORCA, NUMFREQ, NUMCALC
   Giovanni Bistoni       : ED, misc. LED, open-shell LED, HFLD
   Martin Brehm           : Molecular dynamics
   Dmytro Bykov           : pre 5.0 version of the SCF Hessian
   Marcos Casanova-Páez   : Triplet and SCS-CIS(D). UHF-(DLPNO)-IP/EA/STEOM-CCSD. UHF-CVS-IP/STEOM-CCSD
   Vijay G. Chilkuri      : MRCI spin determinant printing, contributions to CSF-ICE
   Pauline Colinet        : FMM embedding
   Dipayan Datta          : RHF DLPNO-CCSD density
   Achintya Kumar Dutta   : EOM-CC, STEOM-CC
   Nicolas Foglia         : Exact transition moments, OPA infrastructure, MCD improvements
   Dmitry Ganyushin       : Spin-Orbit,Spin-Spin,Magnetic field MRCI
   Miquel Garcia          : C-PCM and meta-GGA Hessian, CCSD/C-PCM, Gaussian charge scheme
   Tiago L. C. Gouveia    : GS-ROHF, GS-ROCIS
   Yang Guo               : DLPNO-NEVPT2, F12-NEVPT2, CIM, IAO-localization
   Andreas Hansen         : Spin unrestricted coupled pair/coupled cluster methods
   Ingolf Harden          : AUTO-CI MPn and infrastructure 
   Benjamin Helmich-Paris : MC-RPA, TRAH-(SCF,CASSCF), AVAS, COSX integrals, SCF dyn. polar.
   Lee Huntington         : MR-EOM, pCC
   Robert Izsak           : Overlap fitted RIJCOSX, COSX-SCS-MP3, EOM
   Riya Kayal             : Wick's Theorem for AUTO-CI, AUTO-CI UHF-CCSDT
   Emily Kempfer          : AUTO-CI, RHF CISDT and CCSDT
   Christian Kollmar      : KDIIS, OOCD, Brueckner-CCSD(T), CCSD density, CASPT2, CASPT2-K, improved NEVPT2
   Axel Koslowski         : Symmetry handling
   Simone Kossmann        : Meta GGA functionals, TD-DFT gradient, OOMP2, (MP2 Hessian; deprecated post 5.0)
   Lucas Lang             : DCDCAS
   Marvin Lechner         : AUTO-CI (C++ implementation), FIC-MRCC
   Spencer Leger          : CASSCF response
   Dagmar Lenk            : GEPOL surface, SMD, ORCA-2-JSON
   Dimitrios Liakos       : Extrapolation schemes; Compound Job, initial MDCI parallelization
   Dimitrios Manganas     : Further ROCIS development; embedding schemes. LFT, Crystal Embedding
   Dimitrios Pantazis     : SARC Basis sets
   Anastasios Papadopoulos: AUTO-CI, single reference methods and gradients
   Taras Petrenko         : pre 6.0 DFT Hessian and TD-DFT gradient, (ASA, deprecated), ECA, 1-Electron XAS/XES, NRVS
   Peter Pinski           : DLPNO-MP2, DLPNO-MP2 Gradient
   Christoph Reimann      : Effective Core Potentials
   Marius Retegan         : Local ZFS, SOC
   Christoph Riplinger    : Optimizer, TS searches, QM/MM, DLPNO-CCSD(T), (RO)-DLPNO pert. Triples
   Michael Roemelt        : Original ROCIS implementation
   Masaaki Saitow         : Open-shell DLPNO-CCSD energy and density
   Barbara Sandhoefer     : DKH picture change effects
   Kantharuban Sivalingam : CASSCF convergence/infrastructure, NEVPT2 and variants, FIC-MRCI
   Bernardo de Souza      : ESD, SOC TD-DFT
   Georgi Stoychev        : AutoAux, RI-MP2 NMR, DLPNO-MP2 response, X2C
   Van Anh Tran           : RI-MP2 g-tensors
   Willem Van den Heuvel  : Paramagnetic NMR
   Zikuan Wang            : NOTCH, Electric field optimization 
   Frank Wennmohs         : Technical directorship and infrastructure
   Hang Xu                : AUTO-CI-Response properties 


 We gratefully acknowledge several colleagues who have allowed us to
 interface, adapt or use parts of their codes:
   Stefan Grimme, W. Hujo, H. Kruse, P. Pracht,  : VdW corrections, initial TS optimization,
                  C. Bannwarth, S. Ehlert,         DFT functionals, gCP, sTDA/sTD-DF
                  L. Wittmann, M. Mueller
   Ed Valeev, F. Pavosevic, A. Kumar             : LibInt (2-el integral package), F12 methods
   Garnet Chan, S. Sharma, J. Yang, R. Olivares  : DMRG
   Ulf Ekstrom                                   : XCFun DFT Library
   Mihaly Kallay                                 : mrcc  (arbitrary order and MRCC methods)
   Frank Weinhold                                : gennbo (NPA and NBO analysis)
   Simon Mueller                                 : openCOSMO-RS
   Christopher J. Cramer and Donald G. Truhlar   : smd solvation model
   Lars Goerigk                                  : TD-DFT with DH, B97 family of functionals
   V. Asgeirsson, H. Jonsson                     : NEB implementation
   FAccTs GmbH                                   : IRC, NEB, NEB-TS, DLPNO-Multilevel, CI-OPT
                                                   MM, QMMM, 2- and 3-layer-ONIOM, Crystal-QMMM,
                                                   LR-CPCM, SF, NACMEs, symmetry and pop. for TD-DFT,
                                                   nearIR, NL-DFT gradient (VV10), updates on ESD,
                                                   ML-optimized integration grids, MBIS, APM,
                                                   GOAT, DOCKER, SOLVATOR, interface openCOSMO-RS
   S Lehtola, MJT Oliveira, MAL Marques          : LibXC Library
   Liviu Ungur et al                             : ANISO software


 Your calculation uses the libint2 library for the computation of 2-el integrals
 For citations please refer to: http://libint.valeyev.net

 Your ORCA version has been built with support for libXC version: 6.2.2
 For citations please refer to: https://libxc.gitlab.io

 This ORCA versions uses:
   CBLAS   interface :  Fast vector & matrix operations
   LAPACKE interface :  Fast linear algebra routines
   Shared memory     :  Shared parallel matrices


Your calculation utilizes the atom-pairwise dispersion correction
with the Becke-Johnson damping scheme (D3BJ)


Warning: RI is on but no J-basis has been assigned. Assigning Def2/J (nothing to worry about!)
================================================================================

----- Orbital basis set information -----
Your calculation utilizes the basis: def2-SVP
   F. Weigend and R. Ahlrichs, Phys. Chem. Chem. Phys. 7, 3297 (2005).

----- AuxJ basis set information -----
Your calculation utilizes the auxiliary basis: def2/J
   F. Weigend, Phys. Chem. Chem. Phys. 8, 1057 (2006).

================================================================================
                                        WARNINGS
                       Please study these warnings very carefully!
================================================================================


WARNING: Geometry Optimization
  ===> : Switching off AutoStart
         For restart on a previous wavefunction, please use MOREAD

================================================================================
                                       INPUT FILE
================================================================================
NAME = data/geom_opt/121600/121600.inp
|  1> ! RIJONX B3LYP def2-SVP D3BJ TIGHTSCF Opt
|  2> %pal
|  3> nprocs 6
|  4> end
|  5> 
|  6> * xyz 0 1
|  7> C     -3.296128   -2.182510   -0.321687
|  8> C     -2.419882   -1.204959   -0.802917
|  9> C     -1.024629   -1.346316   -0.679951
| 10> C     -0.537286   -2.532854   -0.109952
| 11> C     -1.414955   -3.508041    0.370406
| 12> C     -2.791989   -3.334886    0.273322
| 13> Cl    -0.785974   -4.942877    1.084179
| 14> P      0.078191   -0.062011   -1.358299
| 15> C      1.637659   -0.239119   -0.428618
| 16> C      2.826956   -0.394813   -1.159689
| 17> C      4.051699   -0.530441   -0.503617
| 18> C      4.116604   -0.514284    0.886343
| 19> C      2.946837   -0.360681    1.626059
| 20> C      1.718202   -0.223242    0.973017
| 21> Cl     5.494913   -0.719633   -1.422286
| 22> C     -0.551685    1.508963   -0.667627
| 23> C     -1.249316    1.616285    0.544604
| 24> C     -1.692310    2.858985    1.002619
| 25> C     -1.449937    4.015357    0.267389
| 26> C     -0.756454    3.928998   -0.936525
| 27> C     -0.311277    2.686744   -1.398202
| 28> Cl    -2.545958    2.960765    2.494053
| 29> H     -4.370224   -2.044128   -0.418818
| 30> H     -2.846216   -0.323241   -1.280410
| 31> H      0.531490   -2.719665   -0.039849
| 32> H     -3.472789   -4.095413    0.645730
| 33> H      2.805824   -0.410978   -2.247497
| 34> H      5.070082   -0.620329    1.396548
| 35> H      2.987774   -0.347763    2.712645
| 36> H      0.824560   -0.112362    1.582145
| 37> H     -1.452212    0.736794    1.149841
| 38> H     -1.794531    4.981315    0.626236
| 39> H     -0.558741    4.826644   -1.517308
| 40> H      0.231700    2.649698   -2.341885
| 41> **                         ****END OF INPUT****
================================================================================

                       *****************************
                       * Geometry Optimization Run *
                       *****************************

Geometry optimization settings:
Update method            Update   .... BFGS
Choice of coordinates    CoordSys .... (2022) Redundant Internals
Initial Hessian          InHess   .... Almloef's Model
Max. no of cycles        MaxIter  .... 102

Convergence Tolerances:
Energy Change            TolE     ....  5.0000e-06 Eh
Max. Gradient            TolMAXG  ....  3.0000e-04 Eh/bohr
RMS Gradient             TolRMSG  ....  1.0000e-04 Eh/bohr
Max. Displacement        TolMAXD  ....  4.0000e-03 bohr
RMS Displacement         TolRMSD  ....  2.0000e-03 bohr
Strict Convergence                .... False

------------------------------------------------------------------------------
                        ORCA OPTIMIZATION COORDINATE SETUP
------------------------------------------------------------------------------

The optimization will be done in redundant internal coordinates (2022)
Making redundant internal coordinates   ...  (2022 redundants) done
Evaluating the initial hessian          ...  (Almloef) done
Evaluating the coordinates              ...  done
Calculating the B-matrix                .... done
Calculating the G-matrix                .... done
Diagonalizing the G-matrix              .... done
Small eigenvalue found = 4.557e-03
Small eigenvalue found = 7.003e-03
Small eigenvalue found = 9.304e-03
Small eigenvalue found = 2.312e-02
The first mode is                       ....   81
The number of degrees of freedom        ....   96

    -----------------------------------------------------------------
                    Redundant Internal Coordinates


    -----------------------------------------------------------------
         Definition                    Initial Value    Approx d2E/dq
    -----------------------------------------------------------------
      1. B(C   1,C   0)                  1.3982         0.606230   
      2. B(C   2,C   1)                  1.4078         0.585299   
      3. B(C   3,C   2)                  1.4037         0.594207   
      4. B(C   4,C   3)                  1.3972         0.608592   
      5. B(C   5,C   4)                  1.3913         0.621890   
      6. B(C   5,C   0)                  1.3915         0.621453   
      7. B(Cl  6,C   4)                  1.7216         0.414684   
      8. B(P   7,C   2)                  1.8237         0.426898   
      9. B(C   8,P   7)                  1.8242         0.426122   
     10. B(C   9,C   8)                  1.4047         0.591989   
     11. B(C  10,C   9)                  1.3960         0.611172   
     12. B(C  11,C  10)                  1.3916         0.621207   
     13. B(C  12,C  11)                  1.3925         0.619026   
     14. B(C  13,C  12)                  1.3982         0.606308   
     15. B(C  13,C   8)                  1.4040         0.593394   
     16. B(Cl 14,C  10)                  1.7212         0.415229   
     17. B(C  15,P   7)                  1.8280         0.420114   
     18. B(C  16,C  15)                  1.4028         0.596204   
     19. B(C  17,C  16)                  1.3965         0.609964   
     20. B(C  18,C  17)                  1.3916         0.621173   
     21. B(C  19,C  18)                  1.3920         0.620123   
     22. B(C  20,C  19)                  1.3980         0.606606   
     23. B(C  20,C  15)                  1.4067         0.587695   
     24. B(Cl 21,C  17)                  1.7215         0.414858   
     25. B(H  22,C   0)                  1.0873         0.363662   
     26. B(H  23,C   1)                  1.0896         0.360655   
     27. B(H  24,C   3)                  1.0872         0.363767   
     28. B(H  25,C   5)                  1.0865         0.364701   
     29. B(H  26,C   9)                  1.0881         0.362578   
     30. B(H  27,C  11)                  1.0866         0.364641   
     31. B(H  28,C  12)                  1.0874         0.363511   
     32. B(H  29,C  13)                  1.0872         0.363870   
     33. B(H  30,C  16)                  1.0867         0.364451   
     34. B(H  31,C  18)                  1.0866         0.364693   
     35. B(H  32,C  19)                  1.0873         0.363722   
     36. B(H  33,C  20)                  1.0894         0.360930   
     37. A(C   1,C   0,H  22)          119.9566         0.352156   
     38. A(C   5,C   0,H  22)          120.0995         0.353638   
     39. A(C   1,C   0,C   5)          119.9427         0.432498   
     40. A(C   0,C   1,H  23)          118.1241         0.351662   
     41. A(C   2,C   1,H  23)          120.4866         0.349582   
     42. A(C   0,C   1,C   2)          121.3893         0.427870   
     43. A(C   1,C   2,P   7)          119.7449         0.428605   
     44. A(C   3,C   2,P   7)          122.4386         0.429768   
     45. A(C   1,C   2,C   3)          117.6749         0.426337   
     46. A(C   2,C   3,C   4)          120.7656         0.429330   
     47. A(C   4,C   3,H  24)          118.3866         0.352405   
     48. A(C   2,C   3,H  24)          120.8453         0.350983   
     49. A(C   3,C   4,Cl  6)          119.6542         0.420816   
     50. A(C   5,C   4,Cl  6)          119.6218         0.422444   
     51. A(C   3,C   4,C   5)          120.7235         0.432855   
     52. A(C   0,C   5,C   4)          119.4402         0.434487   
     53. A(C   4,C   5,H  25)          120.6060         0.353851   
     54. A(C   0,C   5,H  25)          119.9492         0.353809   
     55. A(C   2,P   7,C  15)          104.8508         0.430817   
     56. A(C   2,P   7,C   8)          105.0123         0.431917   
     57. A(C   8,P   7,C  15)          100.6871         0.430676   
     58. A(P   7,C   8,C   9)          117.9902         0.429339   
     59. A(C   9,C   8,C  13)          118.1802         0.427101   
     60. A(P   7,C   8,C  13)          123.8290         0.429522   
     61. A(C   8,C   9,H  26)          120.3646         0.350567   
     62. A(C  10,C   9,H  26)          119.0399         0.352462   
     63. A(C   8,C   9,C  10)          120.5954         0.429367   
     64. A(C   9,C  10,C  11)          120.6115         0.433099   
     65. A(C  11,C  10,Cl 14)          119.6883         0.422460   
     66. A(C   9,C  10,Cl 14)          119.7002         0.421233   
     67. A(C  10,C  11,C  12)          119.5176         0.434095   
     68. A(C  12,C  11,H  27)          119.8985         0.353564   
     69. A(C  10,C  11,H  27)          120.5839         0.353775   
     70. A(C  13,C  12,H  28)          119.9085         0.352139   
     71. A(C  11,C  12,H  28)          120.0316         0.353379   
     72. A(C  11,C  12,C  13)          120.0599         0.432204   
     73. A(C   8,C  13,C  12)          121.0353         0.428935   
     74. A(C  12,C  13,H  29)          118.0766         0.352198   
     75. A(C   8,C  13,H  29)          120.8860         0.350919   
     76. A(C  16,C  15,C  20)          118.0190         0.426905   
     77. A(P   7,C  15,C  20)          117.6732         0.427688   
     78. A(P   7,C  15,C  16)          124.3063         0.428792   
     79. A(C  17,C  16,H  30)          118.5725         0.352652   
     80. A(C  15,C  16,H  30)          120.8123         0.351294   
     81. A(C  15,C  16,C  17)          120.6144         0.429762   
     82. A(C  16,C  17,C  18)          120.7246         0.432941   
     83. A(C  18,C  17,Cl 21)          119.6683         0.422388   
     84. A(C  16,C  17,Cl 21)          119.6071         0.421017   
     85. A(C  17,C  18,C  19)          119.4822         0.434229   
     86. A(C  19,C  18,H  31)          119.9190         0.353679   
     87. A(C  17,C  18,H  31)          120.5986         0.353780   
     88. A(C  18,C  19,C  20)          119.9576         0.432380   
     89. A(C  20,C  19,H  32)          119.9532         0.352203   
     90. A(C  18,C  19,H  32)          120.0890         0.353519   
     91. A(C  15,C  20,C  19)          121.2017         0.428231   
     92. A(C  19,C  20,H  33)          118.3593         0.351745   
     93. A(C  15,C  20,H  33)          120.4389         0.349868   
     94. D(H  23,C   1,C   0,C   5)    178.8573         0.025364   
     95. D(C   2,C   1,C   0,H  22)    179.2992         0.025364   
     96. D(H  23,C   1,C   0,H  22)     -0.7414         0.025364   
     97. D(C   2,C   1,C   0,C   5)     -1.1022         0.025364   
     98. D(C   3,C   2,C   1,C   0)      2.7969         0.023556   
     99. D(C   3,C   2,C   1,H  23)   -177.1616         0.023556   
    100. D(P   7,C   2,C   1,C   0)    178.5769         0.023556   
    101. D(P   7,C   2,C   1,H  23)     -1.3816         0.023556   
    102. D(H  24,C   3,C   2,P   7)      0.9735         0.024316   
    103. D(C   4,C   3,C   2,C   1)     -2.7929         0.024316   
    104. D(C   4,C   3,C   2,P   7)   -178.4513         0.024316   
    105. D(H  24,C   3,C   2,C   1)    176.6319         0.024316   
    106. D(Cl  6,C   4,C   3,C   2)   -179.1430         0.025574   
    107. D(C   5,C   4,C   3,C   2)      1.1232         0.025574   
    108. D(C   5,C   4,C   3,H  24)   -178.3155         0.025574   
    109. D(Cl  6,C   4,C   3,H  24)      1.4183         0.025574   
    110. D(H  25,C   5,C   4,Cl  6)      0.1433         0.026772   
    111. D(C   0,C   5,C   4,Cl  6)   -179.0776         0.026772   
    112. D(H  25,C   5,C   0,H  22)     -0.2934         0.026732   
    113. D(H  25,C   5,C   0,C   1)   -179.8914         0.026732   
    114. D(C   4,C   5,C   0,H  22)    178.9327         0.026732   
    115. D(H  25,C   5,C   4,C   3)    179.8772         0.026772   
    116. D(C   4,C   5,C   0,C   1)     -0.6653         0.026732   
    117. D(C   0,C   5,C   4,C   3)      0.6563         0.026772   
    118. D(C  15,P   7,C   2,C   3)   -132.8859         0.003768   
    119. D(C  15,P   7,C   2,C   1)     51.5427         0.003768   
    120. D(C   8,P   7,C   2,C   3)    -27.2368         0.003768   
    121. D(C   8,P   7,C   2,C   1)    157.1917         0.003768   
    122. D(C  13,C   8,P   7,C   2)    -53.8878         0.003760   
    123. D(C   9,C   8,P   7,C  15)   -124.9105         0.003760   
    124. D(C   9,C   8,P   7,C   2)    126.3870         0.003760   
    125. D(C  13,C   8,P   7,C  15)     54.8147         0.003760   
    126. D(H  26,C   9,C   8,C  13)   -179.9327         0.024125   
    127. D(H  26,C   9,C   8,P   7)     -0.1917         0.024125   
    128. D(C  10,C   9,C   8,C  13)      0.0448         0.024125   
    129. D(C  10,C   9,C   8,P   7)    179.7858         0.024125   
    130. D(Cl 14,C  10,C   9,H  26)     -0.0110         0.025803   
    131. D(Cl 14,C  10,C   9,C   8)   -179.9888         0.025803   
    132. D(C  11,C  10,C   9,H  26)    179.9977         0.025803   
    133. D(C  11,C  10,C   9,C   8)      0.0199         0.025803   
    134. D(H  27,C  11,C  10,Cl 14)     -0.0185         0.026709   
    135. D(H  27,C  11,C  10,C   9)    179.9728         0.026709   
    136. D(C  12,C  11,C  10,Cl 14)    179.9840         0.026709   
    137. D(C  12,C  11,C  10,C   9)     -0.0247         0.026709   
    138. D(H  28,C  12,C  11,H  27)     -0.0515         0.026511   
    139. D(H  28,C  12,C  11,C  10)    179.9461         0.026511   
    140. D(C  13,C  12,C  11,H  27)    179.9664         0.026511   
    141. D(C  13,C  12,C  11,C  10)     -0.0361         0.026511   
    142. D(H  29,C  13,C  12,H  28)     -0.4091         0.025371   
    143. D(C   8,C  13,C  12,H  28)   -179.8790         0.025371   
    144. D(C   8,C  13,C  12,C  11)      0.1031         0.025371   
    145. D(H  29,C  13,C   8,C   9)   -179.5612         0.024246   
    146. D(H  29,C  13,C   8,P   7)      0.7141         0.024246   
    147. D(H  29,C  13,C  12,C  11)    179.5731         0.025371   
    148. D(C  12,C  13,C   8,C   9)     -0.1062         0.024246   
    149. D(C  12,C  13,C   8,P   7)   -179.8309         0.024246   
    150. D(C  20,C  15,P   7,C   8)     97.5107         0.003694   
    151. D(C  20,C  15,P   7,C   2)   -153.6600         0.003694   
    152. D(C  16,C  15,P   7,C   8)    -82.0437         0.003694   
    153. D(C  16,C  15,P   7,C   2)     26.7855         0.003694   
    154. D(H  30,C  16,C  15,P   7)      0.0950         0.024488   
    155. D(C  17,C  16,C  15,C  20)      0.2150         0.024488   
    156. D(C  17,C  16,C  15,P   7)    179.7681         0.024488   
    157. D(H  30,C  16,C  15,C  20)   -179.4580         0.024488   
    158. D(Cl 21,C  17,C  16,H  30)     -0.3149         0.025696   
    159. D(Cl 21,C  17,C  16,C  15)   -179.9952         0.025696   
    160. D(C  18,C  17,C  16,H  30)    179.6163         0.025696   
    161. D(C  18,C  17,C  16,C  15)     -0.0639         0.025696   
    162. D(H  31,C  18,C  17,Cl 21)      0.0022         0.026706   
    163. D(H  31,C  18,C  17,C  16)   -179.9289         0.026706   
    164. D(C  19,C  18,C  17,Cl 21)    179.8455         0.026706   
    165. D(C  19,C  18,C  17,C  16)     -0.0857         0.026706   
    166. D(H  32,C  19,C  18,H  31)      0.0486         0.026611   
    167. D(H  32,C  19,C  18,C  17)   -179.7957         0.026611   
    168. D(C  20,C  19,C  18,H  31)    179.9219         0.026611   
    169. D(C  20,C  19,C  18,C  17)      0.0776         0.026611   
    170. D(H  33,C  20,C  19,H  32)      0.0766         0.025398   
    171. D(H  33,C  20,C  19,C  18)   -179.7969         0.025398   
    172. D(C  15,C  20,C  19,H  32)    179.9533         0.025398   
    173. D(C  15,C  20,C  19,C  18)      0.0798         0.025398   
    174. D(H  33,C  20,C  15,C  16)    179.6502         0.023759   
    175. D(H  33,C  20,C  15,P   7)      0.0671         0.023759   
    176. D(C  19,C  20,C  15,C  16)     -0.2239         0.023759   
    177. D(C  19,C  20,C  15,P   7)   -179.8070         0.023759   
    -----------------------------------------------------------------

Number of atoms                         .... 34
Number of degrees of freedom            .... 177


         *************************************************************
         *                GEOMETRY OPTIMIZATION CYCLE   1            *
         *************************************************************
---------------------------------
CARTESIAN COORDINATES (ANGSTROEM)
---------------------------------
  C     -3.296128   -2.182510   -0.321687
  C     -2.419882   -1.204959   -0.802917
  C     -1.024629   -1.346316   -0.679951
  C     -0.537286   -2.532854   -0.109952
  C     -1.414955   -3.508041    0.370406
  C     -2.791989   -3.334886    0.273322
  Cl    -0.785974   -4.942877    1.084179
  P      0.078191   -0.062011   -1.358299
  C      1.637659   -0.239119   -0.428618
  C      2.826956   -0.394813   -1.159689
  C      4.051699   -0.530441   -0.503617
  C      4.116604   -0.514284    0.886343
  C      2.946837   -0.360681    1.626059
  C      1.718202   -0.223242    0.973017
  Cl     5.494913   -0.719633   -1.422286
  C     -0.551685    1.508963   -0.667627
  C     -1.249316    1.616285    0.544604
  C     -1.692310    2.858985    1.002619
  C     -1.449937    4.015357    0.267389
  C     -0.756454    3.928998   -0.936525
  C     -0.311277    2.686744   -1.398202
  Cl    -2.545958    2.960765    2.494053
  H     -4.370224   -2.044128   -0.418818
  H     -2.846216   -0.323241   -1.280410
  H      0.531490   -2.719665   -0.039849
  H     -3.472789   -4.095413    0.645730
  H      2.805824   -0.410978   -2.247497
  H      5.070082   -0.620329    1.396548
  H      2.987774   -0.347763    2.712645
  H      0.824560   -0.112362    1.582145
  H     -1.452212    0.736794    1.149841
  H     -1.794531    4.981315    0.626236
  H     -0.558741    4.826644   -1.517308
  H      0.231700    2.649698   -2.341885

----------------------------
CARTESIAN COORDINATES (A.U.)
----------------------------
  NO LB      ZA    FRAG     MASS         X           Y           Z
   0 C     6.0000    0    12.011   -6.228779   -4.124346   -0.607900
   1 C     6.0000    0    12.011   -4.572914   -2.277043   -1.517293
   2 C     6.0000    0    12.011   -1.936268   -2.544169   -1.284921
   3 C     6.0000    0    12.011   -1.015323   -4.786400   -0.207779
   4 C     6.0000    0    12.011   -2.673877   -6.629237    0.699966
   5 C     6.0000    0    12.011   -5.276095   -6.302021    0.516504
   6 Cl   17.0000    0    35.453   -1.485276   -9.340684    2.048801
   7 P    15.0000    0    30.974    0.147760   -0.117184   -2.566813
   8 C     6.0000    0    12.011    3.094727   -0.451869   -0.809971
   9 C     6.0000    0    12.011    5.342173   -0.746088   -2.191495
  10 C     6.0000    0    12.011    7.656601   -1.002388   -0.951698
  11 C     6.0000    0    12.011    7.779254   -0.971856    1.674946
  12 C     6.0000    0    12.011    5.568715   -0.681588    3.072806
  13 C     6.0000    0    12.011    3.246931   -0.421866    1.838736
  14 Cl   17.0000    0    35.453   10.383881   -1.359909   -2.687731
  15 C     6.0000    0    12.011   -1.042534    2.851527   -1.261632
  16 C     6.0000    0    12.011   -2.360865    3.054336    1.029152
  17 C     6.0000    0    12.011   -3.198002    5.402699    1.894675
  18 C     6.0000    0    12.011   -2.739984    7.587925    0.505292
  19 C     6.0000    0    12.011   -1.429491    7.424730   -1.769776
  20 C     6.0000    0    12.011   -0.588228    5.077210   -2.642219
  21 Cl   17.0000    0    35.453   -4.811163    5.595035    4.713077
  22 H     1.0000    0     1.008   -8.258527   -3.862842   -0.791451
  23 H     1.0000    0     1.008   -5.378569   -0.610837   -2.419624
  24 H     1.0000    0     1.008    1.004371   -5.139422   -0.075304
  25 H     1.0000    0     1.008   -6.562620   -7.739209    1.220253
  26 H     1.0000    0     1.008    5.302239   -0.776636   -4.247154
  27 H     1.0000    0     1.008    9.581066   -1.172252    2.639093
  28 H     1.0000    0     1.008    5.646075   -0.657177    5.126156
  29 H     1.0000    0     1.008    1.558193   -0.212333    2.989821
  30 H     1.0000    0     1.008   -2.744283    1.392339    2.172885
  31 H     1.0000    0     1.008   -3.391172    9.413321    1.183415
  32 H     1.0000    0     1.008   -1.055867    9.121035   -2.867297
  33 H     1.0000    0     1.008    0.437850    5.007204   -4.425521

--------------------------------
INTERNAL COORDINATES (ANGSTROEM)
--------------------------------
 C      0   0   0     0.000000000000     0.00000000     0.00000000
 C      1   0   0     1.398211472924     0.00000000     0.00000000
 C      2   1   0     1.407776037804   121.38933510     0.00000000
 C      3   2   1     1.403664662622   117.67490815     2.79691538
 C      4   3   2     1.397152950358   120.76563219   357.20705481
 C      5   4   3     1.391269418279   120.72348111     1.12323296
 Cl     5   4   3     1.721581639303   119.65420711   180.85700827
 P      3   2   1     1.823679603036   119.74488329   178.57691255
 C      8   3   2     1.824175004885   105.01227601   157.19172632
 C      9   8   3     1.404682449127   117.99024541   126.38701006
 C     10   9   8     1.396001733386   120.59542407   179.78579802
 C     11  10   9     1.391568363133   120.61145823     0.00000000
 C     12  11  10     1.392525933889   119.51759069   359.97528918
 C     13  12  11     1.398176417949   120.05994719   359.96389698
 Cl    11  10   9     1.721224271913   119.70024684   180.01124319
 C      8   3   2     1.828040178890   104.85083191    51.54269315
 C     16   8   3     1.402751232830   124.30631211    26.78551837
 C     17  16   8     1.396540265893   120.61440723   179.76806543
 C     18  17  16     1.391583280445   120.72459279   359.93605267
 C     19  18  17     1.392043629907   119.48220986   359.91428994
 C     20  19  18     1.398042636751   119.95764156     0.07760921
 Cl    18  17  16     1.721467238335   119.60705227   180.00484427
 H      1   2   3     1.087320663972   119.95659652   179.29919285
 H      2   1   3     1.089581055328   118.12408330   179.95944686
 H      4   3   2     1.087241885923   120.84533982   176.63191119
 H      6   5   4     1.086543913605   120.60596647   179.87717567
 H     10   9   8     1.088133316057   120.36463235   359.80831012
 H     12  11  10     1.086588689677   120.58390013   179.97280090
 H     13  12  11     1.087433606290   120.03158411   179.94606602
 H     14  13  12     1.087164807629   118.07659272   179.57306694
 H     17  16   8     1.086730432106   120.81226762     0.09501659
 H     19  18  17     1.086550068800   120.59859664   180.07105078
 H     20  19  18     1.087275339909   120.08904714   180.20428636
 H     21  20  19     1.089373229492   118.35925574   180.20310666

---------------------------
INTERNAL COORDINATES (A.U.)
---------------------------
 C      0   0   0     0.000000000000     0.00000000     0.00000000
 C      1   0   0     2.642236761133     0.00000000     0.00000000
 C      2   1   0     2.660311169346   121.38933510     0.00000000
 C      3   2   1     2.652541796219   117.67490815     2.79691538
 C      4   3   2     2.640236443377   120.76563219   357.20705481
 C      5   4   3     2.629118179046   120.72348111     1.12323296
 Cl     5   4   3     3.253317815470   119.65420711   180.85700827
 P      3   2   1     3.446255005756   119.74488329   178.57691255
 C      8   3   2     3.447191179578   105.01227601   157.19172632
 C      9   8   3     2.654465133976   117.99024541   126.38701006
 C     10   9   8     2.638060958579   120.59542407   179.78579802
 C     11  10   9     2.629683102951   120.61145823     0.00000000
 C     12  11  10     2.631492649434   119.51759069   359.97528918
 C     13  12  11     2.642170516832   120.05994719   359.96389698
 Cl    11  10   9     3.252642488973   119.70024684   180.01124319
 C      8   3   2     3.454495299906   104.85083191    51.54269315
 C     16   8   3     2.650815664069   124.30631211    26.78551837
 C     17  16   8     2.639078637532   120.61440723   179.76806543
 C     18  17  16     2.629711292584   120.72459279   359.93605267
 C     19  18  17     2.630581226995   119.48220986   359.91428994
 C     20  19  18     2.641917707005   119.95764156     0.07760921
 Cl    18  17  16     3.253101628970   119.60705227   180.00484427
 H      1   2   3     2.054738274661   119.95659652   179.29919285
 H      2   1   3     2.059009795278   118.12408330   179.95944686
 H      4   3   2     2.054589405723   120.84533982   176.63191119
 H      6   5   4     2.053270429193   120.60596647   179.87717567
 H     10   9   8     2.056273964543   120.36463235   359.80831012
 H     12  11  10     2.053355043706   120.58390013   179.97280090
 H     13  12  11     2.054951704711   120.03158411   179.94606602
 H     14  13  12     2.054443748857   118.07659272   179.57306694
 H     17  16   8     2.053622898079   120.81226762     0.09501659
 H     19  18  17     2.053282060825   120.59859664   180.07105078
 H     20  19  18     2.054652624594   120.08904714   180.20428636
 H     21  20  19     2.058617061365   118.35925574   180.20310666

---------------------
BASIS SET INFORMATION
---------------------
There are 4 groups of distinct atoms

 Group   1 Type C   : 7s4p1d contracted to 3s2p1d pattern {511/31/1}
 Group   2 Type Cl  : 10s7p1d contracted to 4s3p1d pattern {5311/511/1}
 Group   3 Type P   : 10s7p1d contracted to 4s3p1d pattern {5311/511/1}
 Group   4 Type H   : 4s1p contracted to 2s1p pattern {31/1}

Atom   0C    basis set group =>   1
Atom   1C    basis set group =>   1
Atom   2C    basis set group =>   1
Atom   3C    basis set group =>   1
Atom   4C    basis set group =>   1
Atom   5C    basis set group =>   1
Atom   6Cl   basis set group =>   2
Atom   7P    basis set group =>   3
Atom   8C    basis set group =>   1
Atom   9C    basis set group =>   1
Atom  10C    basis set group =>   1
Atom  11C    basis set group =>   1
Atom  12C    basis set group =>   1
Atom  13C    basis set group =>   1
Atom  14Cl   basis set group =>   2
Atom  15C    basis set group =>   1
Atom  16C    basis set group =>   1
Atom  17C    basis set group =>   1
Atom  18C    basis set group =>   1
Atom  19C    basis set group =>   1
Atom  20C    basis set group =>   1
Atom  21Cl   basis set group =>   2
Atom  22H    basis set group =>   4
Atom  23H    basis set group =>   4
Atom  24H    basis set group =>   4
Atom  25H    basis set group =>   4
Atom  26H    basis set group =>   4
Atom  27H    basis set group =>   4
Atom  28H    basis set group =>   4
Atom  29H    basis set group =>   4
Atom  30H    basis set group =>   4
Atom  31H    basis set group =>   4
Atom  32H    basis set group =>   4
Atom  33H    basis set group =>   4
---------------------------------
AUXILIARY/J BASIS SET INFORMATION
---------------------------------
There are 4 groups of distinct atoms

 Group   1 Type C   : 12s5p4d2f1g contracted to 6s4p3d1f1g pattern {711111/2111/211/2/1}
 Group   2 Type Cl  : 14s5p5d2f1g contracted to 8s4p3d1f1g pattern {71111111/2111/311/2/1}
 Group   3 Type P   : 14s5p5d2f1g contracted to 8s4p3d1f1g pattern {71111111/2111/311/2/1}
 Group   4 Type H   : 5s2p1d contracted to 3s1p1d pattern {311/2/1}

Atom   0C    basis set group =>   1
Atom   1C    basis set group =>   1
Atom   2C    basis set group =>   1
Atom   3C    basis set group =>   1
Atom   4C    basis set group =>   1
Atom   5C    basis set group =>   1
Atom   6Cl   basis set group =>   2
Atom   7P    basis set group =>   3
Atom   8C    basis set group =>   1
Atom   9C    basis set group =>   1
Atom  10C    basis set group =>   1
Atom  11C    basis set group =>   1
Atom  12C    basis set group =>   1
Atom  13C    basis set group =>   1
Atom  14Cl   basis set group =>   2
Atom  15C    basis set group =>   1
Atom  16C    basis set group =>   1
Atom  17C    basis set group =>   1
Atom  18C    basis set group =>   1
Atom  19C    basis set group =>   1
Atom  20C    basis set group =>   1
Atom  21Cl   basis set group =>   2
Atom  22H    basis set group =>   4
Atom  23H    basis set group =>   4
Atom  24H    basis set group =>   4
Atom  25H    basis set group =>   4
Atom  26H    basis set group =>   4
Atom  27H    basis set group =>   4
Atom  28H    basis set group =>   4
Atom  29H    basis set group =>   4
Atom  30H    basis set group =>   4
Atom  31H    basis set group =>   4
Atom  32H    basis set group =>   4
Atom  33H    basis set group =>   4


           ************************************************************
           *        Program running with 6 parallel MPI-processes     *
           *              working on a common directory               *
           ************************************************************
------------------------------------------------------------------------------
                             ORCA STARTUP CALCULATIONS
                           -- RI-GTO INTEGRALS CHOSEN --
------------------------------------------------------------------------------
------------------------------------------------------------------------------
                   ___                                                        
                  /   \      - P O W E R E D   B Y -                         
                 /     \                                                     
                 |  |  |   _    _      __       _____    __    __             
                 |  |  |  | |  | |    /  \     |  _  \  |  |  /  |          
                  \  \/   | |  | |   /    \    | | | |  |  | /  /          
                 / \  \   | |__| |  /  /\  \   | |_| |  |  |/  /          
                |  |  |   |  __  | /  /__\  \  |    /   |      \           
                |  |  |   | |  | | |   __   |  |    \   |  |\   \          
                \     /   | |  | | |  |  |  |  | |\  \  |  | \   \       
                 \___/    |_|  |_| |__|  |__|  |_| \__\ |__|  \__/        
                                                                              
                      - O R C A' S   B I G   F R I E N D -                    
                                      &                                       
                       - I N T E G R A L  F E E D E R -                       
                                                                              
 v1 FN, 2020, v2 2021, v3 2022-2024                                           
------------------------------------------------------------------------------


----------------------
SHARK INTEGRAL PACKAGE
----------------------

Number of atoms                             ...     34
Number of basis functions                   ...    384
Number of shells                            ...    176
Maximum angular momentum                    ...      2
Integral batch strategy                     ... SHARK/LIBINT Hybrid
RI-J (if used) integral strategy            ... SPLIT-RIJ (Revised 2003 algorithm where possible)
Printlevel                                  ...      1
Contraction scheme used                     ... SEGMENTED contraction
Prescreening option                         ... SCHWARTZ
   Thresh                                   ... 2.500e-11
   Tcut                                     ... 2.500e-12
   Tpresel                                  ... 2.500e-12 
Coulomb Range Separation                    ... NOT USED
Exchange Range Separation                   ... NOT USED
Multipole approximations                    ... NOT USED
Finite Nucleus Model                        ... NOT USED
CABS basis                                  ... NOT available
Auxiliary Coulomb fitting basis             ... AVAILABLE
   # of basis functions in Aux-J            ...   1218
   # of shells in Aux-J                     ...    398
   Maximum angular momentum in Aux-J        ...      4
Auxiliary J/K fitting basis                 ... NOT available
Auxiliary Correlation fitting basis         ... NOT available
Auxiliary 'external' fitting basis          ... NOT available

Checking pre-screening integrals            ... done (  0.0 sec) Dimension = 176
Check shell pair data                       ... done (  0.0 sec)
Shell pair information
Shell pair cut-off parameter TPreSel        ...   2.5e-12
Total number of shell pairs                 ...     15576
Shell pairs after pre-screening             ...     11360
Total number of primitive shell pairs       ...     61088
Primitive shell pairs kept                  ...     27410
          la=0 lb=0:   3303 shell pairs
          la=1 lb=0:   4230 shell pairs
          la=1 lb=1:   1402 shell pairs
          la=2 lb=0:   1394 shell pairs
          la=2 lb=1:    889 shell pairs
          la=2 lb=2:    142 shell pairs

Calculating one electron integrals          ... done (  0.0 sec)
Calculating RI/J V-Matrix + Cholesky decomp.... done (  0.1 sec)
Calculating Nuclear repulsion               ... done (  0.0 sec) ENN=   2154.088841878929 Eh

Diagonalization of the overlap matrix:
Smallest eigenvalue                        ... 2.514e-04
Time for diagonalization                   ...    0.024 sec
Threshold for overlap eigenvalues          ... 1.000e-07
Number of eigenvalues below threshold      ... 0
Time for construction of square roots      ...    0.010 sec
Total time needed                          ...    0.036 sec

-------------------
DFT GRID GENERATION
-------------------

General Integration Accuracy     IntAcc      ... 4.388
Radial Grid Type                 RadialGrid  ... OptM3 with GC (2021)
Angular Grid (max. ang.)         AngularGrid ... 4 (Lebedev-302)
Angular grid pruning method      GridPruning ... 4 (adaptive)
Weight generation scheme         WeightScheme... mBecke (2022)
Basis function cutoff            BFCut       ... 1.0000e-11
Integration weight cutoff        WCut        ... 1.0000e-14
Partially contracted basis set               ... off
Rotationally invariant grid construction     ... off
Angular grids for H and He will be reduced by one unit

Total number of grid points                  ...   174666
Total number of batches                      ...     2747
Average number of points per batch           ...       63
Average number of grid points per atom       ...     5137
Initializing property integral containers    ... done (  0.0 sec)

SHARK setup successfully completed in   1.3 seconds

Maximum memory used throughout the entire STARTUP-calculation: 48.2 MB


           ************************************************************
           *        Program running with 6 parallel MPI-processes     *
           *              working on a common directory               *
           ************************************************************
-------------------------------------------------------------------------------
                                 ORCA GUESS
                   Start orbitals & Density for SCF / CASSCF
-------------------------------------------------------------------------------

------------
SCF SETTINGS
------------
Hamiltonian:
 Density Functional     Method          .... DFT(GTOs)
 Exchange Functional    Exchange        .... B88
   X-Alpha parameter    XAlpha          ....  0.666667
   Becke's b parameter  XBeta           ....  0.004200
 Correlation Functional Correlation     .... LYP
 LDA part of GGA corr.  LDAOpt          .... VWN-5
 Gradients option       PostSCFGGA      .... off
 Hybrid DFT is turned on
   Fraction HF Exchange ScalHFX         ....  0.200000
   Scaling of DF-GGA-X  ScalDFX         ....  0.720000
   Scaling of DF-GGA-C  ScalDFC         ....  0.810000
   Scaling of DF-LDA-C  ScalLDAC        ....  1.000000
   Perturbative correction              ....  0.000000
   NL short-range parameter             ....  4.800000
 RI-approximation to the Coulomb term is turned on
   Number of AuxJ basis functions       .... 1218
   RIJ-ON(X) (HFX calculated with O(N)) .... on


General Settings:
 Integral files         IntName         .... data/geom_opt/121600/121600
 Hartree-Fock type      HFTyp           .... RHF
 Total Charge           Charge          ....    0
 Multiplicity           Mult            ....    1
 Number of Electrons    NEL             ....  186
 Basis Dimension        Dim             ....  384
 Nuclear Repulsion      ENuc            ....   2154.0888418789 Eh

Convergence Acceleration:
 AO-DIIS                CNVDIIS         .... on
   Start iteration      DIISMaxIt       ....    12
   Startup error        DIISStart       ....  0.200000
   # of expansion vecs  DIISMaxEq       ....     5
   Bias factor          DIISBfac        ....   1.050
   Max. coefficient     DIISMaxC        ....  10.000
 MO-DIIS                CNVKDIIS        .... off
 Trust-Rad. Augm. Hess. CNVTRAH         .... auto
   Auto Start mean grad. ratio tolernc. ....  1.125000
   Auto Start start iteration           ....    50
   Auto Start num. interpolation iter.  ....    10
   Max. Number of Micro iterations      ....    24
   Max. Number of Macro iterations      .... Maxiter - #DIIS iter
   Number of Davidson start vectors     ....     2
   Converg. threshold    (grad. norm)   ....   1.000e-05
   Grad. Scal. Fac. for Micro threshold ....   0.100
   Minimum threshold for Micro iter.    ....   1.000e-02
   NR start threshold (gradient norm)   ....   1.000e-04
   Initial trust radius                 ....   0.400
   Minimum AH scaling param. (alpha)    ....   1.000
   Maximum AH scaling param. (alpha)    .... 1000.000
   Quad. conv. algorithm                .... NR
   White noise on init. David. guess    .... on
   Maximum white noise                  ....   0.010
   Pseudo random numbers                .... off
   Inactive MOs                         .... canonical
   Orbital update algorithm             .... Taylor
   Preconditioner                       .... Diag
   Full preconditioner red. dimension   ....   250
   COSX micro iterations for RIJONX calc.... off
 SOSCF                  CNVSOSCF        .... on
   Start iteration      SOSCFMaxIt      ....   150
   Startup grad/error   SOSCFStart      ....  0.003300
   Hessian update       SOSCFHessUp     .... L-BFGS
 Level Shifting         CNVShift        .... on
   Level shift para.    LevelShift      ....    0.2500
   Turn off err/grad.   ShiftErr        ....    0.0010
 Zerner damping         CNVZerner       .... off
 Static damping         CNVDamp         .... on
   Fraction old density DampFac         ....    0.7000
   Max. Damping (<1)    DampMax         ....    0.9800
   Min. Damping (>=0)   DampMin         ....    0.0000
   Turn off err/grad.   DampErr         ....    0.1000

SCF Procedure:
 Maximum # iterations   MaxIter         ....   125
 SCF integral mode      SCFMode         .... Direct
   Integral package                     .... SHARK and LIBINT hybrid scheme
 Reset frequency        DirectResetFreq ....    20
 Integral Threshold     Thresh          ....  2.500e-11 Eh
 Primitive CutOff       TCut            ....  2.500e-12 Eh

Convergence Tolerance:
 Convergence Check Mode ConvCheckMode   .... Total+1el-Energy
 Convergence forced     ConvForced      .... 0
 Energy Change          TolE            ....  1.000e-08 Eh
 1-El. energy change                    ....  1.000e-05 Eh
 Orbital Gradient       TolG            ....  1.000e-05
 Orbital Rotation angle TolX            ....  1.000e-05
 DIIS Error             TolErr          ....  5.000e-07

------------------------------
INITIAL GUESS: MODEL POTENTIAL
------------------------------
Loading Hartree-Fock densities                     ... done
Calculating cut-offs                               ... done
Initializing the effective Hamiltonian             ... done
Setting up the integral package (SHARK)            ... done
Starting the Coulomb interaction                   ... done (   0.1 sec)
Making the grid                                    ... done (   0.3 sec)
Mapping shells                                     ... done
Starting the XC term evaluation                    ... done (   0.2 sec)
  promolecular density results
     # of electrons  =    185.991939697
     EX              =   -201.358567995
     EC              =     -6.792214582
     EX+EC           =   -208.150782577
Transforming the Hamiltonian                       ... done (   0.0 sec)
Diagonalizing the Hamiltonian                      ... done (   0.0 sec)
Back transforming the eigenvectors                 ... done (   0.0 sec)
Now organizing SCF variables                       ... done
                      ------------------
                      INITIAL GUESS DONE (   0.7 sec)
                      ------------------
             **** ENERGY FILE WAS UPDATED (data/geom_opt/121600/121600.en.tmp) ****
Finished Guess after   0.8 sec
Maximum memory used throughout the entire GUESS-calculation: 26.9 MB


           ************************************************************
           *        Program running with 6 parallel MPI-processes     *
           *              working on a common directory               *
           ************************************************************

-------------------------------------------------------------------------------------------
                                      ORCA LEAN-SCF
                              memory conserving SCF solver
-------------------------------------------------------------------------------------------

----------------------------------------D-I-I-S--------------------------------------------
Iteration    Energy (Eh)           Delta-E    RMSDP     MaxDP     DIISErr   Damp  Time(sec)
-------------------------------------------------------------------------------------------
               ***  Starting incremental Fock matrix formation  ***
    1    -2413.0308156898049674     0.00e+00  2.29e-03  5.71e-02  1.21e-01  0.700   5.0
    2    -2413.2050550935368847    -1.74e-01  1.61e-03  3.65e-02  6.07e-02  0.700   4.8
                               ***Turning on AO-DIIS***
    3    -2413.2777529619747838    -7.27e-02  7.66e-04  3.13e-02  2.81e-02  0.700   4.5
    4    -2413.3197541431195532    -4.20e-02  1.55e-03  7.41e-02  1.53e-02  0.000   4.1
    5    -2413.4109114764710284    -9.12e-02  2.18e-04  8.13e-03  5.48e-03  0.000   4.3
                              *** Initializing SOSCF ***
---------------------------------------S-O-S-C-F--------------------------------------
Iteration    Energy (Eh)           Delta-E    RMSDP     MaxDP     MaxGrad    Time(sec)
--------------------------------------------------------------------------------------
    6    -2413.4115493327158219    -6.38e-04  7.17e-05  2.24e-03  1.14e-03     4.1
               *** Restarting incremental Fock matrix formation ***
    7    -2413.4115943898227670    -4.51e-05  4.73e-05  1.17e-03  1.76e-04     5.4
    8    -2413.4115927925263350     1.60e-06  2.05e-05  7.95e-04  3.52e-04     3.3
    9    -2413.4115994984890676    -6.71e-06  1.48e-05  6.92e-04  1.05e-04     3.0
   10    -2413.4115991860667236     3.12e-07  7.53e-06  2.00e-04  1.26e-04     3.2
   11    -2413.4116000831359088    -8.97e-07  3.15e-06  1.33e-04  1.43e-05     3.1
   12    -2413.4116000566978073     2.64e-08  1.68e-06  6.44e-05  2.36e-05     2.8
   13    -2413.4116000946428358    -3.79e-08  1.02e-06  6.57e-05  5.19e-06     2.4
   14    -2413.4116000919307226     2.71e-09  5.42e-07  3.67e-05  5.51e-06     2.2
                 **** Energy Check signals convergence ****

               *****************************************************
               *                     SUCCESS                       *
               *           SCF CONVERGED AFTER  14 CYCLES          *
               *****************************************************

             **** ENERGY FILE WAS UPDATED (data/geom_opt/121600/121600.en.tmp) ****

----------------
TOTAL SCF ENERGY
----------------

Total Energy       :      -2413.41160009193072 Eh          -65672.26835 eV

Components:
Nuclear Repulsion  :       2154.08884187892863 Eh           58615.73735 eV
Electronic Energy  :      -4567.50044197085936 Eh         -124288.00571 eV
One Electron Energy:      -7600.11294137046116 Eh         -206809.58713 eV
Two Electron Energy:       3032.61249939960180 Eh           82521.58142 eV

Virial components:
Potential Energy   :      -4816.22999570831598 Eh         -131056.28096 eV
Kinetic Energy     :       2402.81839561638481 Eh           65384.01260 eV
Virial Ratio       :          2.00440865797218

DFT components:
N(Alpha)           :       92.999923479549 electrons
N(Beta)            :       92.999923479549 electrons
N(Total)           :      185.999846959097 electrons
E(X)               :     -160.956009044990 Eh       
E(C)               :       -7.974827133073 Eh       
E(XC)              :     -168.930836178063 Eh       

---------------
SCF CONVERGENCE
---------------

  Last Energy change         ...   -2.7121e-09  Tolerance :   1.0000e-08
  Last MAX-Density change    ...    3.6654e-05  Tolerance :   1.0000e-07
  Last RMS-Density change    ...    5.4202e-07  Tolerance :   5.0000e-09
  Last DIIS Error            ...    1.1436e-03  Tolerance :   5.0000e-07
  Last Orbital Gradient      ...    5.5095e-06  Tolerance :   1.0000e-05
  Last Orbital Rotation      ...    1.0686e-05  Tolerance :   1.0000e-05


----------------
ORBITAL ENERGIES
----------------

  NO   OCC          E(Eh)            E(eV) 
   0   2.0000    -101.505909     -2762.1162 
   1   2.0000    -101.505479     -2762.1045 
   2   2.0000    -101.502861     -2762.0333 
   3   2.0000     -77.062664     -2096.9817 
   4   2.0000     -10.248776      -278.8834 
   5   2.0000     -10.248769      -278.8832 
   6   2.0000     -10.245693      -278.7995 
   7   2.0000     -10.208246      -277.7805 
   8   2.0000     -10.208165      -277.7783 
   9   2.0000     -10.208077      -277.7759 
  10   2.0000     -10.207595      -277.7628 
  11   2.0000     -10.207124      -277.7500 
  12   2.0000     -10.206867      -277.7430 
  13   2.0000     -10.205880      -277.7161 
  14   2.0000     -10.205455      -277.7046 
  15   2.0000     -10.204894      -277.6893 
  16   2.0000     -10.204195      -277.6702 
  17   2.0000     -10.203601      -277.6541 
  18   2.0000     -10.203367      -277.6477 
  19   2.0000     -10.202470      -277.6233 
  20   2.0000     -10.200952      -277.5820 
  21   2.0000     -10.200620      -277.5730 
  22   2.0000      -9.461014      -257.4473 
  23   2.0000      -9.460580      -257.4355 
  24   2.0000      -9.457960      -257.3642 
  25   2.0000      -7.229909      -196.7358 
  26   2.0000      -7.229510      -196.7250 
  27   2.0000      -7.226869      -196.6531 
  28   2.0000      -7.220300      -196.4743 
  29   2.0000      -7.219888      -196.4631 
  30   2.0000      -7.219855      -196.4622 
  31   2.0000      -7.219429      -196.4507 
  32   2.0000      -7.217242      -196.3912 
  33   2.0000      -7.216830      -196.3799 
  34   2.0000      -6.559346      -178.4889 
  35   2.0000      -4.724807      -128.5685 
  36   2.0000      -4.724694      -128.5655 
  37   2.0000      -4.721777      -128.4861 
  38   2.0000      -0.896002       -24.3814 
  39   2.0000      -0.894655       -24.3448 
  40   2.0000      -0.891683       -24.2639 
  41   2.0000      -0.844974       -22.9929 
  42   2.0000      -0.836680       -22.7672 
  43   2.0000      -0.834802       -22.7161 
  44   2.0000      -0.778351       -21.1800 
  45   2.0000      -0.756021       -20.5724 
  46   2.0000      -0.753110       -20.4932 
  47   2.0000      -0.733088       -19.9483 
  48   2.0000      -0.731332       -19.9006 
  49   2.0000      -0.728842       -19.8328 
  50   2.0000      -0.665771       -18.1165 
  51   2.0000      -0.619087       -16.8462 
  52   2.0000      -0.618593       -16.8328 
  53   2.0000      -0.607282       -16.5250 
  54   2.0000      -0.599990       -16.3266 
  55   2.0000      -0.598026       -16.2731 
  56   2.0000      -0.560307       -15.2467 
  57   2.0000      -0.525060       -14.2876 
  58   2.0000      -0.524348       -14.2682 
  59   2.0000      -0.508372       -13.8335 
  60   2.0000      -0.484507       -13.1841 
  61   2.0000      -0.481122       -13.0920 
  62   2.0000      -0.477644       -12.9974 
  63   2.0000      -0.462704       -12.5908 
  64   2.0000      -0.460891       -12.5415 
  65   2.0000      -0.455092       -12.3837 
  66   2.0000      -0.439029       -11.9466 
  67   2.0000      -0.435888       -11.8611 
  68   2.0000      -0.435011       -11.8373 
  69   2.0000      -0.429243       -11.6803 
  70   2.0000      -0.420808       -11.4508 
  71   2.0000      -0.405919       -11.0456 
  72   2.0000      -0.402359       -10.9488 
  73   2.0000      -0.400143       -10.8884 
  74   2.0000      -0.387128       -10.5343 
  75   2.0000      -0.372489       -10.1359 
  76   2.0000      -0.368803       -10.0356 
  77   2.0000      -0.367985       -10.0134 
  78   2.0000      -0.355251        -9.6669 
  79   2.0000      -0.350082        -9.5262 
  80   2.0000      -0.340900        -9.2764 
  81   2.0000      -0.336829        -9.1656 
  82   2.0000      -0.333205        -9.0670 
  83   2.0000      -0.313264        -8.5244 
  84   2.0000      -0.310723        -8.4552 
  85   2.0000      -0.309209        -8.4140 
  86   2.0000      -0.286378        -7.7927 
  87   2.0000      -0.280137        -7.6229 
  88   2.0000      -0.269862        -7.3433 
  89   2.0000      -0.254549        -6.9266 
  90   2.0000      -0.249553        -6.7907 
  91   2.0000      -0.248161        -6.7528 
  92   2.0000      -0.223757        -6.0887 
  93   0.0000      -0.048059        -1.3078 
  94   0.0000      -0.034791        -0.9467 
  95   0.0000      -0.027866        -0.7583 
  96   0.0000      -0.027140        -0.7385 
  97   0.0000      -0.023015        -0.6263 
  98   0.0000      -0.012161        -0.3309 
  99   0.0000       0.039507         1.0750 
 100   0.0000       0.041057         1.1172 
 101   0.0000       0.043724         1.1898 
 102   0.0000       0.074169         2.0182 
 103   0.0000       0.080057         2.1785 
*Only the first 10 virtual orbitals were printed.

                    ********************************
                    * MULLIKEN POPULATION ANALYSIS *
                    ********************************

-----------------------
MULLIKEN ATOMIC CHARGES
-----------------------
   0 C :    0.019700
   1 C :    0.008216
   2 C :   -0.129443
   3 C :    0.016342
   4 C :    0.062280
   5 C :    0.025697
   6 Cl:   -0.091075
   7 P :    0.354971
   8 C :   -0.143168
   9 C :    0.034655
  10 C :    0.062641
  11 C :    0.035774
  12 C :    0.021453
  13 C :    0.038905
  14 Cl:   -0.089039
  15 C :   -0.134891
  16 C :    0.023055
  17 C :    0.064796
  18 C :    0.028927
  19 C :    0.019827
  20 C :    0.034180
  21 Cl:   -0.090928
  22 H :   -0.010270
  23 H :   -0.012307
  24 H :   -0.014064
  25 H :   -0.020645
  26 H :   -0.022014
  27 H :   -0.016394
  28 H :   -0.009706
  29 H :   -0.018542
  30 H :   -0.005809
  31 H :   -0.018465
  32 H :   -0.009091
  33 H :   -0.015567
Sum of atomic charges:   -0.0000000

--------------------------------
MULLIKEN REDUCED ORBITAL CHARGES
--------------------------------
  0 C s       :     3.162573  s :     3.162573
      pz      :     0.974314  p :     2.782138
      px      :     0.845806
      py      :     0.962017
      dz2     :     0.004785  d :     0.035589
      dxz     :     0.004225
      dyz     :     0.006055
      dx2y2   :     0.011351
      dxy     :     0.009174

  1 C s       :     3.209313  s :     3.209313
      pz      :     0.956541  p :     2.747899
      px      :     0.923412
      py      :     0.867946
      dz2     :     0.003125  d :     0.034573
      dxz     :     0.006814
      dyz     :     0.003960
      dx2y2   :     0.010102
      dxy     :     0.010572

  2 C s       :     3.062139  s :     3.062139
      pz      :     0.991219  p :     3.030595
      px      :     1.019275
      py      :     1.020100
      dz2     :     0.004476  d :     0.036710
      dxz     :     0.006969
      dyz     :     0.005263
      dx2y2   :     0.009337
      dxy     :     0.010665

  3 C s       :     3.290858  s :     3.290858
      pz      :     0.971849  p :     2.658668
      px      :     0.808239
      py      :     0.878580
      dz2     :     0.004403  d :     0.034133
      dxz     :     0.004115
      dyz     :     0.005760
      dx2y2   :     0.010134
      dxy     :     0.009720

  4 C s       :     2.970902  s :     2.970902
      pz      :     1.005293  p :     2.913034
      px      :     1.020925
      py      :     0.886816
      dz2     :     0.005764  d :     0.053784
      dxz     :     0.009352
      dyz     :     0.008223
      dx2y2   :     0.015170
      dxy     :     0.015275

  5 C s       :     3.227743  s :     3.227743
      pz      :     0.959303  p :     2.712006
      px      :     0.904083
      py      :     0.848620
      dz2     :     0.003674  d :     0.034554
      dxz     :     0.006384
      dyz     :     0.004369
      dx2y2   :     0.009833
      dxy     :     0.010294

  6 Cls       :     5.941458  s :     5.941458
      pz      :     3.802148  p :    11.111255
      px      :     3.859858
      py      :     3.449249
      dz2     :     0.005418  d :     0.038362
      dxz     :     0.003300
      dyz     :     0.011454
      dx2y2   :     0.009058
      dxy     :     0.009133

  7 P s       :     5.654682  s :     5.654682
      pz      :     3.339365  p :     8.810866
      px      :     2.736308
      py      :     2.735194
      dz2     :     0.013731  d :     0.179481
      dxz     :     0.040701
      dyz     :     0.034179
      dx2y2   :     0.038548
      dxy     :     0.052321

  8 C s       :     3.072753  s :     3.072753
      pz      :     1.000584  p :     3.033415
      px      :     1.015610
      py      :     1.017221
      dz2     :     0.009974  d :     0.037000
      dxz     :     0.012603
      dyz     :     0.005787
      dx2y2   :     0.004763
      dxy     :     0.003873

  9 C s       :     3.297712  s :     3.297712
      pz      :     0.792872  p :     2.633267
      px      :     0.870747
      py      :     0.969648
      dz2     :     0.009175  d :     0.034365
      dxz     :     0.010400
      dyz     :     0.002481
      dx2y2   :     0.005743
      dxy     :     0.006565

 10 C s       :     2.970812  s :     2.970812
      pz      :     0.984685  p :     2.913055
      px      :     0.883666
      py      :     1.044704
      dz2     :     0.012566  d :     0.053492
      dxz     :     0.018312
      dyz     :     0.007377
      dx2y2   :     0.007673
      dxy     :     0.007564

 11 C s       :     3.228332  s :     3.228332
      pz      :     0.917397  p :     2.701250
      px      :     0.808339
      py      :     0.975514
      dz2     :     0.010108  d :     0.034644
      dxz     :     0.010806
      dyz     :     0.005777
      dx2y2   :     0.004542
      dxy     :     0.003412

 12 C s       :     3.164349  s :     3.164349
      pz      :     0.840918  p :     2.778897
      px      :     0.959229
      py      :     0.978751
      dz2     :     0.009861  d :     0.035301
      dxz     :     0.010768
      dyz     :     0.002535
      dx2y2   :     0.005721
      dxy     :     0.006415

 13 C s       :     3.206629  s :     3.206629
      pz      :     0.921906  p :     2.719476
      px      :     0.835541
      py      :     0.962028
      dz2     :     0.009050  d :     0.034990
      dxz     :     0.012918
      dyz     :     0.005160
      dx2y2   :     0.004303
      dxy     :     0.003560

 14 Cls       :     5.941786  s :     5.941786
      pz      :     3.751019  p :    11.108826
      px      :     3.448675
      py      :     3.909133
      dz2     :     0.003787  d :     0.038427
      dxz     :     0.014898
      dyz     :     0.003040
      dx2y2   :     0.009517
      dxy     :     0.007185

 15 C s       :     3.072944  s :     3.072944
      pz      :     0.995123  p :     3.024997
      px      :     1.011452
      py      :     1.018421
      dz2     :     0.008950  d :     0.036950
      dxz     :     0.005692
      dyz     :     0.010698
      dx2y2   :     0.006016
      dxy     :     0.005594

 16 C s       :     3.283698  s :     3.283698
      pz      :     0.873005  p :     2.658783
      px      :     0.951827
      py      :     0.833951
      dz2     :     0.007146  d :     0.034464
      dxz     :     0.004739
      dyz     :     0.010675
      dx2y2   :     0.005937
      dxy     :     0.005967

 17 C s       :     2.971116  s :     2.971116
      pz      :     0.866501  p :     2.910441
      px      :     0.992842
      py      :     1.051098
      dz2     :     0.012983  d :     0.053646
      dxz     :     0.009162
      dyz     :     0.013513
      dx2y2   :     0.008889
      dxy     :     0.009099

 18 C s       :     3.229599  s :     3.229599
      pz      :     0.902908  p :     2.706859
      px      :     0.948735
      py      :     0.855215
      dz2     :     0.007903  d :     0.034615
      dxz     :     0.005252
      dyz     :     0.010181
      dx2y2   :     0.005538
      dxy     :     0.005741

 19 C s       :     3.163893  s :     3.163893
      pz      :     0.927804  p :     2.780976
      px      :     0.969820
      py      :     0.883352
      dz2     :     0.007688  d :     0.035305
      dxz     :     0.005087
      dyz     :     0.010485
      dx2y2   :     0.006486
      dxy     :     0.005559

 20 C s       :     3.209511  s :     3.209511
      pz      :     0.870416  p :     2.721617
      px      :     0.934145
      py      :     0.917056
      dz2     :     0.006691  d :     0.034692
      dxz     :     0.004193
      dyz     :     0.009520
      dx2y2   :     0.007052
      dxy     :     0.007236

 21 Cls       :     5.941459  s :     5.941459
      pz      :     3.408935  p :    11.111066
      px      :     3.751187
      py      :     3.950944
      dz2     :     0.014236  d :     0.038403
      dxz     :     0.014878
      dyz     :     0.004658
      dx2y2   :     0.003066
      dxy     :     0.001565

 22 H s       :     0.987232  s :     0.987232
      pz      :     0.004476  p :     0.023037
      px      :     0.014751
      py      :     0.003810

 23 H s       :     0.989121  s :     0.989121
      pz      :     0.006684  p :     0.023186
      px      :     0.005131
      py      :     0.011371

 24 H s       :     0.990363  s :     0.990363
      pz      :     0.004593  p :     0.023701
      px      :     0.014989
      py      :     0.004118

 25 H s       :     0.997440  s :     0.997440
      pz      :     0.005877  p :     0.023205
      px      :     0.007805
      py      :     0.009523

 26 H s       :     0.998655  s :     0.998655
      pz      :     0.015389  p :     0.023359
      px      :     0.003401
      py      :     0.004569

 27 H s       :     0.993243  s :     0.993243
      pz      :     0.005814  p :     0.023152
      px      :     0.012624
      py      :     0.004714

 28 H s       :     0.986684  s :     0.986684
      pz      :     0.015064  p :     0.023022
      px      :     0.003361
      py      :     0.004597

 29 H s       :     0.995314  s :     0.995314
      pz      :     0.006986  p :     0.023228
      px      :     0.011356
      py      :     0.004886

 30 H s       :     0.982248  s :     0.982248
      pz      :     0.007338  p :     0.023561
      px      :     0.004982
      py      :     0.011241

 31 H s       :     0.995307  s :     0.995307
      pz      :     0.005010  p :     0.023157
      px      :     0.005554
      py      :     0.012594

 32 H s       :     0.986044  s :     0.986044
      pz      :     0.007012  p :     0.023047
      px      :     0.004708
      py      :     0.011327

 33 H s       :     0.992443  s :     0.992443
      pz      :     0.012475  p :     0.023125
      px      :     0.007225
      py      :     0.003425



                     *******************************
                     * LOEWDIN POPULATION ANALYSIS *
                     *******************************

----------------------
LOEWDIN ATOMIC CHARGES
----------------------
   0 C :   -0.015029
   1 C :   -0.033369
   2 C :   -0.174606
   3 C :   -0.050064
   4 C :   -0.123432
   5 C :   -0.042417
   6 Cl:    0.127525
   7 P :    0.529370
   8 C :   -0.175162
   9 C :   -0.041052
  10 C :   -0.126419
  11 C :   -0.030992
  12 C :   -0.015087
  13 C :   -0.019286
  14 Cl:    0.129540
  15 C :   -0.170151
  16 C :   -0.044126
  17 C :   -0.125398
  18 C :   -0.035036
  19 C :   -0.015575
  20 C :   -0.025956
  21 Cl:    0.127178
  22 H :    0.031723
  23 H :    0.026410
  24 H :    0.028302
  25 H :    0.030029
  26 H :    0.027535
  27 H :    0.031765
  28 H :    0.032041
  29 H :    0.026431
  30 H :    0.026795
  31 H :    0.030996
  32 H :    0.031867
  33 H :    0.025650

-------------------------------
LOEWDIN REDUCED ORBITAL CHARGES
-------------------------------
  0 C s       :     2.859707  s :     2.859707
      pz      :     0.982115  p :     3.063573
      px      :     1.039539
      py      :     1.041919
      dz2     :     0.010570  d :     0.091750
      dxz     :     0.009831
      dyz     :     0.015455
      dx2y2   :     0.030217
      dxy     :     0.025677

  1 C s       :     2.862705  s :     2.862705
      pz      :     0.993008  p :     3.080231
      px      :     1.055317
      py      :     1.031906
      dz2     :     0.007153  d :     0.090433
      dxz     :     0.016154
      dyz     :     0.009243
      dx2y2   :     0.028518
      dxy     :     0.029364

  2 C s       :     2.913442  s :     2.913442
      pz      :     1.005122  p :     3.169528
      px      :     1.089027
      py      :     1.075379
      dz2     :     0.009469  d :     0.091635
      dxz     :     0.015851
      dyz     :     0.012523
      dx2y2   :     0.026326
      dxy     :     0.027466

  3 C s       :     2.866960  s :     2.866960
      pz      :     1.000086  p :     3.092488
      px      :     1.044534
      py      :     1.047868
      dz2     :     0.009694  d :     0.090616
      dxz     :     0.009627
      dyz     :     0.015169
      dx2y2   :     0.028640
      dxy     :     0.027485

  4 C s       :     2.901604  s :     2.901604
      pz      :     1.019057  p :     3.095898
      px      :     1.101045
      py      :     0.975796
      dz2     :     0.012380  d :     0.125929
      dxz     :     0.020737
      dyz     :     0.017378
      dx2y2   :     0.037631
      dxy     :     0.037803

  5 C s       :     2.863257  s :     2.863257
      pz      :     0.998293  p :     3.088136
      px      :     1.046989
      py      :     1.042854
      dz2     :     0.008420  d :     0.091025
      dxz     :     0.015198
      dyz     :     0.010674
      dx2y2   :     0.027991
      dxy     :     0.028741

  6 Cls       :     5.749695  s :     5.749695
      pz      :     3.789365  p :    11.078404
      px      :     3.832867
      py      :     3.456172
      dz2     :     0.006025  d :     0.044376
      dxz     :     0.003779
      dyz     :     0.013318
      dx2y2   :     0.010540
      dxy     :     0.010714

  7 P s       :     5.238319  s :     5.238319
      pz      :     3.411061  p :     8.984526
      px      :     2.788875
      py      :     2.784590
      dz2     :     0.020292  d :     0.247786
      dxz     :     0.055174
      dyz     :     0.044785
      dx2y2   :     0.053878
      dxy     :     0.073656

  8 C s       :     2.911762  s :     2.911762
      pz      :     1.097294  p :     3.170546
      px      :     1.079529
      py      :     0.993723
      dz2     :     0.027954  d :     0.092854
      dxz     :     0.034567
      dyz     :     0.012195
      dx2y2   :     0.010910
      dxy     :     0.007228

  9 C s       :     2.872495  s :     2.872495
      pz      :     1.046019  p :     3.077519
      px      :     1.061699
      py      :     0.969801
      dz2     :     0.025415  d :     0.091038
      dxz     :     0.029780
      dyz     :     0.004389
      dx2y2   :     0.016989
      dxy     :     0.014465

 10 C s       :     2.901896  s :     2.901896
      pz      :     1.073119  p :     3.099168
      px      :     0.994105
      py      :     1.031943
      dz2     :     0.033166  d :     0.125356
      dxz     :     0.044368
      dyz     :     0.015074
      dx2y2   :     0.017592
      dxy     :     0.015157

 11 C s       :     2.864775  s :     2.864775
      pz      :     1.053517  p :     3.075229
      px      :     1.053364
      py      :     0.968348
      dz2     :     0.029620  d :     0.090988
      dxz     :     0.030996
      dyz     :     0.012422
      dx2y2   :     0.011476
      dxy     :     0.006475

 12 C s       :     2.860443  s :     2.860443
      pz      :     1.039128  p :     3.063492
      px      :     1.062996
      py      :     0.961368
      dz2     :     0.025943  d :     0.091153
      dxz     :     0.030840
      dyz     :     0.004409
      dx2y2   :     0.015997
      dxy     :     0.013964

 13 C s       :     2.864269  s :     2.864269
      pz      :     1.058738  p :     3.063411
      px      :     1.049327
      py      :     0.955346
      dz2     :     0.026120  d :     0.091606
      dxz     :     0.036550
      dyz     :     0.010956
      dx2y2   :     0.011068
      dxy     :     0.006912

 14 Cls       :     5.749719  s :     5.749719
      pz      :     3.732251  p :    11.076249
      px      :     3.453192
      py      :     3.890807
      dz2     :     0.004134  d :     0.044491
      dxz     :     0.017909
      dyz     :     0.003347
      dx2y2   :     0.011176
      dxy     :     0.007926

 15 C s       :     2.912721  s :     2.912721
      pz      :     1.067144  p :     3.165056
      px      :     1.014060
      py      :     1.083852
      dz2     :     0.021904  d :     0.092374
      dxz     :     0.014780
      dyz     :     0.028659
      dx2y2   :     0.014487
      dxy     :     0.012544

 16 C s       :     2.868701  s :     2.868701
      pz      :     1.038984  p :     3.083878
      px      :     1.002098
      py      :     1.042796
      dz2     :     0.018590  d :     0.091547
      dxz     :     0.012635
      dyz     :     0.029893
      dx2y2   :     0.015385
      dxy     :     0.015045

 17 C s       :     2.902121  s :     2.902121
      pz      :     0.963933  p :     3.097539
      px      :     1.010531
      py      :     1.123074
      dz2     :     0.028819  d :     0.125738
      dxz     :     0.018991
      dyz     :     0.034757
      dx2y2   :     0.022021
      dxy     :     0.021151

 18 C s       :     2.864223  s :     2.864223
      pz      :     1.045191  p :     3.079799
      px      :     0.996233
      py      :     1.038375
      dz2     :     0.020498  d :     0.091014
      dxz     :     0.013765
      dyz     :     0.028647
      dx2y2   :     0.014392
      dxy     :     0.013711

 19 C s       :     2.860120  s :     2.860120
      pz      :     1.031134  p :     3.064297
      px      :     0.985815
      py      :     1.047347
      dz2     :     0.019760  d :     0.091158
      dxz     :     0.013208
      dyz     :     0.028050
      dx2y2   :     0.016564
      dxy     :     0.013577

 20 C s       :     2.865942  s :     2.865942
      pz      :     1.023342  p :     3.069264
      px      :     0.983196
      py      :     1.062727
      dz2     :     0.017454  d :     0.090750
      dxz     :     0.009828
      dyz     :     0.025990
      dx2y2   :     0.019943
      dxy     :     0.017535

 21 Cls       :     5.749762  s :     5.749762
      pz      :     3.419280  p :    11.078572
      px      :     3.741701
      py      :     3.917592
[...]
      py      :     0.999252
      dz2     :     0.016373  d :     0.090860
      dxz     :     0.022092
      dyz     :     0.013475
      dx2y2   :     0.018924
      dxy     :     0.019996

 13 C s       :     2.865352  s :     2.865352
      pz      :     1.030810  p :     3.078085
      px      :     1.040080
      py      :     1.007195
      dz2     :     0.019709  d :     0.091109
      dxz     :     0.025700
      dyz     :     0.015282
      dx2y2   :     0.013450
      dxy     :     0.016969

 14 Cls       :     5.763183  s :     5.763183
      pz      :     3.799156  p :    11.085194
      px      :     3.655418
      py      :     3.630619
      dz2     :     0.004468  d :     0.040853
      dxz     :     0.008448
      dyz     :     0.007341
      dx2y2   :     0.006823
      dxy     :     0.013771

 15 C s       :     2.916353  s :     2.916353
      pz      :     1.047670  p :     3.160425
      px      :     1.028649
      py      :     1.084107
      dz2     :     0.017794  d :     0.091303
      dxz     :     0.013975
      dyz     :     0.023764
      dx2y2   :     0.018457
      dxy     :     0.017312

 16 C s       :     2.870564  s :     2.870564
      pz      :     1.025762  p :     3.086151
      px      :     1.015356
      py      :     1.045034
      dz2     :     0.016716  d :     0.090921
      dxz     :     0.014256
      dyz     :     0.024530
      dx2y2   :     0.017273
      dxy     :     0.018145

 17 C s       :     2.908771  s :     2.908771
      pz      :     0.970563  p :     3.082189
      px      :     0.989333
      py      :     1.122294
      dz2     :     0.022048  d :     0.120892
      dxz     :     0.018470
      dyz     :     0.029777
      dx2y2   :     0.025748
      dxy     :     0.024849

 18 C s       :     2.867954  s :     2.867954
      pz      :     1.027832  p :     3.080260
      px      :     1.011086
      py      :     1.041341
      dz2     :     0.015294  d :     0.089270
      dxz     :     0.012779
      dyz     :     0.024173
      dx2y2   :     0.018264
      dxy     :     0.018759

 19 C s       :     2.862424  s :     2.862424
      pz      :     1.020138  p :     3.062574
      px      :     0.997739
      py      :     1.044698
      dz2     :     0.018401  d :     0.090768
      dxz     :     0.014600
      dyz     :     0.022268
      dx2y2   :     0.019097
      dxy     :     0.016402

 20 C s       :     2.865475  s :     2.865475
      pz      :     1.015628  p :     3.075816
      px      :     0.996144
      py      :     1.064045
      dz2     :     0.013570  d :     0.091112
      dxz     :     0.010952
      dyz     :     0.024069
      dx2y2   :     0.022611
      dxy     :     0.019911

 21 Cls       :     5.763532  s :     5.763532
      pz      :     3.520116  p :    11.086126
      px      :     3.648220
      py      :     3.917790
      dz2     :     0.010817  d :     0.040796
      dxz     :     0.018142
      dyz     :     0.003752
      dx2y2   :     0.005581
      dxy     :     0.002504

 22 H s       :     0.900470  s :     0.900470
      pz      :     0.018025  p :     0.066654
      px      :     0.035621
      py      :     0.013008

 23 H s       :     0.904551  s :     0.904551
      pz      :     0.032025  p :     0.067770
      px      :     0.013776
      py      :     0.021969

 24 H s       :     0.896188  s :     0.896188
      pz      :     0.019105  p :     0.071144
      px      :     0.038544
      py      :     0.013495

 25 H s       :     0.898878  s :     0.898878
      pz      :     0.015903  p :     0.068098
      px      :     0.022230
      py      :     0.029965

 26 H s       :     0.901257  s :     0.901257
      pz      :     0.036447  p :     0.068842
      px      :     0.012814
      py      :     0.019580

 27 H s       :     0.898926  s :     0.898926
      pz      :     0.017195  p :     0.068095
      px      :     0.037016
      py      :     0.013884

 28 H s       :     0.900701  s :     0.900701
      pz      :     0.034637  p :     0.066690
      px      :     0.013207
      py      :     0.018846

 29 H s       :     0.898769  s :     0.898769
      pz      :     0.017573  p :     0.070008
      px      :     0.025745
      py      :     0.026690

 30 H s       :     0.895986  s :     0.895986
      pz      :     0.015267  p :     0.071211
      px      :     0.015854
      py      :     0.040089

 31 H s       :     0.899163  s :     0.899163
      pz      :     0.019599  p :     0.068110
      px      :     0.016723
      py      :     0.031789

 32 H s       :     0.900689  s :     0.900689
      pz      :     0.014680  p :     0.066651
      px      :     0.015164
      py      :     0.036807

 33 H s       :     0.904440  s :     0.904440
      pz      :     0.031473  p :     0.067762
      px      :     0.025387
      py      :     0.010902



                      *****************************
                      * MAYER POPULATION ANALYSIS *
                      *****************************

  NA   - Mulliken gross atomic population
  ZA   - Total nuclear charge
  QA   - Mulliken gross atomic charge
  VA   - Mayer's total valence
  BVA  - Mayer's bonded valence
  FA   - Mayer's free valence

  ATOM       NA         ZA         QA         VA         BVA        FA
  0 C      5.9843     6.0000     0.0157     3.8478     3.8478    -0.0000
  1 C      5.9578     6.0000     0.0422     3.8424     3.8424    -0.0000
  2 C      6.1836     6.0000    -0.1836     3.8247     3.8247    -0.0000
  3 C      5.9568     6.0000     0.0432     3.8844     3.8844    -0.0000
  4 C      5.9464     6.0000     0.0536     3.8639     3.8639    -0.0000
  5 C      5.9644     6.0000     0.0356     3.8795     3.8795    -0.0000
  6 Cl    17.0956    17.0000    -0.0956     1.1286     1.1286    -0.0000
  7 P     14.6248    15.0000     0.3752     2.9357     2.9357    -0.0000
  8 C      6.1829     6.0000    -0.1829     3.8230     3.8230    -0.0000
  9 C      5.9530     6.0000     0.0470     3.8914     3.8914    -0.0000
 10 C      5.9496     6.0000     0.0504     3.8828     3.8828    -0.0000
 11 C      5.9606     6.0000     0.0394     3.8795     3.8795    -0.0000
 12 C      5.9796     6.0000     0.0204     3.8278     3.8278     0.0000
 13 C      5.9677     6.0000     0.0323     3.8522     3.8522    -0.0000
 14 Cl    17.0967    17.0000    -0.0967     1.1247     1.1247    -0.0000
 15 C      6.1794     6.0000    -0.1794     3.8223     3.8223     0.0000
 16 C      5.9585     6.0000     0.0415     3.8862     3.8862     0.0000
 17 C      5.9475     6.0000     0.0525     3.8619     3.8619     0.0000
 18 C      5.9663     6.0000     0.0337     3.8784     3.8784    -0.0000
 19 C      5.9855     6.0000     0.0145     3.8477     3.8477    -0.0000
 20 C      5.9596     6.0000     0.0404     3.8442     3.8442     0.0000
 21 Cl    17.0961    17.0000    -0.0961     1.1280     1.1280    -0.0000
 22 H      1.0051     1.0000    -0.0051     0.9793     0.9793    -0.0000
 23 H      1.0110     1.0000    -0.0110     0.9908     0.9908    -0.0000
 24 H      1.0056     1.0000    -0.0056     1.0149     1.0149    -0.0000
 25 H      1.0138     1.0000    -0.0138     0.9978     0.9978    -0.0000
 26 H      1.0147     1.0000    -0.0147     1.0097     1.0097    -0.0000
 27 H      1.0134     1.0000    -0.0134     0.9976     0.9976     0.0000
 28 H      1.0070     1.0000    -0.0070     0.9792     0.9792     0.0000
 29 H      0.9978     1.0000     0.0022     0.9908     0.9908     0.0000
 30 H      1.0043     1.0000    -0.0043     1.0144     1.0144     0.0000
 31 H      1.0143     1.0000    -0.0143     0.9977     0.9977    -0.0000
 32 H      1.0054     1.0000    -0.0054     0.9792     0.9792     0.0000
 33 H      1.0106     1.0000    -0.0106     0.9906     0.9906     0.0000

  Mayer bond orders larger than 0.100000
B(  0-C ,  1-C ) :   1.3949 B(  0-C ,  5-C ) :   1.3636 B(  0-C , 22-H ) :   0.9815 
B(  1-C ,  2-C ) :   1.3709 B(  1-C , 23-H ) :   0.9843 B(  2-C ,  3-C ) :   1.3601 
B(  2-C ,  7-P ) :   0.9307 B(  3-C ,  4-C ) :   1.3723 B(  3-C , 24-H ) :   0.9842 
B(  4-C ,  5-C ) :   1.3926 B(  4-C ,  6-Cl) :   0.9804 B(  5-C , 25-H ) :   0.9868 
B(  7-P ,  8-C ) :   0.9282 B(  7-P , 15-C ) :   0.9278 B(  8-C ,  9-C ) :   1.3466 
B(  8-C , 13-C ) :   1.3847 B(  9-C , 10-C ) :   1.3996 B(  9-C , 26-H ) :   0.9844 
B( 10-C , 11-C ) :   1.3850 B( 10-C , 14-Cl) :   0.9731 B( 11-C , 12-C ) :   1.3696 
B( 11-C , 27-H ) :   0.9875 B( 12-C , 13-C ) :   1.3748 B( 12-C , 28-H ) :   0.9807 
B( 13-C , 29-H ) :   0.9816 B( 15-C , 16-C ) :   1.3631 B( 15-C , 20-C ) :   1.3700 
B( 16-C , 17-C ) :   1.3710 B( 16-C , 30-H ) :   0.9844 B( 17-C , 18-C ) :   1.3933 
B( 17-C , 21-Cl) :   0.9802 B( 18-C , 19-C ) :   1.3623 B( 18-C , 31-H ) :   0.9870 
B( 19-C , 20-C ) :   1.3967 B( 19-C , 32-H ) :   0.9816 B( 20-C , 33-H ) :   0.9841 


-------
TIMINGS
-------

Total SCF time: 0 days 0 hours 0 min 16 sec 

Total time                  ....      16.687 sec
Sum of individual times     ....      16.607 sec  ( 99.5%)

SCF preparation             ....       0.135 sec  (  0.8%)
Fock matrix formation       ....      16.081 sec  ( 96.4%)
  Startup                   ....       0.019 sec  (  0.1% of F)
  Exchange formation        ....      12.823 sec  ( 79.7% of F)
  Split-RI-J                ....       1.178 sec  (  7.3% of F)
  XC integration            ....       2.003 sec  ( 12.5% of F)
    Basis function eval.    ....       0.541 sec  ( 27.0% of XC)
    Density eval.           ....       0.576 sec  ( 28.8% of XC)
    XC-Functional eval.     ....       0.043 sec  (  2.1% of XC)
    XC-Potential eval.      ....       0.526 sec  ( 26.3% of XC)
Diagonalization             ....       0.000 sec  (  0.0%)
Density matrix formation    ....       0.039 sec  (  0.2%)
Total Energy calculation    ....       0.015 sec  (  0.1%)
Population analysis         ....       0.093 sec  (  0.6%)
Orbital Transformation      ....       0.041 sec  (  0.2%)
Orbital Orthonormalization  ....       0.000 sec  (  0.0%)
DIIS solution               ....       0.052 sec  (  0.3%)
SOSCF solution              ....       0.151 sec  (  0.9%)
Finished LeanSCF after  16.7 sec

Maximum memory used throughout the entire LEANSCF-calculation: 39.6 MB


-------------------------------------------------------------------------------
                          DFT DISPERSION CORRECTION                            
                                                                               
                              DFTD3 V3.1  Rev 1                                
                          USING Becke-Johnson damping                          
-------------------------------------------------------------------------------
The B3LYP functional is recognized
Active option DFTDOPT                   ...         4   

molecular C6(AA) [au] = 23013.591168 


            DFT-D V3
 parameters
 s6 scaling factor         :     1.0000 
 a1 scaling factor         :     0.3981 
 s8 scaling factor         :     1.9889 
 a2 scaling factor         :     4.4211 
 ad hoc parameters k1-k3   :    16.0000     1.3333    -4.0000 

 Edisp/kcal,au: -61.423019614935  -0.097883801921 
 E6   /kcal   : -27.280781891 
 E8   /kcal   : -34.142237724 
 % E8         :  55.585410711 

-------------------------   ----------------
Dispersion correction           -0.097883802
-------------------------   ----------------


-------------------------   --------------------
FINAL SINGLE POINT ENERGY     -2413.514618789181
-------------------------   --------------------

                                *** OPTIMIZATION RUN DONE ***



           ************************************************************
           *        Program running with 6 parallel MPI-processes     *
           *              working on a common directory               *
           ************************************************************

------------------------------------------------------------------------------
                              ORCA PROPERTY CALCULATIONS
------------------------------------------------------------------------------

GBWName                                 ... data/geom_opt/121600/121600.gbw
Number of atoms                         ...     34
Number of basis functions               ...    384
Max core memory                         ...   1024 MB

Electric properties:
Dipole moment                           ... YES
Quadrupole moment                       ...  NO
Static polarizability (Dipole/Dipole)   ...  NO
Static polarizability (Dipole/Quad.)    ...  NO
Static polarizability (Quad./Quad.)     ...  NO
Static polarizability (Velocity)        ...  NO

Atomic electric properties:
Dipole moment                           ...  NO
Quadrupole moment                       ...  NO
Static polarizability                   ...  NO

Choice of electric origin               ... Center of mass
Position of electric origin             ...     0.162733    -0.653262     0.288374

General magnetic properties:
Magnetizability                         ...  NO

EPR properties:
g-Tensor (aka g-matrix)                 ...  NO
Zero-Field splitting spin-orbit         ...  NO
Zero-field splitting spin-spin          ...  NO
Hyperfine couplings                     ...  NO (   0 nuclei)
Quadrupole couplings                    ...  NO (   0 nuclei)
Contact density                         ...  NO (   0 nuclei)

NMR properties:
Chemical shifts                         ...  NO (   0 nuclei)
Spin-rotation constants                 ...  NO (   0 nuclei)
Spin-spin couplings                     ...  NO (   0 nuclei,    0 pairs)

Choice of magnetic origin               ... GIAO
Position of magnetic origin             ...     0.000000     0.000000     0.000000

Properties with geometric perturbations:
SCF Hessian                             ...  NO
IR spectrum                             ...  NO
VCD spectrum                            ...  NO
X-ray spectroscopy properties:
SCF XES/XAS/RIXS spectra                ...  NO


-------------
DIPOLE MOMENT
-------------

Method             : SCF
Type of density    : Electron Density
Multiplicity       :   1
Irrep              :   0
Energy             : -2413.4167349872591330 Eh
Relativity type    : 
Basis              : AO
                                X                 Y                 Z
Electronic contribution:      2.426902983      -9.796511213       4.517509736
Nuclear contribution   :     -2.609018307      10.465752707      -4.614916346
                        -----------------------------------------
Total Dipole Moment    :     -0.182115324       0.669241493      -0.097406611
                        -----------------------------------------
Magnitude (a.u.)       :      0.700384334
Magnitude (Debye)      :      1.780235500



--------------------
Rotational spectrum 
--------------------
 
Rotational constants in cm-1:             0.007523             0.004917             0.003652 
Rotational constants in MHz :           225.534403           147.393705           109.474572 

Dipole components along the rotational axes: 
x,y,z [a.u.] :     0.503537     0.468958    -0.130642 
x,y,z [Debye]:     1.279889     1.191996    -0.332066 

 

Dipole moment calculation done in   0.0 sec 

Maximum memory used throughout the entire PROP-calculation: 20.5 MB

--------------------------------
SUGGESTED CITATIONS FOR THIS RUN
--------------------------------

Below you find a list of papers that are relevant to this ORCA run
We neither can nor want to force you to cite these papers, but we appreciate if you do
You receive ORCA, which is the product of decades of hard work by many enthusiastic individuals, for free
The only thing we kindly ask in return is that you cite our papers,
We deeply appreciate it, if you show your appreciation for ORCA by not just citing the generic ORCA reference.

Please note that relegating all ORCA citations to the supporting information does *not* help us.
SI sections are not indexed - citations you put there will not count into any citation statistics
But we need these citations in order to attract the funding resources that allow us to do what we are doing

Therefore, if you are a happy ORCA user, please consider citing a few of the papers listed below in the main body of your paper

In addition to the list printed below, the program has created the file data/geom_opt/121600/121600.bibtex that contains the list in bibtex format
You can import this file easily into all common literature databanks and citation aid programs


List of essential papers. We consider these as the minimum necessary citations

  1. Neese,F.
     Software update: the ORCA program system, version 5.0
     WIRES Comput. Molec. Sci., 2022 12(1)e1606
     doi.org/10.1002/wcms.1606

List of papers to cite with high priority. The work reported in these papers was absolutely
necessary for this run to complete.
Our perspective: the developers of density functionals and basis sets usually get cited in chemistry papers
Good! But without the algorithms to do something with them, the functionals or basis sets would not do anything.
Hence, in our opinion, the algorithm design and method developments papers are equally worthy of getting cited

  1. Neese,F.
     An improvement of the resolution of the identity approximation for the formation of the Coulomb matrix
     J. Comp. Chem., 2003 24(14)1740-1747
     doi.org/10.1002/jcc.10318
  2. Neese,F.
     The SHARK Integral Generation and Digestion System
     J. Comp. Chem., 2022  1-16
     doi.org/10.1002/jcc.26942
  3. Grimme,S.; Antony,J.; Ehrlich,S.; Krieg,H.
     A consistent and accurate ab initio parametrization of density functional dispersion correction (DFT-D) for the 94 elements H-Pu
     J. Chem. Phys., 2010 132 154104-XXXX
     doi.org/10.1063/1.3382344
  4. Grimme,S.; Ehrlich,S.; Goerigk,L.
     Effect of the damping function in dispersion corrected density functional theory
     J. Comput. Chem., 2011 32(7)1456-1465
     doi.org/10.1002/jcc.21759

List of suggested additional citations. These are papers that are important in the 'surrounding' of 
of this run, or papers that preceded the highly important papers. If you like your results we are grateful for a citation.

  1. Neese,F.
     The ORCA program system
     WIRES Comput. Molec. Sci., 2012 2(1)73-78
     doi.org/10.1002/wcms.81
  2. Neese,F.
     Software update: the ORCA program system, version 4.0
     WIRES Comput. Molec. Sci., 2018 8(1)1-6
     doi.org/10.1002/wcms.1327
  3. Neese,F.; Wennmohs,F.; Becker,U.; Riplinger,C.
     The ORCA quantum chemistry program package
     J. Chem. Phys., 2020 152 Art. No. L224108
     doi.org/10.1063/5.0004608

List of optional additional citations

  1. Neese,F.
     Approximate second-order SCF convergence for spin unrestricted wavefunctions
     Chem. Phys. Lett., 2000 325(1-3)93-98
     doi.org/10.1016/s0009-2614(00)00662-x

Timings for individual modules:

Sum of individual times          ...      710.652 sec (=  11.844 min)
Startup calculation              ...       17.657 sec (=   0.294 min)   2.5 %
SCF iterations                   ...      472.928 sec (=   7.882 min)  66.5 %
Property calculations            ...        0.175 sec (=   0.003 min)   0.0 %
SCF Gradient evaluation          ...      219.712 sec (=   3.662 min)  30.9 %
Geometry relaxation              ...        0.180 sec (=   0.003 min)   0.0 %
                             ****ORCA TERMINATED NORMALLY****
TOTAL RUN TIME: 0 days 0 hours 11 minutes 52 seconds 941 msec
