
                                 *****************
                                 * O   R   C   A *
                                 *****************

                                            #,                                       
                                            ###                                      
                                            ####                                     
                                            #####                                    
                                            ######                                   
                                           ########,                                 
                                     ,,################,,,,,                         
                               ,,#################################,,                 
                          ,,##########################################,,             
                       ,#########################################, ''#####,          
                    ,#############################################,,   '####,        
                  ,##################################################,,,,####,       
                ,###########''''           ''''###############################       
              ,#####''   ,,,,##########,,,,          '''####'''          '####       
            ,##' ,,,,###########################,,,                        '##       
           ' ,,###''''                  '''############,,,                           
         ,,##''                                '''############,,,,        ,,,,,,###''
      ,#''                                            '''#######################'''  
     '                                                          ''''####''''         
             ,#######,   #######,   ,#######,      ##                                
            ,#'     '#,  ##    ##  ,#'     '#,    #''#        ,####,   ,####,        
            ##       ##  ##   ,#'  ##            #'  '#       #'       #'  '#        
            ##       ##  #######   ##           ,######,      #####,   #    #        
            '#,     ,#'  ##    ##  '#,     ,#' ,#      #,     #,   #   #,  ,#        
             '#######'   ##     ##  '#######'  #'      '#     '####' # '####'        



                #########################################################
                #                        -***-                          #
                #          Department of theory and spectroscopy        #
                #                                                       #
                #                      Frank Neese                      #
                #                                                       #
                #     Directorship, Architecture, Infrastructure        #
                #                    SHARK, DRIVERS                     #
                #        Core code/Algorithms in most modules           #
                #                                                       #
                #        Max Planck Institute fuer Kohlenforschung      #
                #                Kaiser Wilhelm Platz 1                 #
                #                 D-45470 Muelheim/Ruhr                 #
                #                      Germany                          #
                #                                                       #
                #                  All rights reserved                  #
                #                        -***-                          #
                #########################################################


                         Program Version 6.0.0  -   RELEASE   -


 With contributions from (in alphabetic order):
   Daniel Aravena         : Magnetic Suceptibility
   Michael Atanasov       : Ab Initio Ligand Field Theory (pilot matlab implementation)
   Alexander A. Auer      : GIAO ZORA, VPT2 properties, NMR spectrum
   Ute Becker             : All parallelization in ORCA, NUMFREQ, NUMCALC
   Giovanni Bistoni       : ED, misc. LED, open-shell LED, HFLD
   Martin Brehm           : Molecular dynamics
   Dmytro Bykov           : pre 5.0 version of the SCF Hessian
   Marcos Casanova-Páez   : Triplet and SCS-CIS(D). UHF-(DLPNO)-IP/EA/STEOM-CCSD. UHF-CVS-IP/STEOM-CCSD
   Vijay G. Chilkuri      : MRCI spin determinant printing, contributions to CSF-ICE
   Pauline Colinet        : FMM embedding
   Dipayan Datta          : RHF DLPNO-CCSD density
   Achintya Kumar Dutta   : EOM-CC, STEOM-CC
   Nicolas Foglia         : Exact transition moments, OPA infrastructure, MCD improvements
   Dmitry Ganyushin       : Spin-Orbit,Spin-Spin,Magnetic field MRCI
   Miquel Garcia          : C-PCM and meta-GGA Hessian, CCSD/C-PCM, Gaussian charge scheme
   Tiago L. C. Gouveia    : GS-ROHF, GS-ROCIS
   Yang Guo               : DLPNO-NEVPT2, F12-NEVPT2, CIM, IAO-localization
   Andreas Hansen         : Spin unrestricted coupled pair/coupled cluster methods
   Ingolf Harden          : AUTO-CI MPn and infrastructure 
   Benjamin Helmich-Paris : MC-RPA, TRAH-(SCF,CASSCF), AVAS, COSX integrals, SCF dyn. polar.
   Lee Huntington         : MR-EOM, pCC
   Robert Izsak           : Overlap fitted RIJCOSX, COSX-SCS-MP3, EOM
   Riya Kayal             : Wick's Theorem for AUTO-CI, AUTO-CI UHF-CCSDT
   Emily Kempfer          : AUTO-CI, RHF CISDT and CCSDT
   Christian Kollmar      : KDIIS, OOCD, Brueckner-CCSD(T), CCSD density, CASPT2, CASPT2-K, improved NEVPT2
   Axel Koslowski         : Symmetry handling
   Simone Kossmann        : Meta GGA functionals, TD-DFT gradient, OOMP2, (MP2 Hessian; deprecated post 5.0)
   Lucas Lang             : DCDCAS
   Marvin Lechner         : AUTO-CI (C++ implementation), FIC-MRCC
   Spencer Leger          : CASSCF response
   Dagmar Lenk            : GEPOL surface, SMD, ORCA-2-JSON
   Dimitrios Liakos       : Extrapolation schemes; Compound Job, initial MDCI parallelization
   Dimitrios Manganas     : Further ROCIS development; embedding schemes. LFT, Crystal Embedding
   Dimitrios Pantazis     : SARC Basis sets
   Anastasios Papadopoulos: AUTO-CI, single reference methods and gradients
   Taras Petrenko         : pre 6.0 DFT Hessian and TD-DFT gradient, (ASA, deprecated), ECA, 1-Electron XAS/XES, NRVS
   Peter Pinski           : DLPNO-MP2, DLPNO-MP2 Gradient
   Christoph Reimann      : Effective Core Potentials
   Marius Retegan         : Local ZFS, SOC
   Christoph Riplinger    : Optimizer, TS searches, QM/MM, DLPNO-CCSD(T), (RO)-DLPNO pert. Triples
   Michael Roemelt        : Original ROCIS implementation
   Masaaki Saitow         : Open-shell DLPNO-CCSD energy and density
   Barbara Sandhoefer     : DKH picture change effects
   Kantharuban Sivalingam : CASSCF convergence/infrastructure, NEVPT2 and variants, FIC-MRCI
   Bernardo de Souza      : ESD, SOC TD-DFT
   Georgi Stoychev        : AutoAux, RI-MP2 NMR, DLPNO-MP2 response, X2C
   Van Anh Tran           : RI-MP2 g-tensors
   Willem Van den Heuvel  : Paramagnetic NMR
   Zikuan Wang            : NOTCH, Electric field optimization 
   Frank Wennmohs         : Technical directorship and infrastructure
   Hang Xu                : AUTO-CI-Response properties 


 We gratefully acknowledge several colleagues who have allowed us to
 interface, adapt or use parts of their codes:
   Stefan Grimme, W. Hujo, H. Kruse, P. Pracht,  : VdW corrections, initial TS optimization,
                  C. Bannwarth, S. Ehlert,         DFT functionals, gCP, sTDA/sTD-DF
                  L. Wittmann, M. Mueller
   Ed Valeev, F. Pavosevic, A. Kumar             : LibInt (2-el integral package), F12 methods
   Garnet Chan, S. Sharma, J. Yang, R. Olivares  : DMRG
   Ulf Ekstrom                                   : XCFun DFT Library
   Mihaly Kallay                                 : mrcc  (arbitrary order and MRCC methods)
   Frank Weinhold                                : gennbo (NPA and NBO analysis)
   Simon Mueller                                 : openCOSMO-RS
   Christopher J. Cramer and Donald G. Truhlar   : smd solvation model
   Lars Goerigk                                  : TD-DFT with DH, B97 family of functionals
   V. Asgeirsson, H. Jonsson                     : NEB implementation
   FAccTs GmbH                                   : IRC, NEB, NEB-TS, DLPNO-Multilevel, CI-OPT
                                                   MM, QMMM, 2- and 3-layer-ONIOM, Crystal-QMMM,
                                                   LR-CPCM, SF, NACMEs, symmetry and pop. for TD-DFT,
                                                   nearIR, NL-DFT gradient (VV10), updates on ESD,
                                                   ML-optimized integration grids, MBIS, APM,
                                                   GOAT, DOCKER, SOLVATOR, interface openCOSMO-RS
   S Lehtola, MJT Oliveira, MAL Marques          : LibXC Library
   Liviu Ungur et al                             : ANISO software


 Your calculation uses the libint2 library for the computation of 2-el integrals
 For citations please refer to: http://libint.valeyev.net

 Your ORCA version has been built with support for libXC version: 6.2.2
 For citations please refer to: https://libxc.gitlab.io

 This ORCA versions uses:
   CBLAS   interface :  Fast vector & matrix operations
   LAPACKE interface :  Fast linear algebra routines
   Shared memory     :  Shared parallel matrices


Your calculation utilizes the atom-pairwise dispersion correction
with the zero-damping scheme (D30)


XCFun DFT library Copyright 2009-2010 Ulf Ekstrom and contributors.
See http://admol.org/xcfun for more information.
This is free software; see the source code for copying conditions.
There is ABSOLUTELY NO WARRANTY; not even for MERCHANTABILITY or FITNESS FOR A PARTICULAR PURPOSE.
For details see the documentation.
Scientific users of this library should cite U. Ekstrom, L. Visscher, R. Bast, A. J. Thorvaldsen and K. Ruud;
J.Chem.Theor.Comp. 2010, DOI: 10.1021/ct100117s
XCFun Version 0.99 

Warning: RI is on but no J-basis has been assigned. Assigning Def2/J (nothing to worry about!)
================================================================================

----- Orbital basis set information -----
Your calculation utilizes the basis: def2-TZVP
   F. Weigend and R. Ahlrichs, Phys. Chem. Chem. Phys. 7, 3297 (2005).

----- AuxJ basis set information -----
Your calculation utilizes the auxiliary basis: def2/J
   F. Weigend, Phys. Chem. Chem. Phys. 8, 1057 (2006).

================================================================================
                                        WARNINGS
                       Please study these warnings very carefully!
================================================================================

WARNING: Functional chosen is sensitive to the integration grid.
         DEFGRID3 seems to be a minimum grid for robust results!

================================================================================
                                       INPUT FILE
================================================================================
NAME = data/single_point_P_M06-2x/603962/603962.inp
|  1> ! RIJCOSX M062X def2-TZVP D3ZERO NormalSCF
|  2> %pal
|  3> nprocs 6
|  4> end
|  5> 
|  6> * xyz 0 1
|  7>   C          -1.73044275800787     -3.71020236960405      0.85421626096512
|  8>   C          -1.31332953488227     -3.86088849286778     -0.47796798096703
|  9>   C          -0.71956069695997     -2.78050461800013     -1.15347751239722
| 10>   C          -0.53270546206262     -1.54417043011401     -0.50077853511466
| 11>   C          -0.95359109799843     -1.40035177628615      0.84057047869267
| 12>   C          -1.55091749355186     -2.47838511292884      1.51031585856681
| 13>   P           0.28408007290656     -0.18033834624557     -1.45703965194320
| 14>   C          -0.78223345318854      1.27782810080973     -0.97298900553859
| 15>   C          -1.55433449513652      1.89595580145477     -1.97680892136800
| 16>   C          -2.35717317778322      2.99497127391684     -1.63438533662925
| 17>   C          -2.35361530481730      3.44120238649356     -0.30508262751356
| 18>   C          -1.55050635902259      2.75660674528291      0.62516103542507
| 19>   N          -0.78573591928651      1.70195244656783      0.30661423359613
| 20>   C           1.74529227524064      0.20137670781457     -0.37724340584838
| 21>   C           2.31946093705783     -0.73030731332455      0.51212453787800
| 22>   C           3.46799001669757     -0.35309557045402      1.22341608624272
| 23>   C           3.99844759109273      0.93115051626045      1.02627305138939
| 24>   C           3.35679148738447      1.77954813413092      0.10617083997317
| 25>   N           2.26565698830982      1.42720355270437     -0.58863074664880
| 26>   H          -2.19816848774808     -4.55443227228164      1.38427950772766
| 27>   H          -1.45272305072257     -4.82251742066269     -0.99581094846799
| 28>   H          -0.39448103882466     -2.89315174298399     -2.20028450858685
| 29>   H          -0.81023387136469     -0.43040122077868      1.34240934511418
| 30>   H          -1.87908152161907     -2.35832772285699      2.55475744410766
| 31>   H          -1.51145502393189      1.51773296278021     -3.00948625786592
| 32>   H          -2.97002421396727      3.50025008275919     -2.39704352698423
| 33>   H          -2.95934689579998      4.30373431533110      0.01120317883691
| 34>   H          -1.52588405830882      3.07685539744740      1.68236237572633
| 35>   H           1.86504026505008     -1.72194662329262      0.65070039423128
| 36>   H           3.93966423069993     -1.05350704941800      1.93050822532869
| 37>   H           4.89370365365747      1.27077138776518      1.56847832532482
| 38>   H           3.74941939688763      2.79538927058065     -0.08253521325293
| 39> **                         ****END OF INPUT****
================================================================================

                       ****************************
                       * Single Point Calculation *
                       ****************************

---------------------------------
CARTESIAN COORDINATES (ANGSTROEM)
---------------------------------
  C     -1.730443   -3.710202    0.854216
  C     -1.313330   -3.860888   -0.477968
  C     -0.719561   -2.780505   -1.153478
  C     -0.532705   -1.544170   -0.500779
  C     -0.953591   -1.400352    0.840570
  C     -1.550917   -2.478385    1.510316
  P      0.284080   -0.180338   -1.457040
  C     -0.782233    1.277828   -0.972989
  C     -1.554334    1.895956   -1.976809
  C     -2.357173    2.994971   -1.634385
  C     -2.353615    3.441202   -0.305083
  C     -1.550506    2.756607    0.625161
  N     -0.785736    1.701952    0.306614
  C      1.745292    0.201377   -0.377243
  C      2.319461   -0.730307    0.512125
  C      3.467990   -0.353096    1.223416
  C      3.998448    0.931151    1.026273
  C      3.356791    1.779548    0.106171
  N      2.265657    1.427204   -0.588631
  H     -2.198168   -4.554432    1.384280
  H     -1.452723   -4.822517   -0.995811
  H     -0.394481   -2.893152   -2.200285
  H     -0.810234   -0.430401    1.342409
  H     -1.879082   -2.358328    2.554757
  H     -1.511455    1.517733   -3.009486
  H     -2.970024    3.500250   -2.397044
  H     -2.959347    4.303734    0.011203
  H     -1.525884    3.076855    1.682362
  H      1.865040   -1.721947    0.650700
  H      3.939664   -1.053507    1.930508
  H      4.893704    1.270771    1.568478
  H      3.749419    2.795389   -0.082535

----------------------------
CARTESIAN COORDINATES (A.U.)
----------------------------
  NO LB      ZA    FRAG     MASS         X           Y           Z
   0 C     6.0000    0    12.011   -3.270063   -7.011266    1.614235
   1 C     6.0000    0    12.011   -2.481833   -7.296022   -0.903229
   2 C     6.0000    0    12.011   -1.359773   -5.254392   -2.179757
   3 C     6.0000    0    12.011   -1.006667   -2.918059   -0.946334
   4 C     6.0000    0    12.011   -1.802026   -2.646281    1.588448
   5 C     6.0000    0    12.011   -2.930809   -4.683469    2.854083
   6 P    15.0000    0    30.974    0.536834   -0.340790   -2.753406
   7 C     6.0000    0    12.011   -1.478207    2.414745   -1.838683
   8 C     6.0000    0    12.011   -2.937267    3.582837   -3.735627
   9 C     6.0000    0    12.011   -4.454412    5.659675   -3.088541
  10 C     6.0000    0    12.011   -4.447688    6.502930   -0.576523
  11 C     6.0000    0    12.011   -2.930032    5.209232    1.181383
  12 N     7.0000    0    14.007   -1.484826    3.216224    0.579417
  13 C     6.0000    0    12.011    3.298124    0.380547   -0.712887
  14 C     6.0000    0    12.011    4.383146   -1.380081    0.967775
  15 C     6.0000    0    12.011    6.553551   -0.667254    2.311921
  16 C     6.0000    0    12.011    7.555971    1.759619    1.939375
  17 C     6.0000    0    12.011    6.343417    3.362859    0.200634
  18 N     7.0000    0    14.007    4.281471    2.697024   -1.112351
  19 H     1.0000    0     1.008   -4.153936   -8.606630    2.615909
  20 H     1.0000    0     1.008   -2.745249   -9.113237   -1.881810
  21 H     1.0000    0     1.008   -0.745461   -5.467264   -4.157935
  22 H     1.0000    0     1.008   -1.531120   -0.813340    2.536786
  23 H     1.0000    0     1.008   -3.550949   -4.456594    4.827792
  24 H     1.0000    0     1.008   -2.856236    2.868100   -5.687105
  25 H     1.0000    0     1.008   -5.612532    6.614514   -4.529756
  26 H     1.0000    0     1.008   -5.592355    8.132879    0.021171
  27 H     1.0000    0     1.008   -2.883503    5.814414    3.179204
  28 H     1.0000    0     1.008    3.524415   -3.254008    1.229646
  29 H     1.0000    0     1.008    7.444886   -1.990840    3.648132
  30 H     1.0000    0     1.008    9.247760    2.401410    2.963994
  31 H     1.0000    0     1.008    7.085376    5.282520   -0.155969

--------------------------------
INTERNAL COORDINATES (ANGSTROEM)
--------------------------------
 C      0   0   0     0.000000000000     0.00000000     0.00000000
 C      1   0   0     1.404067164741     0.00000000     0.00000000
 C      2   1   0     1.405739619209   119.92952345     0.00000000
 C      3   2   1     1.410479726154   120.48086942     0.30009096
 C      4   3   2     1.413168673785   119.27366247   359.77437037
 C      5   4   3     1.402680851655   120.12072182   359.95491094
 P      4   3   2     1.855158183736   117.65765043   179.01093457
 C      7   4   3     1.870181529033   100.87986267   137.37866878
 C      8   7   4     1.409211232107   118.03575451   245.48209136
 C      9   8   7     1.403438231790   118.88893256   180.23922756
 C     10   9   8     1.402205604308   118.62391548     0.37554425
 C     11  10   9     1.406772349464   118.25930123   359.52411508
 N     12  11  10     1.341134437798   123.44743358     0.17472250
 C      7   4   3     1.856557948416   101.41276083   237.86872371
 C     14   7   4     1.410205696623   123.46427923    25.08054352
 C     15  14   7     1.402620195389   118.39442043   176.49443254
 C     16  15  14     1.403402517336   118.97116656     0.11207731
 C     17  16  15     1.406445574094   118.12909724   359.27631439
 N     18  17  16     1.340697745170   123.49091791     0.14868260
 H      1   2   3     1.101116947651   120.04287415   179.83912170
 H      2   1   3     1.101054987737   120.15615094   180.16899978
 H      3   2   1     1.101894299002   120.16927884   180.24837600
 H      5   4   3     1.101452505743   118.90225262   180.36438597
 H      6   5   4     1.101346281528   119.72998005   180.17028110
 H      9   8   7     1.100596949870   119.75451422   359.70666604
 H     10   9   8     1.101154204702   120.57863885   179.87250805
 H     11  10   9     1.100413013317   121.36748338   179.48319047
 H     12  11  10     1.104916345630   120.29009312   180.27613512
 H     15  14   7     1.099568068009   120.46688286   355.66215940
 H     16  15  14     1.101377363657   120.34620605   179.66854102
 H     17  16  15     1.100369171235   121.38197789   179.57747879
 H     18  17  16     1.105305326301   120.26669371   180.49627908

---------------------------
INTERNAL COORDINATES (A.U.)
---------------------------
 C      0   0   0     0.000000000000     0.00000000     0.00000000
 C      1   0   0     2.653302414991     0.00000000     0.00000000
 C      2   1   0     2.656462895908   119.92952345     0.00000000
 C      3   2   1     2.665420399879   120.48086942     0.30009096
 C      4   3   2     2.670501774491   119.27366247   359.77437037
 C      5   4   3     2.650682662924   120.12072182   359.95491094
 P      4   3   2     3.505740902363   117.65765043   179.01093457
 C      7   4   3     3.534130910590   100.87986267   137.37866878
 C      8   7   4     2.663023293529   118.03575451   245.48209136
 C      9   8   7     2.652113903958   118.88893256   180.23922756
 C     10   9   8     2.649784575592   118.62391548     0.37554425
 C     11  10   9     2.658414473261   118.25930123   359.52411508
 N     12  11  10     2.534376796209   123.44743358     0.17472250
 C      7   4   3     3.508386074261   101.41276083   237.86872371
 C     14   7   4     2.664902559112   123.46427923    25.08054352
 C     15  14   7     2.650568039192   118.39442043   176.49443254
 C     16  15  14     2.652046413421   118.97116656     0.11207731
 C     17  16  15     2.657796957302   118.12909724   359.27631439
 N     18  17  16     2.533551566737   123.49091791     0.14868260
 H      1   2   3     2.080809472480   120.04287415   179.83912170
 H      2   1   3     2.080692385211   120.15615094   180.16899978
 H      3   2   1     2.082278453642   120.16927884   180.24837600
 H      5   4   3     2.081443585377   118.90225262   180.36438597
 H      6   5   4     2.081242850700   119.72998005   180.17028110
 H      9   8   7     2.079826819083   119.75451422   359.70666604
 H     10   9   8     2.080879878102   120.57863885   179.87250805
 H     11  10   9     2.079479229372   121.36748338   179.48319047
 H     12  11  10     2.087989294134   120.29009312   180.27613512
 H     15  14   7     2.077882514143   120.46688286   355.66215940
 H     16  15  14     2.081301587412   120.34620605   179.66854102
 H     17  16  15     2.079396379844   121.38197789   179.57747879
 H     18  17  16     2.088724361073   120.26669371   180.49627908

---------------------
BASIS SET INFORMATION
---------------------
There are 4 groups of distinct atoms

 Group   1 Type C   : 11s6p2d1f contracted to 5s3p2d1f pattern {62111/411/11/1}
 Group   2 Type P   : 14s9p3d1f contracted to 5s5p2d1f pattern {73211/51111/21/1}
 Group   3 Type N   : 11s6p2d1f contracted to 5s3p2d1f pattern {62111/411/11/1}
 Group   4 Type H   : 5s1p contracted to 3s1p pattern {311/1}

Atom   0C    basis set group =>   1
Atom   1C    basis set group =>   1
Atom   2C    basis set group =>   1
Atom   3C    basis set group =>   1
Atom   4C    basis set group =>   1
Atom   5C    basis set group =>   1
Atom   6P    basis set group =>   2
Atom   7C    basis set group =>   1
Atom   8C    basis set group =>   1
Atom   9C    basis set group =>   1
Atom  10C    basis set group =>   1
Atom  11C    basis set group =>   1
Atom  12N    basis set group =>   3
Atom  13C    basis set group =>   1
Atom  14C    basis set group =>   1
Atom  15C    basis set group =>   1
Atom  16C    basis set group =>   1
Atom  17C    basis set group =>   1
Atom  18N    basis set group =>   3
Atom  19H    basis set group =>   4
Atom  20H    basis set group =>   4
Atom  21H    basis set group =>   4
Atom  22H    basis set group =>   4
Atom  23H    basis set group =>   4
Atom  24H    basis set group =>   4
Atom  25H    basis set group =>   4
Atom  26H    basis set group =>   4
Atom  27H    basis set group =>   4
Atom  28H    basis set group =>   4
Atom  29H    basis set group =>   4
Atom  30H    basis set group =>   4
Atom  31H    basis set group =>   4
---------------------------------
AUXILIARY/J BASIS SET INFORMATION
---------------------------------
There are 4 groups of distinct atoms

 Group   1 Type C   : 12s5p4d2f1g contracted to 6s4p3d1f1g pattern {711111/2111/211/2/1}
 Group   2 Type P   : 14s5p5d2f1g contracted to 8s4p3d1f1g pattern {71111111/2111/311/2/1}
 Group   3 Type N   : 12s5p4d2f1g contracted to 6s4p3d1f1g pattern {711111/2111/211/2/1}
 Group   4 Type H   : 5s2p1d contracted to 3s1p1d pattern {311/2/1}

Atom   0C    basis set group =>   1
Atom   1C    basis set group =>   1
Atom   2C    basis set group =>   1
Atom   3C    basis set group =>   1
Atom   4C    basis set group =>   1
Atom   5C    basis set group =>   1
Atom   6P    basis set group =>   2
Atom   7C    basis set group =>   1
Atom   8C    basis set group =>   1
Atom   9C    basis set group =>   1
Atom  10C    basis set group =>   1
Atom  11C    basis set group =>   1
Atom  12N    basis set group =>   3
Atom  13C    basis set group =>   1
Atom  14C    basis set group =>   1
Atom  15C    basis set group =>   1
Atom  16C    basis set group =>   1
Atom  17C    basis set group =>   1
Atom  18N    basis set group =>   3
Atom  19H    basis set group =>   4
Atom  20H    basis set group =>   4
Atom  21H    basis set group =>   4
Atom  22H    basis set group =>   4
Atom  23H    basis set group =>   4
Atom  24H    basis set group =>   4
Atom  25H    basis set group =>   4
Atom  26H    basis set group =>   4
Atom  27H    basis set group =>   4
Atom  28H    basis set group =>   4
Atom  29H    basis set group =>   4
Atom  30H    basis set group =>   4
Atom  31H    basis set group =>   4


           ************************************************************
           *        Program running with 6 parallel MPI-processes     *
           *              working on a common directory               *
           ************************************************************
------------------------------------------------------------------------------
                             ORCA STARTUP CALCULATIONS
                           -- RI-GTO INTEGRALS CHOSEN --
------------------------------------------------------------------------------
------------------------------------------------------------------------------
                   ___                                                        
                  /   \      - P O W E R E D   B Y -                         
                 /     \                                                     
                 |  |  |   _    _      __       _____    __    __             
                 |  |  |  | |  | |    /  \     |  _  \  |  |  /  |          
                  \  \/   | |  | |   /    \    | | | |  |  | /  /          
                 / \  \   | |__| |  /  /\  \   | |_| |  |  |/  /          
                |  |  |   |  __  | /  /__\  \  |    /   |      \           
                |  |  |   | |  | | |   __   |  |    \   |  |\   \          
                \     /   | |  | | |  |  |  |  | |\  \  |  | \   \       
                 \___/    |_|  |_| |__|  |__|  |_| \__\ |__|  \__/        
                                                                              
                      - O R C A' S   B I G   F R I E N D -                    
                                      &                                       
                       - I N T E G R A L  F E E D E R -                       
                                                                              
 v1 FN, 2020, v2 2021, v3 2022-2024                                           
------------------------------------------------------------------------------


----------------------
SHARK INTEGRAL PACKAGE
----------------------

Number of atoms                             ...     32
Number of basis functions                   ...    673
Number of shells                            ...    263
Maximum angular momentum                    ...      3
Integral batch strategy                     ... SHARK/LIBINT Hybrid
RI-J (if used) integral strategy            ... SPLIT-RIJ (Revised 2003 algorithm where possible)
Printlevel                                  ...      1
Contraction scheme used                     ... SEGMENTED contraction
Prescreening option                         ... SCHWARTZ
   Thresh                                   ... 1.000e-10
   Tcut                                     ... 1.000e-11
   Tpresel                                  ... 1.000e-11 
Coulomb Range Separation                    ... NOT USED
Exchange Range Separation                   ... NOT USED
Multipole approximations                    ... NOT USED
Finite Nucleus Model                        ... NOT USED
CABS basis                                  ... NOT available
Auxiliary Coulomb fitting basis             ... AVAILABLE
   # of basis functions in Aux-J            ...   1076
   # of shells in Aux-J                     ...    352
   Maximum angular momentum in Aux-J        ...      4
Auxiliary J/K fitting basis                 ... NOT available
Auxiliary Correlation fitting basis         ... NOT available
Auxiliary 'external' fitting basis          ... NOT available

Checking pre-screening integrals            ... done (  0.0 sec) Dimension = 263
Check shell pair data                       ... done (  0.0 sec)
Shell pair information
Shell pair cut-off parameter TPreSel        ...   1.0e-11
Total number of shell pairs                 ...     34716
Shell pairs after pre-screening             ...     25581
Total number of primitive shell pairs       ...    108816
Primitive shell pairs kept                  ...     53387
          la=0 lb=0:   6342 shell pairs
          la=1 lb=0:   7338 shell pairs
          la=1 lb=1:   2155 shell pairs
          la=2 lb=0:   3644 shell pairs
          la=2 lb=1:   2160 shell pairs
          la=2 lb=2:    576 shell pairs
          la=3 lb=0:   1708 shell pairs
          la=3 lb=1:   1025 shell pairs
          la=3 lb=2:    512 shell pairs
          la=3 lb=3:    121 shell pairs

Calculating one electron integrals          ... done (  0.0 sec)
Calculating RI/J V-Matrix + Cholesky decomp.... done (  0.1 sec)
Calculating Nuclear repulsion               ... done (  0.0 sec) ENN=   1418.235362148739 Eh

Diagonalization of the overlap matrix:
Smallest eigenvalue                        ... 8.728e-06
Time for diagonalization                   ...    0.083 sec
Threshold for overlap eigenvalues          ... 1.000e-07
Number of eigenvalues below threshold      ... 0
Time for construction of square roots      ...    0.046 sec
Total time needed                          ...    0.134 sec

-------------------
DFT GRID GENERATION
-------------------

General Integration Accuracy     IntAcc      ... 4.388
Radial Grid Type                 RadialGrid  ... OptM3 with GC (2021)
Angular Grid (max. ang.)         AngularGrid ... 4 (Lebedev-302)
Angular grid pruning method      GridPruning ... 4 (adaptive)
Weight generation scheme         WeightScheme... mBecke (2022)
Basis function cutoff            BFCut       ... 1.0000e-10
Integration weight cutoff        WCut        ... 1.0000e-14
Partially contracted basis set               ... off
Rotationally invariant grid construction     ... off
Angular grids for H and He will be reduced by one unit

Total number of grid points                  ...   156746
Total number of batches                      ...     2467
Average number of points per batch           ...       63
Average number of grid points per atom       ...     4898

--------------------
COSX GRID GENERATION
--------------------

GRIDX 1
-------
General Integration Accuracy     IntAcc      ... 3.816
Radial Grid Type                 RadialGrid  ... OptM3 with GC (2021)
Angular Grid (max. ang.)         AngularGrid ... 1 (Lebedev-50)
Angular grid pruning method      GridPruning ... 4 (adaptive)
Weight generation scheme         WeightScheme... mBecke (2022)
Basis function cutoff            BFCut       ... 1.0000e-10
Integration weight cutoff        WCut        ... 1.0000e-14
Partially contracted basis set               ... on
Rotationally invariant grid construction     ... off
Angular grids for H and He will be reduced by one unit

Total number of grid points                  ...    20936
Total number of batches                      ...      177
Average number of points per batch           ...      118
Average number of grid points per atom       ...      654
UseSFitting                                  ... on

GRIDX 2
-------
General Integration Accuracy     IntAcc      ... 4.020
Radial Grid Type                 RadialGrid  ... OptM3 with GC (2021)
Angular Grid (max. ang.)         AngularGrid ... 2 (Lebedev-110)
Angular grid pruning method      GridPruning ... 4 (adaptive)
Weight generation scheme         WeightScheme... mBecke (2022)
Basis function cutoff            BFCut       ... 1.0000e-10
Integration weight cutoff        WCut        ... 1.0000e-14
Partially contracted basis set               ... on
Rotationally invariant grid construction     ... off
Angular grids for H and He will be reduced by one unit

Total number of grid points                  ...    43525
Total number of batches                      ...      358
Average number of points per batch           ...      121
Average number of grid points per atom       ...     1360
UseSFitting                                  ... on

GRIDX 3
-------
General Integration Accuracy     IntAcc      ... 4.338
Radial Grid Type                 RadialGrid  ... OptM3 with GC (2021)
Angular Grid (max. ang.)         AngularGrid ... 3 (Lebedev-194)
Angular grid pruning method      GridPruning ... 4 (adaptive)
Weight generation scheme         WeightScheme... mBecke (2022)
Basis function cutoff            BFCut       ... 1.0000e-10
Integration weight cutoff        WCut        ... 1.0000e-14
Partially contracted basis set               ... on
Rotationally invariant grid construction     ... off
Angular grids for H and He will be reduced by one unit

Total number of grid points                  ...    95668
Total number of batches                      ...      764
Average number of points per batch           ...      125
Average number of grid points per atom       ...     2990
UseSFitting                                  ... on
Initializing property integral containers    ... done (  0.0 sec)

SHARK setup successfully completed in   3.3 seconds

Maximum memory used throughout the entire STARTUP-calculation: 62.8 MB


           ************************************************************
           *        Program running with 6 parallel MPI-processes     *
           *              working on a common directory               *
           ************************************************************
-------------------------------------------------------------------------------
                                 ORCA GUESS
                   Start orbitals & Density for SCF / CASSCF
-------------------------------------------------------------------------------

------------
SCF SETTINGS
------------
Hamiltonian:
 Density Functional     Method          .... DFT(GTOs)
 Exchange Functional    Exchange        .... M062X
 Correlation Functional Correlation     .... M062X
 Gradients option       PostSCFGGA      .... off
 Hybrid DFT is turned on
   Fraction HF Exchange ScalHFX         ....  0.540000
   Scaling of DF-GGA-X  ScalDFX         ....  0.460000
   Scaling of DF-GGA-C  ScalDFC         ....  1.000000
   Scaling of DF-LDA-C  ScalLDAC        ....  1.000000
   Perturbative correction              ....  0.000000
 RI-approximation to the Coulomb term is turned on
   Number of AuxJ basis functions       .... 1076
   RIJ-COSX (HFX calculated with COS-X)).... on


General Settings:
 Integral files         IntName         .... data/single_point_P_M06-2x/603962/603962
 Hartree-Fock type      HFTyp           .... RHF
 Total Charge           Charge          ....    0
 Multiplicity           Mult            ....    1
 Number of Electrons    NEL             ....  138
 Basis Dimension        Dim             ....  673
 Nuclear Repulsion      ENuc            ....   1418.2353621487 Eh

Convergence Acceleration:
 AO-DIIS                CNVDIIS         .... on
   Start iteration      DIISMaxIt       ....    12
   Startup error        DIISStart       ....  0.200000
   # of expansion vecs  DIISMaxEq       ....     5
   Bias factor          DIISBfac        ....   1.050
   Max. coefficient     DIISMaxC        ....  10.000
 MO-DIIS                CNVKDIIS        .... off
 Trust-Rad. Augm. Hess. CNVTRAH         .... auto
   Auto Start mean grad. ratio tolernc. ....  1.125000
   Auto Start start iteration           ....    50
   Auto Start num. interpolation iter.  ....    10
   Max. Number of Micro iterations      ....    24
   Max. Number of Macro iterations      .... Maxiter - #DIIS iter
   Number of Davidson start vectors     ....     2
   Converg. threshold    (grad. norm)   ....   5.000e-05
   Grad. Scal. Fac. for Micro threshold ....   0.100
   Minimum threshold for Micro iter.    ....   1.000e-02
   NR start threshold (gradient norm)   ....   1.000e-04
   Initial trust radius                 ....   0.400
   Minimum AH scaling param. (alpha)    ....   1.000
   Maximum AH scaling param. (alpha)    .... 1000.000
   Quad. conv. algorithm                .... NR
   White noise on init. David. guess    .... on
   Maximum white noise                  ....   0.010
   Pseudo random numbers                .... off
   Inactive MOs                         .... canonical
   Orbital update algorithm             .... Taylor
   Preconditioner                       .... Diag
   Full preconditioner red. dimension   ....   250
 SOSCF                  CNVSOSCF        .... on
   Start iteration      SOSCFMaxIt      ....   150
   Startup grad/error   SOSCFStart      ....  0.003300
   Hessian update       SOSCFHessUp     .... L-BFGS
 Level Shifting         CNVShift        .... on
   Level shift para.    LevelShift      ....    0.2500
   Turn off err/grad.   ShiftErr        ....    0.0010
 Zerner damping         CNVZerner       .... off
 Static damping         CNVDamp         .... on
   Fraction old density DampFac         ....    0.7000
   Max. Damping (<1)    DampMax         ....    0.9800
   Min. Damping (>=0)   DampMin         ....    0.0000
   Turn off err/grad.   DampErr         ....    0.1000

SCF Procedure:
 Maximum # iterations   MaxIter         ....   125
 SCF integral mode      SCFMode         .... Direct
   Integral package                     .... SHARK and LIBINT hybrid scheme
 Reset frequency        DirectResetFreq ....    20
 Integral Threshold     Thresh          ....  1.000e-10 Eh
 Primitive CutOff       TCut            ....  1.000e-11 Eh

Convergence Tolerance:
 Convergence Check Mode ConvCheckMode   .... Total+1el-Energy
 Convergence forced     ConvForced      .... 0
 Energy Change          TolE            ....  1.000e-06 Eh
 1-El. energy change                    ....  1.000e-03 Eh
 Orbital Gradient       TolG            ....  5.000e-05
 Orbital Rotation angle TolX            ....  5.000e-05
 DIIS Error             TolErr          ....  1.000e-05

------------------------------
INITIAL GUESS: MODEL POTENTIAL
------------------------------
Loading Hartree-Fock densities                     ... done
Calculating cut-offs                               ... done
Initializing the effective Hamiltonian             ... done
Setting up the integral package (SHARK)            ... done
Starting the Coulomb interaction                   ... done (   0.4 sec)
Making the grid                                    ... done (   0.2 sec)
Mapping shells                                     ... done
Starting the XC term evaluation                    ... done (   0.4 sec)
  promolecular density results
     # of electrons  =    137.981709319
     EX              =   -121.121669289
     EC              =     -4.662221207
     EX+EC           =   -125.783890496
Transforming the Hamiltonian                       ... done (   0.0 sec)
Diagonalizing the Hamiltonian                      ... done (   0.1 sec)
Back transforming the eigenvectors                 ... done (   0.0 sec)
Now organizing SCF variables                       ... done
                      ------------------
                      INITIAL GUESS DONE (   1.3 sec)
                      ------------------
             **** ENERGY FILE WAS UPDATED (data/single_point_P_M06-2x/603962/603962.en.tmp) ****
Finished Guess after   1.5 sec
Maximum memory used throughout the entire GUESS-calculation: 47.0 MB


           ************************************************************
           *        Program running with 6 parallel MPI-processes     *
           *              working on a common directory               *
           ************************************************************

-------------------------------------------------------------------------------------------
                                      ORCA LEAN-SCF
                              memory conserving SCF solver
-------------------------------------------------------------------------------------------

----------------------------------------D-I-I-S--------------------------------------------
Iteration    Energy (Eh)           Delta-E    RMSDP     MaxDP     DIISErr   Damp  Time(sec)
-------------------------------------------------------------------------------------------
               ***  Starting incremental Fock matrix formation  ***
    1    -1067.9012378670724956     0.00e+00  1.03e-03  3.82e-02  1.80e-01  0.700  12.5
    2    -1068.0762738298346903    -1.75e-01  8.35e-04  2.83e-02  9.37e-02  0.700   7.0
                               ***Turning on AO-DIIS***
    3    -1068.1611713253671496    -8.49e-02  5.41e-04  2.03e-02  3.77e-02  0.700   6.9
    4    -1068.2113583314392145    -5.02e-02  1.26e-03  5.02e-02  2.57e-02  0.000   6.4
                              *** Initializing SOSCF ***
---------------------------------------S-O-S-C-F--------------------------------------
Iteration    Energy (Eh)           Delta-E    RMSDP     MaxDP     MaxGrad    Time(sec)
--------------------------------------------------------------------------------------
    5    -1068.3188207906080152    -1.07e-01  1.26e-04  1.59e-02  3.12e-03     7.0
               *** Restarting incremental Fock matrix formation ***
    6    -1068.3190505800710071    -2.30e-04  1.02e-04  8.25e-03  7.17e-04    12.2
    7    -1068.3190797033405488    -2.91e-05  5.39e-05  4.71e-03  4.50e-04     9.2
    8    -1068.3190883232207398    -8.62e-06  3.60e-05  2.70e-03  2.28e-04     8.7
    9    -1068.3190917877875563    -3.46e-06  7.00e-06  2.94e-04  6.02e-05     8.3
   10    -1068.3190917523577355     3.54e-08  4.33e-06  2.58e-04  5.76e-05     7.3
                 **** Energy Check signals convergence ****

               *****************************************************
               *                     SUCCESS                       *
               *           SCF CONVERGED AFTER  10 CYCLES          *
               *****************************************************

Recomputing exchange energy using gridx3       ... done (   18.129 sec)
Old exchange energy                            :    -66.551842438 Eh
New exchange energy                            :    -66.551731331 Eh
Exchange energy change after final integration :      0.000111106 Eh
Total energy after final integration           :  -1068.318980646 Eh
             **** ENERGY FILE WAS UPDATED (data/single_point_P_M06-2x/603962/603962.en.tmp) ****

----------------
TOTAL SCF ENERGY
----------------

Total Energy       :      -1068.31898064593020 Eh          -29070.43738 eV

Components:
Nuclear Repulsion  :       1418.23536214873934 Eh           38592.14619 eV
Electronic Energy  :      -2486.55445390109708 Eh          -67662.58659 eV
One Electron Energy:      -4273.29563811723983 Eh         -116282.28599 eV
Two Electron Energy:       1786.74118421614298 Eh           48619.69940 eV

Virial components:
Potential Energy   :      -2131.41568868558443 Eh          -57998.76949 eV
Kinetic Energy     :       1063.09670803965446 Eh           28928.33211 eV
Virial Ratio       :          2.00491232130321

DFT components:
N(Alpha)           :       69.000008969711 electrons
N(Beta)            :       69.000008969711 electrons
N(Total)           :      138.000017939423 electrons
E(XC)              :      -61.763924875616 Eh       

---------------
SCF CONVERGENCE
---------------

  Last Energy change         ...   -3.5430e-08  Tolerance :   1.0000e-06
  Last MAX-Density change    ...    2.5847e-04  Tolerance :   1.0000e-05
  Last RMS-Density change    ...    4.3337e-06  Tolerance :   1.0000e-06
  Last DIIS Error            ...    3.1196e-03  Tolerance :   1.0000e-05
  Last Orbital Gradient      ...    5.7598e-05  Tolerance :   5.0000e-05
  Last Orbital Rotation      ...    1.4870e-04  Tolerance :   5.0000e-05


----------------
ORBITAL ENERGIES
----------------

  NO   OCC          E(Eh)            E(eV) 
   0   2.0000     -78.029141     -2123.2809 
   1   2.0000     -14.754104      -401.4796 
   2   2.0000     -14.747363      -401.2962 
   3   2.0000     -10.586026      -288.0604 
   4   2.0000     -10.583928      -288.0033 
   5   2.0000     -10.582069      -287.9527 
   6   2.0000     -10.577895      -287.8392 
   7   2.0000     -10.567929      -287.5680 
   8   2.0000     -10.562469      -287.4194 
   9   2.0000     -10.559315      -287.3336 
  10   2.0000     -10.558171      -287.3024 
  11   2.0000     -10.552848      -287.1576 
  12   2.0000     -10.552059      -287.1361 
  13   2.0000     -10.551963      -287.1335 
  14   2.0000     -10.551936      -287.1328 
  15   2.0000     -10.551323      -287.1161 
  16   2.0000     -10.549547      -287.0678 
  17   2.0000     -10.548576      -287.0413 
  18   2.0000     -10.546028      -286.9720 
  19   2.0000      -6.845575      -186.2776 
  20   2.0000      -4.960128      -134.9719 
  21   2.0000      -4.959780      -134.9625 
  22   2.0000      -4.959544      -134.9561 
  23   2.0000      -1.051161       -28.6035 
  24   2.0000      -1.042960       -28.3804 
  25   2.0000      -0.954819       -25.9819 
  26   2.0000      -0.902565       -24.5600 
  27   2.0000      -0.896278       -24.3890 
  28   2.0000      -0.871472       -23.7140 
  29   2.0000      -0.850967       -23.1560 
  30   2.0000      -0.840053       -22.8590 
  31   2.0000      -0.837322       -22.7847 
  32   2.0000      -0.746813       -20.3218 
  33   2.0000      -0.714192       -19.4342 
  34   2.0000      -0.708500       -19.2793 
  35   2.0000      -0.701463       -19.0878 
  36   2.0000      -0.685475       -18.6527 
  37   2.0000      -0.681327       -18.5398 
  38   2.0000      -0.640702       -17.4344 
  39   2.0000      -0.591021       -16.0825 
  40   2.0000      -0.587983       -15.9998 
  41   2.0000      -0.569070       -15.4852 
  42   2.0000      -0.551226       -14.9996 
  43   2.0000      -0.545807       -14.8522 
  44   2.0000      -0.528947       -14.3934 
  45   2.0000      -0.522961       -14.2305 
  46   2.0000      -0.514249       -13.9934 
  47   2.0000      -0.510676       -13.8962 
  48   2.0000      -0.487409       -13.2631 
  49   2.0000      -0.484439       -13.1823 
  50   2.0000      -0.481400       -13.0996 
  51   2.0000      -0.475982       -12.9521 
  52   2.0000      -0.469474       -12.7750 
  53   2.0000      -0.457223       -12.4417 
  54   2.0000      -0.455533       -12.3957 
  55   2.0000      -0.439946       -11.9716 
  56   2.0000      -0.432549       -11.7702 
  57   2.0000      -0.402107       -10.9419 
  58   2.0000      -0.399130       -10.8609 
  59   2.0000      -0.385275       -10.4839 
  60   2.0000      -0.350264        -9.5312 
  61   2.0000      -0.342697        -9.3253 
  62   2.0000      -0.333262        -9.0685 
  63   2.0000      -0.324338        -8.8257 
  64   2.0000      -0.321807        -8.7568 
  65   2.0000      -0.315910        -8.5963 
  66   2.0000      -0.308036        -8.3821 
  67   2.0000      -0.299164        -8.1407 
  68   2.0000      -0.277409        -7.5487 
  69   0.0000      -0.016238        -0.4418 
  70   0.0000      -0.006126        -0.1667 
  71   0.0000       0.002864         0.0779 
  72   0.0000       0.012205         0.3321 
  73   0.0000       0.013285         0.3615 
  74   0.0000       0.023352         0.6354 
  75   0.0000       0.076141         2.0719 
  76   0.0000       0.079703         2.1688 
  77   0.0000       0.082916         2.2563 
  78   0.0000       0.096201         2.6178 
  79   0.0000       0.101420         2.7598 
*Only the first 10 virtual orbitals were printed.

                    ********************************
                    * MULLIKEN POPULATION ANALYSIS *
                    ********************************

-----------------------
MULLIKEN ATOMIC CHARGES
-----------------------
   0 C :   -0.133990
   1 C :   -0.154350
   2 C :   -0.123112
   3 C :   -0.116433
   4 C :   -0.175619
   5 C :   -0.149467
   6 P :    0.139016
   7 C :    0.136379
   8 C :   -0.161266
   9 C :   -0.108098
  10 C :   -0.144599
  11 C :   -0.064309
  12 N :   -0.289630
  13 C :    0.096600
  14 C :   -0.164635
  15 C :   -0.125018
  16 C :   -0.144282
  17 C :   -0.072586
  18 N :   -0.255107
  19 H :    0.145800
  20 H :    0.144995
  21 H :    0.156144
  22 H :    0.202880
  23 H :    0.145569
  24 H :    0.157733
  25 H :    0.152153
  26 H :    0.147944
  27 H :    0.142553
  28 H :    0.179225
  29 H :    0.149878
  30 H :    0.144016
  31 H :    0.141615
Sum of atomic charges:   -0.0000000

--------------------------------
MULLIKEN REDUCED ORBITAL CHARGES
--------------------------------
  0 C s       :     3.222933  s :     3.222933
      pz      :     0.917075  p :     2.843169
      px      :     0.965162
      py      :     0.960932
      dz2     :     0.013779  d :     0.061601
      dxz     :     0.015015
      dyz     :     0.014265
      dx2y2   :     0.006892
      dxy     :     0.011651
      f0      :     0.001004  f :     0.006287
      f+1     :     0.000819
      f-1     :     0.001401
      f+2     :     0.000733
      f-2     :     0.000862
      f+3     :     0.000908
      f-3     :     0.000559

  1 C s       :     3.229942  s :     3.229942
      pz      :     0.916589  p :     2.857670
      px      :     0.956552
      py      :     0.984529
      dz2     :     0.013999  d :     0.060433
      dxz     :     0.012154
      dyz     :     0.015457
      dx2y2   :     0.011307
      dxy     :     0.007516
      f0      :     0.001007  f :     0.006305
      f+1     :     0.000965
      f-1     :     0.001255
      f+2     :     0.000979
      f-2     :     0.000634
      f+3     :     0.000552
      f-3     :     0.000912

  2 C s       :     3.187456  s :     3.187456
      pz      :     1.006708  p :     2.863606
      px      :     0.952871
      py      :     0.904026
      dz2     :     0.014407  d :     0.065571
      dxz     :     0.007221
      dyz     :     0.014344
      dx2y2   :     0.013828
      dxy     :     0.015771
      f0      :     0.000505  f :     0.006479
      f+1     :     0.000576
      f-1     :     0.001434
      f+2     :     0.000924
      f-2     :     0.000851
      f+3     :     0.001073
      f-3     :     0.001117

  3 C s       :     3.257343  s :     3.257343
      pz      :     0.896116  p :     2.776523
      px      :     0.976473
      py      :     0.903934
      dz2     :     0.016813  d :     0.075658
      dxz     :     0.015478
      dyz     :     0.018824
      dx2y2   :     0.009746
      dxy     :     0.014796
      f0      :     0.001008  f :     0.006910
      f+1     :     0.000965
      f-1     :     0.001676
      f+2     :     0.000794
      f-2     :     0.000801
      f+3     :     0.000895
      f-3     :     0.000771

  4 C s       :     3.217467  s :     3.217467
      pz      :     0.886525  p :     2.883634
      px      :     0.937217
      py      :     1.059892
      dz2     :     0.015164  d :     0.068052
      dxz     :     0.013642
      dyz     :     0.018725
      dx2y2   :     0.012884
      dxy     :     0.007637
      f0      :     0.001008  f :     0.006467
      f+1     :     0.000993
      f-1     :     0.001330
      f+2     :     0.000956
      f-2     :     0.000676
      f+3     :     0.000568
      f-3     :     0.000936

  5 C s       :     3.227047  s :     3.227047
      pz      :     1.013890  p :     2.855997
      px      :     0.955329
      py      :     0.886778
      dz2     :     0.012073  d :     0.060185
      dxz     :     0.007050
      dyz     :     0.013872
      dx2y2   :     0.012114
      dxy     :     0.015077
      f0      :     0.000488  f :     0.006237
      f+1     :     0.000574
      f-1     :     0.001333
      f+2     :     0.000921
      f-2     :     0.000867
      f+3     :     0.000976
      f-3     :     0.001078

  6 P s       :     5.735173  s :     5.735173
      pz      :     3.343987  p :     8.861500
      px      :     2.760126
      py      :     2.757386
      dz2     :     0.026760  d :     0.240320
      dxz     :     0.049381
      dyz     :     0.043477
      dx2y2   :     0.057766
      dxy     :     0.062936
      f0      :     0.002341  f :     0.023991
      f+1     :     0.002940
      f-1     :     0.002558
      f+2     :     0.004330
      f-2     :     0.004767
      f+3     :     0.003277
      f-3     :     0.003779

  7 C s       :     3.169095  s :     3.169095
      pz      :     0.746543  p :     2.568861
      px      :     0.907440
      py      :     0.914879
      dz2     :     0.027271  d :     0.115537
      dxz     :     0.032867
      dyz     :     0.029910
      dx2y2   :     0.014541
      dxy     :     0.010948
      f0      :     0.002377  f :     0.010128
      f+1     :     0.002125
      f-1     :     0.001871
      f+2     :     0.001043
      f-2     :     0.001329
      f+3     :     0.000676
      f-3     :     0.000707

  8 C s       :     3.202917  s :     3.202917
      pz      :     1.003080  p :     2.887654
      px      :     0.938369
      py      :     0.946204
      dz2     :     0.013600  d :     0.064212
      dxz     :     0.009909
      dyz     :     0.015659
      dx2y2   :     0.017311
      dxy     :     0.007733
      f0      :     0.000983  f :     0.006483
      f+1     :     0.000715
      f-1     :     0.000910
      f+2     :     0.000745
      f-2     :     0.001009
      f+3     :     0.000905
      f-3     :     0.001215

  9 C s       :     3.224477  s :     3.224477
      pz      :     0.940966  p :     2.815684
      px      :     0.944732
      py      :     0.929986
      dz2     :     0.012176  d :     0.061618
      dxz     :     0.015465
      dyz     :     0.012276
      dx2y2   :     0.013236
      dxy     :     0.008466
      f0      :     0.001079  f :     0.006319
      f+1     :     0.001152
      f-1     :     0.001003
      f+2     :     0.000275
      f-2     :     0.001055
      f+3     :     0.000665
      f-3     :     0.001091

 10 C s       :     3.220880  s :     3.220880
      pz      :     0.896791  p :     2.858335
      px      :     0.974085
      py      :     0.987458
      dz2     :     0.012813  d :     0.059146
      dxz     :     0.015448
      dyz     :     0.015864
      dx2y2   :     0.006439
      dxy     :     0.008583
      f0      :     0.001118  f :     0.006239
      f+1     :     0.001221
      f-1     :     0.000999
      f+2     :     0.000729
      f-2     :     0.000857
      f+3     :     0.000817
      f-3     :     0.000496

 11 C s       :     3.216065  s :     3.216065
      pz      :     0.986740  p :     2.736708
      px      :     0.883198
      py      :     0.866771
      dz2     :     0.022384  d :     0.102129
      dxz     :     0.013609
      dyz     :     0.022845
      dx2y2   :     0.026476
      dxy     :     0.016815
      f0      :     0.001052  f :     0.009407
      f+1     :     0.001037
      f-1     :     0.001340
      f+2     :     0.000985
      f-2     :     0.001483
      f+3     :     0.001502
      f-3     :     0.002008

 12 N s       :     3.665831  s :     3.665831
      pz      :     1.187188  p :     3.560518
      px      :     1.223573
      py      :     1.149757
      dz2     :     0.014104  d :     0.059594
      dxz     :     0.011719
      dyz     :     0.012617
      dx2y2   :     0.011798
      dxy     :     0.009356
      f0      :     0.000635  f :     0.003687
      f+1     :     0.000532
      f-1     :     0.000724
      f+2     :     0.000336
      f-2     :     0.000534
      f+3     :     0.000378
      f-3     :     0.000549

 13 C s       :     3.176316  s :     3.176316
      pz      :     0.862011  p :     2.592852
      px      :     0.952759
      py      :     0.778082
      dz2     :     0.020022  d :     0.124041
      dxz     :     0.014500
      dyz     :     0.031248
      dx2y2   :     0.031985
      dxy     :     0.026285
      f0      :     0.001146  f :     0.010191
      f+1     :     0.001025
      f-1     :     0.001282
      f+2     :     0.001653
      f-2     :     0.001456
      f+3     :     0.001277
      f-3     :     0.002352

 14 C s       :     3.211936  s :     3.211936
      pz      :     0.951286  p :     2.881319
      px      :     0.925205
      py      :     1.004828
      dz2     :     0.016585  d :     0.064925
      dxz     :     0.010405
      dyz     :     0.009088
      dx2y2   :     0.013235
      dxy     :     0.015613
      f0      :     0.000529  f :     0.006455
      f+1     :     0.001267
      f-1     :     0.000820
      f+2     :     0.001180
      f-2     :     0.001043
      f+3     :     0.000900
      f-3     :     0.000716

 15 C s       :     3.230686  s :     3.230686
      pz      :     0.965425  p :     2.825873
      px      :     0.920153
      py      :     0.940295
      dz2     :     0.007482  d :     0.062127
      dxz     :     0.010174
      dyz     :     0.015739
      dx2y2   :     0.017309
      dxy     :     0.011423
      f0      :     0.000625  f :     0.006332
      f+1     :     0.001110
      f-1     :     0.000512
      f+2     :     0.000910
      f-2     :     0.001134
      f+3     :     0.000890
      f-3     :     0.001150

 16 C s       :     3.218713  s :     3.218713
      pz      :     0.966748  p :     2.861087
      px      :     0.988024
      py      :     0.906315
      dz2     :     0.009745  d :     0.058247
      dxz     :     0.008809
      dyz     :     0.013716
      dx2y2   :     0.011918
      dxy     :     0.014059
      f0      :     0.000815  f :     0.006234
      f+1     :     0.000645
      f-1     :     0.000803
      f+2     :     0.001213
      f-2     :     0.000979
      f+3     :     0.000653
      f-3     :     0.001126

 17 C s       :     3.217280  s :     3.217280
      pz      :     0.887750  p :     2.744123
      px      :     0.869471
      py      :     0.986902
      dz2     :     0.025815  d :     0.101810
      dxz     :     0.019240
      dyz     :     0.011524
      dx2y2   :     0.023056
      dxy     :     0.022175
      f0      :     0.000774  f :     0.009373
      f+1     :     0.002108
      f-1     :     0.000834
      f+2     :     0.001866
      f-2     :     0.001384
      f+3     :     0.001352
      f-3     :     0.001054

 18 N s       :     3.626551  s :     3.626551
      pz      :     1.275600  p :     3.565473
      px      :     1.116156
      py      :     1.173717
      dz2     :     0.010753  d :     0.059345
      dxz     :     0.009960
      dyz     :     0.010923
      dx2y2   :     0.015415
      dxy     :     0.012295
      f0      :     0.000364  f :     0.003738
      f+1     :     0.000557
      f-1     :     0.000302
      f+2     :     0.000386
      f-2     :     0.000595
      f+3     :     0.000738
      f-3     :     0.000796

 19 H s       :     0.834610  s :     0.834610
      pz      :     0.005196  p :     0.019590
      px      :     0.005438
      py      :     0.008955

 20 H s       :     0.835317  s :     0.835317
      pz      :     0.005113  p :     0.019688
      px      :     0.003809
      py      :     0.010767

 21 H s       :     0.823931  s :     0.823931
      pz      :     0.012509  p :     0.019925
      px      :     0.004504
      py      :     0.002912

 22 H s       :     0.775893  s :     0.775893
      pz      :     0.004697  p :     0.021227
      px      :     0.003514
      py      :     0.013016

 23 H s       :     0.834785  s :     0.834785
      pz      :     0.012216  p :     0.019646
      px      :     0.004532
      py      :     0.002898

 24 H s       :     0.822090  s :     0.822090
      pz      :     0.012352  p :     0.020177
      px      :     0.003302
      py      :     0.004523

 25 H s       :     0.828152  s :     0.828152
      pz      :     0.007893  p :     0.019695
      px      :     0.006514
      py      :     0.005288

 26 H s       :     0.832229  s :     0.832229
      pz      :     0.003584  p :     0.019827
      px      :     0.006574
      py      :     0.009670

 27 H s       :     0.837962  s :     0.837962
      pz      :     0.013006  p :     0.019485
      px      :     0.002900
      py      :     0.003579

 28 H s       :     0.800259  s :     0.800259
      pz      :     0.003395  p :     0.020516
      px      :     0.005325
      py      :     0.011796

 29 H s       :     0.830505  s :     0.830505
      pz      :     0.007538  p :     0.019616
      px      :     0.004962
      py      :     0.007116

 30 H s       :     0.836150  s :     0.836150
      pz      :     0.005904  p :     0.019834
      px      :     0.010094
      py      :     0.003836

 31 H s       :     0.838947  s :     0.838947
      pz      :     0.003210  p :     0.019439
      px      :     0.003959
      py      :     0.012269



                     *******************************
                     * LOEWDIN POPULATION ANALYSIS *
                     *******************************

----------------------
LOEWDIN ATOMIC CHARGES
----------------------
   0 C :   -0.138711
   1 C :   -0.146000
   2 C :   -0.146963
   3 C :   -0.282878
   4 C :   -0.129976
   5 C :   -0.144184
   6 P :    0.701748
   7 C :   -0.328144
   8 C :   -0.146210
   9 C :   -0.120570
  10 C :   -0.148521
  11 C :   -0.198614
  12 N :    0.128584
  13 C :   -0.338957
  14 C :   -0.144279
  15 C :   -0.123447
  16 C :   -0.156002
  17 C :   -0.201324
  18 N :    0.128173
  19 H :    0.146978
  20 H :    0.147268
  21 H :    0.148094
  22 H :    0.159351
  23 H :    0.147467
  24 H :    0.151184
  25 H :    0.150372
  26 H :    0.149155
  27 H :    0.141183
  28 H :    0.157111
  29 H :    0.149533
  30 H :    0.147784
  31 H :    0.140796

-------------------------------
LOEWDIN REDUCED ORBITAL CHARGES
-------------------------------
  0 C s       :     2.779567  s :     2.779567
      pz      :     1.034120  p :     2.943116
      px      :     0.901041
      py      :     1.007955
      dz2     :     0.091296  d :     0.375515
      dxz     :     0.061862
      dyz     :     0.130878
      dx2y2   :     0.037024
      dxy     :     0.054455
      f0      :     0.006484  f :     0.040512
      f+1     :     0.005400
      f-1     :     0.011868
      f+2     :     0.004813
      f-2     :     0.004191
      f+3     :     0.004586
      f-3     :     0.003169

  1 C s       :     2.778408  s :     2.778408
      pz      :     1.035191  p :     2.953936
      px      :     0.924153
      py      :     0.994592
      dz2     :     0.092481  d :     0.373252
      dxz     :     0.067096
      dyz     :     0.123952
      dx2y2   :     0.056373
      dxy     :     0.033350
      f0      :     0.006427  f :     0.040403
      f+1     :     0.006479
      f-1     :     0.010804
      f+2     :     0.004284
      f-2     :     0.004870
      f+3     :     0.003425
      f-3     :     0.004114

  2 C s       :     2.779711  s :     2.779711
      pz      :     0.986006  p :     2.942229
      px      :     0.906147
      py      :     1.050076
      dz2     :     0.102579  d :     0.384480
      dxz     :     0.032852
      dyz     :     0.092025
      dx2y2   :     0.077145
      dxy     :     0.079880
      f0      :     0.002887  f :     0.040543
      f+1     :     0.002756
      f-1     :     0.011589
      f+2     :     0.006208
      f-2     :     0.006550
      f+3     :     0.005700
      f-3     :     0.004853

  3 C s       :     2.780505  s :     2.780505
      pz      :     1.062826  p :     3.004697
      px      :     0.915590
      py      :     1.026281
      dz2     :     0.108960  d :     0.453070
      dxz     :     0.074785
      dyz     :     0.152135
      dx2y2   :     0.051608
      dxy     :     0.065581
      f0      :     0.006411  f :     0.044605
      f+1     :     0.005874
      f-1     :     0.014120
      f+2     :     0.005211
      f-2     :     0.004590
      f+3     :     0.004496
      f-3     :     0.003903

  4 C s       :     2.779523  s :     2.779523
      pz      :     1.025265  p :     2.930804
      px      :     0.898379
      py      :     1.007160
      dz2     :     0.093533  d :     0.379115
      dxz     :     0.069624
      dyz     :     0.124695
      dx2y2   :     0.056388
      dxy     :     0.034873
      f0      :     0.006505  f :     0.040535
      f+1     :     0.006562
      f-1     :     0.010746
      f+2     :     0.004217
      f-2     :     0.004872
      f+3     :     0.003451
      f-3     :     0.004183

  5 C s       :     2.778683  s :     2.778683
      pz      :     0.982604  p :     2.950364
      px      :     0.916838
      py      :     1.050921
      dz2     :     0.100523  d :     0.374752
      dxz     :     0.032981
      dyz     :     0.090193
      dx2y2   :     0.075428
      dxy     :     0.075628
      f0      :     0.002876  f :     0.040386
      f+1     :     0.002778
      f-1     :     0.011577
      f+2     :     0.006128
      f-2     :     0.006492
      f+3     :     0.005727
      f-3     :     0.004808

  6 P s       :     4.949986  s :     4.949986
      pz      :     3.284047  p :     8.792578
      px      :     2.759018
      py      :     2.749513
      dz2     :     0.067834  d :     0.464409
      dxz     :     0.088574
      dyz     :     0.077821
      dx2y2   :     0.106118
      dxy     :     0.124062
      f0      :     0.007411  f :     0.091280
      f+1     :     0.011107
      f-1     :     0.009253
      f+2     :     0.015332
      f-2     :     0.019513
      f+3     :     0.014947
      f-3     :     0.013718

  7 C s       :     2.793323  s :     2.793323
      pz      :     1.014631  p :     2.917171
      px      :     0.937319
      py      :     0.965221
      dz2     :     0.175018  d :     0.554201
      dxz     :     0.134101
      dyz     :     0.137420
      dx2y2   :     0.043196
      dxy     :     0.064467
      f0      :     0.016804  f :     0.063449
      f+1     :     0.013009
      f-1     :     0.011564
      f+2     :     0.007597
      f-2     :     0.008818
      f+3     :     0.002852
      f-3     :     0.002805

  8 C s       :     2.782504  s :     2.782504
      pz      :     1.000226  p :     2.954311
      px      :     0.963899
      py      :     0.990185
      dz2     :     0.097044  d :     0.368789
      dxz     :     0.053996
      dyz     :     0.086964
      dx2y2   :     0.064394
      dxy     :     0.066391
      f0      :     0.006440  f :     0.040606
      f+1     :     0.005622
      f-1     :     0.005939
      f+2     :     0.005723
      f-2     :     0.007168
      f+3     :     0.004756
      f-3     :     0.004958

  9 C s       :     2.781242  s :     2.781242
      pz      :     1.027395  p :     2.919184
      px      :     0.919756
      py      :     0.972033
      dz2     :     0.079906  d :     0.378818
      dxz     :     0.092825
      dyz     :     0.110231
      dx2y2   :     0.047054
      dxy     :     0.048803
      f0      :     0.008684  f :     0.041326
      f+1     :     0.007634
      f-1     :     0.007774
      f+2     :     0.002357
      f-2     :     0.005695
      f+3     :     0.004290
      f-3     :     0.004892

 10 C s       :     2.783546  s :     2.783546
      pz      :     1.057103  p :     2.963286
      px      :     0.945868
      py      :     0.960315
      dz2     :     0.110723  d :     0.361158
      dxz     :     0.088905
      dyz     :     0.091092
      dx2y2   :     0.024376
      dxy     :     0.046061
      f0      :     0.008132  f :     0.040531
      f+1     :     0.008148
      f-1     :     0.007423
      f+2     :     0.005728
      f-2     :     0.005895
      f+3     :     0.003278
      f-3     :     0.001926

 11 C s       :     2.790369  s :     2.790369
      pz      :     0.999728  p :     2.867305
      px      :     0.926937
      py      :     0.940640
      dz2     :     0.125397  d :     0.482122
      dxz     :     0.060352
      dyz     :     0.106385
      dx2y2   :     0.090353
      dxy     :     0.099636
      f0      :     0.007984  f :     0.058818
      f+1     :     0.007905
      f-1     :     0.009163
      f+2     :     0.007535
      f-2     :     0.009478
      f+3     :     0.008275
      f-3     :     0.008477

 12 N s       :     3.049341  s :     3.049341
      pz      :     1.280830  p :     3.585598
      px      :     1.150946
      py      :     1.153822
      dz2     :     0.056505  d :     0.218916
      dxz     :     0.040825
      dyz     :     0.056990
      dx2y2   :     0.031239
      dxy     :     0.033357
      f0      :     0.003916  f :     0.017561
      f+1     :     0.003166
      f-1     :     0.003518
      f+2     :     0.000938
      f-2     :     0.002160
      f+3     :     0.001906
      f-3     :     0.001957

 13 C s       :     2.794594  s :     2.794594
      pz      :     0.963430  p :     2.918932
      px      :     0.970319
      py      :     0.985182
      dz2     :     0.081426  d :     0.562010
      dxz     :     0.083795
      dyz     :     0.132393
      dx2y2   :     0.149581
      dxy     :     0.114815
      f0      :     0.007324  f :     0.063421
      f+1     :     0.006192
      f-1     :     0.006607
      f+2     :     0.010399
      f-2     :     0.008059
      f+3     :     0.009068
      f-3     :     0.015771

 14 C s       :     2.780024  s :     2.780024
      pz      :     0.968236  p :     2.958201
      px      :     0.997232
      py      :     0.992733
      dz2     :     0.070062  d :     0.365453
      dxz     :     0.072272
      dyz     :     0.050918
      dx2y2   :     0.082300
      dxy     :     0.089901
      f0      :     0.003817  f :     0.040600
      f+1     :     0.005650
      f-1     :     0.004965
      f+2     :     0.007703
      f-2     :     0.006314
      f+3     :     0.005838
      f-3     :     0.006314

 15 C s       :     2.781188  s :     2.781188
      pz      :     0.920859  p :     2.918732
      px      :     0.983221
      py      :     1.014652
      dz2     :     0.040345  d :     0.382087
      dxz     :     0.055460
      dyz     :     0.088489
      dx2y2   :     0.090304
      dxy     :     0.107490
      f0      :     0.004121  f :     0.041441
      f+1     :     0.005802
      f-1     :     0.003425
      f+2     :     0.007107
      f-2     :     0.005136
      f+3     :     0.007142
      f-3     :     0.008708

 16 C s       :     2.783386  s :     2.783386
      pz      :     0.964283  p :     2.971778
      px      :     0.965358
      py      :     1.042137
      dz2     :     0.045277  d :     0.360387
      dxz     :     0.050204
      dyz     :     0.088492
      dx2y2   :     0.092071
      dxy     :     0.084343
      f0      :     0.005385  f :     0.040451
      f+1     :     0.003683
      f-1     :     0.004717
      f+2     :     0.007098
      f-2     :     0.005513
      f+3     :     0.005738
      f-3     :     0.008318

 17 C s       :     2.790496  s :     2.790496
      pz      :     0.941614  p :     2.868052
      px      :     0.942751
      py      :     0.983687
      dz2     :     0.096795  d :     0.483832
      dxz     :     0.109315
      dyz     :     0.056736
      dx2y2   :     0.111314
      dxy     :     0.109671
      f0      :     0.005004  f :     0.058944
      f+1     :     0.009755
      f-1     :     0.005647
      f+2     :     0.012463
      f-2     :     0.008152
      f+3     :     0.008973
      f-3     :     0.008950

 18 N s       :     3.047955  s :     3.047955
      pz      :     1.196319  p :     3.588703
      px      :     1.148797
      py      :     1.243587
      dz2     :     0.027740  d :     0.217477
      dxz     :     0.035265
      dyz     :     0.037378
      dx2y2   :     0.058662
      dxy     :     0.058432
      f0      :     0.001463  f :     0.017692
      f+1     :     0.002323
      f-1     :     0.001552
      f+2     :     0.003404
      f-2     :     0.002107
      f+3     :     0.003192
      f-3     :     0.003651

 19 H s       :     0.797335  s :     0.797335
      pz      :     0.015654  p :     0.055687
      px      :     0.015780
      py      :     0.024254

 20 H s       :     0.796874  s :     0.796874
      pz      :     0.015402  p :     0.055858
      px      :     0.012068
      py      :     0.028388

 21 H s       :     0.795605  s :     0.795605
      pz      :     0.032589  p :     0.056300
      px      :     0.013708
      py      :     0.010003

 22 H s       :     0.779732  s :     0.779732
      pz      :     0.014769  p :     0.060917
      px      :     0.011503
      py      :     0.034645

 23 H s       :     0.796796  s :     0.796796
      pz      :     0.031683  p :     0.055737
      px      :     0.013700
      py      :     0.010354

 24 H s       :     0.791826  s :     0.791826
      pz      :     0.032228  p :     0.056990
      px      :     0.010975
      py      :     0.013787

 25 H s       :     0.794013  s :     0.794013
      pz      :     0.021879  p :     0.055615
      px      :     0.018177
      py      :     0.015559

 26 H s       :     0.794340  s :     0.794340
      pz      :     0.011969  p :     0.056505
      px      :     0.018671
      py      :     0.025864

 27 H s       :     0.804285  s :     0.804285
      pz      :     0.033854  p :     0.054533
      px      :     0.009627
      py      :     0.011052

 28 H s       :     0.784349  s :     0.784349
      pz      :     0.011668  p :     0.058540
      px      :     0.015681
      py      :     0.031192

 29 H s       :     0.795004  s :     0.795004
      pz      :     0.020661  p :     0.055463
      px      :     0.014765
      py      :     0.020037

 30 H s       :     0.795625  s :     0.795625
      pz      :     0.017204  p :     0.056590
      px      :     0.026895
      py      :     0.012492

 31 H s       :     0.804830  s :     0.804830
      pz      :     0.010442  p :     0.054374
      px      :     0.011955
      py      :     0.031978



                      *****************************
                      * MAYER POPULATION ANALYSIS *
                      *****************************

  NA   - Mulliken gross atomic population
  ZA   - Total nuclear charge
  QA   - Mulliken gross atomic charge
  VA   - Mayer's total valence
  BVA  - Mayer's bonded valence
  FA   - Mayer's free valence

  ATOM       NA         ZA         QA         VA         BVA        FA
  0 C      6.1340     6.0000    -0.1340     3.9342     3.9342    -0.0000
  1 C      6.1544     6.0000    -0.1544     3.9598     3.9598    -0.0000
  2 C      6.1231     6.0000    -0.1231     3.9113     3.9113    -0.0000
  3 C      6.1164     6.0000    -0.1164     3.8026     3.8026     0.0000
  4 C      6.1756     6.0000    -0.1756     3.8306     3.8306    -0.0000
  5 C      6.1495     6.0000    -0.1495     3.9509     3.9509    -0.0000
  6 P     14.8610    15.0000     0.1390     3.0891     3.0891    -0.0000
  7 C      5.8636     6.0000     0.1364     3.7760     3.7760     0.0000
  8 C      6.1613     6.0000    -0.1613     3.9108     3.9108     0.0000
  9 C      6.1081     6.0000    -0.1081     3.9360     3.9360    -0.0000
 10 C      6.1446     6.0000    -0.1446     3.8561     3.8561    -0.0000
 11 C      6.0643     6.0000    -0.0643     4.0120     4.0120    -0.0000
 12 N      7.2896     7.0000    -0.2896     2.8865     2.8865    -0.0000
 13 C      5.9034     6.0000     0.0966     3.8369     3.8369    -0.0000
 14 C      6.1646     6.0000    -0.1646     3.8918     3.8918     0.0000
 15 C      6.1250     6.0000    -0.1250     3.9532     3.9532    -0.0000
 16 C      6.1443     6.0000    -0.1443     3.8328     3.8328    -0.0000
 17 C      6.0726     6.0000    -0.0726     4.0336     4.0336    -0.0000
 18 N      7.2551     7.0000    -0.2551     2.9685     2.9685    -0.0000
 19 H      0.8542     1.0000     0.1458     0.9634     0.9634    -0.0000
 20 H      0.8550     1.0000     0.1450     0.9653     0.9653    -0.0000
 21 H      0.8439     1.0000     0.1561     0.9711     0.9711    -0.0000
 22 H      0.7971     1.0000     0.2029     0.9710     0.9710     0.0000
 23 H      0.8544     1.0000     0.1456     0.9659     0.9659    -0.0000
 24 H      0.8423     1.0000     0.1577     0.9682     0.9682     0.0000
 25 H      0.8478     1.0000     0.1522     0.9632     0.9632    -0.0000
 26 H      0.8521     1.0000     0.1479     0.9647     0.9647     0.0000
 27 H      0.8574     1.0000     0.1426     0.9598     0.9598    -0.0000
 28 H      0.8208     1.0000     0.1792     0.9496     0.9496     0.0000
 29 H      0.8501     1.0000     0.1499     0.9633     0.9633    -0.0000
 30 H      0.8560     1.0000     0.1440     0.9653     0.9653    -0.0000
 31 H      0.8584     1.0000     0.1416     0.9603     0.9603    -0.0000

  Mayer bond orders larger than 0.100000
B(  0-C ,  1-C ) :   1.4519 B(  0-C ,  5-C ) :   1.4214 B(  0-C , 19-H ) :   0.9471 
B(  1-C ,  2-C ) :   1.4491 B(  1-C , 20-H ) :   0.9497 B(  2-C ,  3-C ) :   1.4131 
B(  2-C , 21-H ) :   0.9276 B(  3-C ,  4-C ) :   1.3294 B(  3-C ,  6-P ) :   0.9408 
B(  4-C ,  5-C ) :   1.4634 B(  4-C , 22-H ) :   0.9114 B(  5-C , 23-H ) :   0.9454 
B(  6-P ,  7-C ) :   0.9506 B(  6-P , 13-C ) :   0.9792 B(  7-C ,  8-C ) :   1.4140 
B(  7-C , 12-N ) :   1.2453 B(  8-C ,  9-C ) :   1.4320 B(  8-C , 24-H ) :   0.9263 
B(  9-C , 10-C ) :   1.4377 B(  9-C , 25-H ) :   0.9478 B( 10-C , 11-C ) :   1.3771 
B( 10-C , 26-H ) :   0.9481 B( 11-C , 12-N ) :   1.5122 B( 11-C , 27-H ) :   0.9722 
B( 13-C , 14-C ) :   1.3839 B( 13-C , 18-N ) :   1.3285 B( 14-C , 15-C ) :   1.4487 
B( 14-C , 28-H ) :   0.9297 B( 15-C , 16-C ) :   1.4266 B( 15-C , 29-H ) :   0.9474 
B( 16-C , 17-C ) :   1.3811 B( 16-C , 30-H ) :   0.9505 B( 17-C , 18-N ) :   1.5130 
B( 17-C , 31-H ) :   0.9737 

-------
TIMINGS
-------

Total SCF time: 0 days 0 hours 1 min 44 sec 

Total time                  ....     104.164 sec
Sum of individual times     ....     104.198 sec  (100.0%)

SCF preparation             ....       0.257 sec  (  0.2%)
Fock matrix formation       ....     100.950 sec  ( 96.9%)
  Startup                   ....       0.102 sec  (  0.1% of F)
  Split-RI-J                ....       7.055 sec  (  7.0% of F)
  Chain of spheres X        ....      72.284 sec  ( 71.6% of F)
  XC integration            ....      21.216 sec  ( 21.0% of F)
    Basis function eval.    ....       3.103 sec  ( 14.6% of XC)
    Density eval.           ....       8.553 sec  ( 40.3% of XC)
    XC-Functional eval.     ....       0.401 sec  (  1.9% of XC)
    XC-Potential eval.      ....       7.987 sec  ( 37.6% of XC)
Diagonalization             ....       0.000 sec  (  0.0%)
Density matrix formation    ....       0.282 sec  (  0.3%)
Total Energy calculation    ....       0.097 sec  (  0.1%)
Population analysis         ....       0.161 sec  (  0.2%)
Orbital Transformation      ....       0.367 sec  (  0.4%)
Orbital Orthonormalization  ....       0.000 sec  (  0.0%)
DIIS solution               ....       1.283 sec  (  1.2%)
SOSCF solution              ....       0.801 sec  (  0.8%)
Finished LeanSCF after 104.2 sec

Maximum memory used throughout the entire LEANSCF-calculation: 90.2 MB


-------------------------------------------------------------------------------
                          DFT DISPERSION CORRECTION                            
                                                                               
                              DFTD3 V3.1  Rev 1                                
                              USING zero damping                               
-------------------------------------------------------------------------------
The M062X functional is recognized
Active option DFTDOPT                   ...         3   

molecular C6(AA) [au] = 15389.093550 


            DFT-D V3
 parameters
 s6 scaling factor         :     1.0000 
 rs6 scaling factor        :     1.6190 
 s8 scaling factor         :     0.0000 
 rs8 scaling factor        :     1.0000 
 Damping factor alpha6     :    14.0000 
 Damping factor alpha8     :    16.0000 
 ad hoc parameters k1-k3   :    16.0000     1.3333    -4.0000 

 Edisp/kcal,au: -1.185738239202  -0.001889593961 
 E6   /kcal   :  -1.185738239 
 E8   /kcal   :  -0.000000000 
 % E8         :   0.000000000 

-------------------------   ----------------
Dispersion correction           -0.001889594
-------------------------   ----------------


-------------------------   --------------------
FINAL SINGLE POINT ENERGY     -1068.320870239891
-------------------------   --------------------



           ************************************************************
           *        Program running with 6 parallel MPI-processes     *
           *              working on a common directory               *
           ************************************************************

------------------------------------------------------------------------------
                              ORCA PROPERTY CALCULATIONS
------------------------------------------------------------------------------

GBWName                                 ... data/single_point_P_M06-2x/603962/603962.gbw
Number of atoms                         ...     32
Number of basis functions               ...    673
Max core memory                         ...   1024 MB

Electric properties:
Dipole moment                           ... YES
Quadrupole moment                       ...  NO
Static polarizability (Dipole/Dipole)   ...  NO
Static polarizability (Dipole/Quad.)    ...  NO
Static polarizability (Quad./Quad.)     ...  NO
Static polarizability (Velocity)        ...  NO

Atomic electric properties:
Dipole moment                           ...  NO
Quadrupole moment                       ...  NO
Static polarizability                   ...  NO

Choice of electric origin               ... Center of mass
Position of electric origin             ...     0.158276     0.127965    -0.393544

General magnetic properties:
Magnetizability                         ...  NO

EPR properties:
g-Tensor (aka g-matrix)                 ...  NO
Zero-Field splitting spin-orbit         ...  NO
Zero-field splitting spin-spin          ...  NO
Hyperfine couplings                     ...  NO (   0 nuclei)
Quadrupole couplings                    ...  NO (   0 nuclei)
Contact density                         ...  NO (   0 nuclei)

NMR properties:
Chemical shifts                         ...  NO (   0 nuclei)
Spin-rotation constants                 ...  NO (   0 nuclei)
Spin-spin couplings                     ...  NO (   0 nuclei,    0 pairs)

Choice of magnetic origin               ... GIAO
Position of magnetic origin             ...     0.000000     0.000000     0.000000

Properties with geometric perturbations:
SCF Hessian                             ...  NO
IR spectrum                             ...  NO
VCD spectrum                            ...  NO
X-ray spectroscopy properties:
SCF XES/XAS/RIXS spectra                ...  NO


-------------
DIPOLE MOMENT
-------------

Method             : SCF
Type of density    : Electron Density
Multiplicity       :   1
Irrep              :   0
Energy             : -1068.3189806459301963 Eh
Relativity type    : 
Basis              : AO
                                X                 Y                 Z
Electronic contribution:      2.011949320       1.905960430      -5.408229365
Nuclear contribution   :     -2.369343449      -1.872645807       5.945173821
                        -----------------------------------------
Total Dipole Moment    :     -0.357394129       0.033314623       0.536944456
                        -----------------------------------------
Magnitude (a.u.)       :      0.645871332
Magnitude (Debye)      :      1.641674459



--------------------
Rotational spectrum 
--------------------
 
Rotational constants in cm-1:             0.012787             0.011350             0.007294 
Rotational constants in MHz :           383.353442           340.255766           218.656665 

Dipole components along the rotational axes: 
x,y,z [a.u.] :    -0.110518     0.223876     0.595663 
x,y,z [Debye]:    -0.280915     0.569048     1.514056 

 

Dipole moment calculation done in   0.0 sec 

Maximum memory used throughout the entire PROP-calculation: 48.4 MB

--------------------------------
SUGGESTED CITATIONS FOR THIS RUN
--------------------------------

Below you find a list of papers that are relevant to this ORCA run
We neither can nor want to force you to cite these papers, but we appreciate if you do
You receive ORCA, which is the product of decades of hard work by many enthusiastic individuals, for free
The only thing we kindly ask in return is that you cite our papers,
We deeply appreciate it, if you show your appreciation for ORCA by not just citing the generic ORCA reference.

Please note that relegating all ORCA citations to the supporting information does *not* help us.
SI sections are not indexed - citations you put there will not count into any citation statistics
But we need these citations in order to attract the funding resources that allow us to do what we are doing

Therefore, if you are a happy ORCA user, please consider citing a few of the papers listed below in the main body of your paper

In addition to the list printed below, the program has created the file data/single_point_P_M06-2x/603962/603962.bibtex that contains the list in bibtex format
You can import this file easily into all common literature databanks and citation aid programs


List of essential papers. We consider these as the minimum necessary citations

  1. Neese,F.
     Software update: the ORCA program system, version 5.0
     WIRES Comput. Molec. Sci., 2022 12(1)e1606
     doi.org/10.1002/wcms.1606

List of papers to cite with high priority. The work reported in these papers was absolutely
necessary for this run to complete.
Our perspective: the developers of density functionals and basis sets usually get cited in chemistry papers
Good! But without the algorithms to do something with them, the functionals or basis sets would not do anything.
Hence, in our opinion, the algorithm design and method developments papers are equally worthy of getting cited

  1. Neese,F.
     An improvement of the resolution of the identity approximation for the formation of the Coulomb matrix
     J. Comp. Chem., 2003 24(14)1740-1747
     doi.org/10.1002/jcc.10318
  2. Neese,F.; Wennmohs,F.; Hansen,A.; Becker,U.
     Efficient, approximate and parallel Hartree-Fock and hybrid DFT calculations. A 'chain-of-spheres' algorithm for the Hartree-Fock exchange
     Chem. Phys., 2009 356(1-3)98-109
     doi.org/10.1016/j.chemphys.2008.10.036
  3. Helmich-Paris,B.; de Souza,B.; Neese,F.; Izsák,R.
     An improved chain of spheres for exchange algorithm
     J. Chem. Phys., 2021 155 104109
     doi.org/doi: 10.1063/5.0058766.
  4. Neese,F.
     The SHARK Integral Generation and Digestion System
     J. Comp. Chem., 2022  1-16
     doi.org/10.1002/jcc.26942
  5. Grimme,S.; Antony,J.; Ehrlich,S.; Krieg,H.
     A consistent and accurate ab initio parametrization of density functional dispersion correction (DFT-D) for the 94 elements H-Pu
     J. Chem. Phys., 2010 132 154104-XXXX
     doi.org/10.1063/1.3382344

List of suggested additional citations. These are papers that are important in the 'surrounding' of 
of this run, or papers that preceded the highly important papers. If you like your results we are grateful for a citation.

  1. Izsak,R.; Neese,F.
     An overlap fitted chain of spheres exchange method
     J. Chem. Phys., 2011 135 144105
     doi.org/10.1063/1.3646921
  2. Izsak,R.; Hansen,A.; Neese,F.
     The resolution of identity and chain of spheres approximations for the LPNO-CCSD singles Fock term
     Molec. Phys., 2012 110 2413-2417
     doi.org/10.1080/00268976.2012.687466
  3. Neese,F.
     The ORCA program system
     WIRES Comput. Molec. Sci., 2012 2(1)73-78
     doi.org/10.1002/wcms.81
  4. Izsak,R.; Neese,F.; Klopper,W.
     Robust fitting techniques in the chain of spheres approximation to the Fock exchange: The role of the complementary space
     J. Chem. Phys., 2013 139 
     doi.org/10.1063/1.4819264
  5. Neese,F.
     Software update: the ORCA program system, version 4.0
     WIRES Comput. Molec. Sci., 2018 8(1)1-6
     doi.org/10.1002/wcms.1327
  6. Neese,F.; Wennmohs,F.; Becker,U.; Riplinger,C.
     The ORCA quantum chemistry program package
     J. Chem. Phys., 2020 152 Art. No. L224108
     doi.org/10.1063/5.0004608

List of optional additional citations

  1. Neese,F.
     Approximate second-order SCF convergence for spin unrestricted wavefunctions
     Chem. Phys. Lett., 2000 325(1-3)93-98
     doi.org/10.1016/s0009-2614(00)00662-x

Timings for individual modules:

Sum of individual times          ...      109.664 sec (=   1.828 min)
Startup calculation              ...        3.473 sec (=   0.058 min)   3.2 %
SCF iterations                   ...      105.903 sec (=   1.765 min)  96.6 %
Property calculations            ...        0.288 sec (=   0.005 min)   0.3 %
                             ****ORCA TERMINATED NORMALLY****
TOTAL RUN TIME: 0 days 0 hours 1 minutes 49 seconds 903 msec
