
                                 *****************
                                 * O   R   C   A *
                                 *****************

                                            #,                                       
                                            ###                                      
                                            ####                                     
                                            #####                                    
                                            ######                                   
                                           ########,                                 
                                     ,,################,,,,,                         
                               ,,#################################,,                 
                          ,,##########################################,,             
                       ,#########################################, ''#####,          
                    ,#############################################,,   '####,        
                  ,##################################################,,,,####,       
                ,###########''''           ''''###############################       
              ,#####''   ,,,,##########,,,,          '''####'''          '####       
            ,##' ,,,,###########################,,,                        '##       
           ' ,,###''''                  '''############,,,                           
         ,,##''                                '''############,,,,        ,,,,,,###''
      ,#''                                            '''#######################'''  
     '                                                          ''''####''''         
             ,#######,   #######,   ,#######,      ##                                
            ,#'     '#,  ##    ##  ,#'     '#,    #''#        ,####,   ,####,        
            ##       ##  ##   ,#'  ##            #'  '#       #'       #'  '#        
            ##       ##  #######   ##           ,######,      #####,   #    #        
            '#,     ,#'  ##    ##  '#,     ,#' ,#      #,     #,   #   #,  ,#        
             '#######'   ##     ##  '#######'  #'      '#     '####' # '####'        



                #########################################################
                #                        -***-                          #
                #          Department of theory and spectroscopy        #
                #                                                       #
                #                      Frank Neese                      #
                #                                                       #
                #     Directorship, Architecture, Infrastructure        #
                #                    SHARK, DRIVERS                     #
                #        Core code/Algorithms in most modules           #
                #                                                       #
                #        Max Planck Institute fuer Kohlenforschung      #
                #                Kaiser Wilhelm Platz 1                 #
                #                 D-45470 Muelheim/Ruhr                 #
                #                      Germany                          #
                #                                                       #
                #                  All rights reserved                  #
                #                        -***-                          #
                #########################################################


                         Program Version 6.0.0  -   RELEASE   -


 With contributions from (in alphabetic order):
   Daniel Aravena         : Magnetic Suceptibility
   Michael Atanasov       : Ab Initio Ligand Field Theory (pilot matlab implementation)
   Alexander A. Auer      : GIAO ZORA, VPT2 properties, NMR spectrum
   Ute Becker             : All parallelization in ORCA, NUMFREQ, NUMCALC
   Giovanni Bistoni       : ED, misc. LED, open-shell LED, HFLD
   Martin Brehm           : Molecular dynamics
   Dmytro Bykov           : pre 5.0 version of the SCF Hessian
   Marcos Casanova-Páez   : Triplet and SCS-CIS(D). UHF-(DLPNO)-IP/EA/STEOM-CCSD. UHF-CVS-IP/STEOM-CCSD
   Vijay G. Chilkuri      : MRCI spin determinant printing, contributions to CSF-ICE
   Pauline Colinet        : FMM embedding
   Dipayan Datta          : RHF DLPNO-CCSD density
   Achintya Kumar Dutta   : EOM-CC, STEOM-CC
   Nicolas Foglia         : Exact transition moments, OPA infrastructure, MCD improvements
   Dmitry Ganyushin       : Spin-Orbit,Spin-Spin,Magnetic field MRCI
   Miquel Garcia          : C-PCM and meta-GGA Hessian, CCSD/C-PCM, Gaussian charge scheme
   Tiago L. C. Gouveia    : GS-ROHF, GS-ROCIS
   Yang Guo               : DLPNO-NEVPT2, F12-NEVPT2, CIM, IAO-localization
   Andreas Hansen         : Spin unrestricted coupled pair/coupled cluster methods
   Ingolf Harden          : AUTO-CI MPn and infrastructure 
   Benjamin Helmich-Paris : MC-RPA, TRAH-(SCF,CASSCF), AVAS, COSX integrals, SCF dyn. polar.
   Lee Huntington         : MR-EOM, pCC
   Robert Izsak           : Overlap fitted RIJCOSX, COSX-SCS-MP3, EOM
   Riya Kayal             : Wick's Theorem for AUTO-CI, AUTO-CI UHF-CCSDT
   Emily Kempfer          : AUTO-CI, RHF CISDT and CCSDT
   Christian Kollmar      : KDIIS, OOCD, Brueckner-CCSD(T), CCSD density, CASPT2, CASPT2-K, improved NEVPT2
   Axel Koslowski         : Symmetry handling
   Simone Kossmann        : Meta GGA functionals, TD-DFT gradient, OOMP2, (MP2 Hessian; deprecated post 5.0)
   Lucas Lang             : DCDCAS
   Marvin Lechner         : AUTO-CI (C++ implementation), FIC-MRCC
   Spencer Leger          : CASSCF response
   Dagmar Lenk            : GEPOL surface, SMD, ORCA-2-JSON
   Dimitrios Liakos       : Extrapolation schemes; Compound Job, initial MDCI parallelization
   Dimitrios Manganas     : Further ROCIS development; embedding schemes. LFT, Crystal Embedding
   Dimitrios Pantazis     : SARC Basis sets
   Anastasios Papadopoulos: AUTO-CI, single reference methods and gradients
   Taras Petrenko         : pre 6.0 DFT Hessian and TD-DFT gradient, (ASA, deprecated), ECA, 1-Electron XAS/XES, NRVS
   Peter Pinski           : DLPNO-MP2, DLPNO-MP2 Gradient
   Christoph Reimann      : Effective Core Potentials
   Marius Retegan         : Local ZFS, SOC
   Christoph Riplinger    : Optimizer, TS searches, QM/MM, DLPNO-CCSD(T), (RO)-DLPNO pert. Triples
   Michael Roemelt        : Original ROCIS implementation
   Masaaki Saitow         : Open-shell DLPNO-CCSD energy and density
   Barbara Sandhoefer     : DKH picture change effects
   Kantharuban Sivalingam : CASSCF convergence/infrastructure, NEVPT2 and variants, FIC-MRCI
   Bernardo de Souza      : ESD, SOC TD-DFT
   Georgi Stoychev        : AutoAux, RI-MP2 NMR, DLPNO-MP2 response, X2C
   Van Anh Tran           : RI-MP2 g-tensors
   Willem Van den Heuvel  : Paramagnetic NMR
   Zikuan Wang            : NOTCH, Electric field optimization 
   Frank Wennmohs         : Technical directorship and infrastructure
   Hang Xu                : AUTO-CI-Response properties 


 We gratefully acknowledge several colleagues who have allowed us to
 interface, adapt or use parts of their codes:
   Stefan Grimme, W. Hujo, H. Kruse, P. Pracht,  : VdW corrections, initial TS optimization,
                  C. Bannwarth, S. Ehlert,         DFT functionals, gCP, sTDA/sTD-DF
                  L. Wittmann, M. Mueller
   Ed Valeev, F. Pavosevic, A. Kumar             : LibInt (2-el integral package), F12 methods
   Garnet Chan, S. Sharma, J. Yang, R. Olivares  : DMRG
   Ulf Ekstrom                                   : XCFun DFT Library
   Mihaly Kallay                                 : mrcc  (arbitrary order and MRCC methods)
   Frank Weinhold                                : gennbo (NPA and NBO analysis)
   Simon Mueller                                 : openCOSMO-RS
   Christopher J. Cramer and Donald G. Truhlar   : smd solvation model
   Lars Goerigk                                  : TD-DFT with DH, B97 family of functionals
   V. Asgeirsson, H. Jonsson                     : NEB implementation
   FAccTs GmbH                                   : IRC, NEB, NEB-TS, DLPNO-Multilevel, CI-OPT
                                                   MM, QMMM, 2- and 3-layer-ONIOM, Crystal-QMMM,
                                                   LR-CPCM, SF, NACMEs, symmetry and pop. for TD-DFT,
                                                   nearIR, NL-DFT gradient (VV10), updates on ESD,
                                                   ML-optimized integration grids, MBIS, APM,
                                                   GOAT, DOCKER, SOLVATOR, interface openCOSMO-RS
   S Lehtola, MJT Oliveira, MAL Marques          : LibXC Library
   Liviu Ungur et al                             : ANISO software


 Your calculation uses the libint2 library for the computation of 2-el integrals
 For citations please refer to: http://libint.valeyev.net

 Your ORCA version has been built with support for libXC version: 6.2.2
 For citations please refer to: https://libxc.gitlab.io

 This ORCA versions uses:
   CBLAS   interface :  Fast vector & matrix operations
   LAPACKE interface :  Fast linear algebra routines
   Shared memory     :  Shared parallel matrices


Your calculation utilizes the atom-pairwise dispersion correction
with the Becke-Johnson damping scheme (D3BJ)


Warning: RI is on but no J-basis has been assigned. Assigning Def2/J (nothing to worry about!)
================================================================================

----- Orbital basis set information -----
Your calculation utilizes the basis: def2-SVP
   F. Weigend and R. Ahlrichs, Phys. Chem. Chem. Phys. 7, 3297 (2005).

----- AuxJ basis set information -----
Your calculation utilizes the auxiliary basis: def2/J
   F. Weigend, Phys. Chem. Chem. Phys. 8, 1057 (2006).

================================================================================
                                        WARNINGS
                       Please study these warnings very carefully!
================================================================================


WARNING: Geometry Optimization
  ===> : Switching off AutoStart
         For restart on a previous wavefunction, please use MOREAD

================================================================================
                                       INPUT FILE
================================================================================
NAME = data/geom_opt_PO_BP86/13956/13956.inp
|  1> ! RI BP86 def2-SVP D3BJ TIGHTSCF Opt
|  2> %pal
|  3> nprocs 6
|  4> end
|  5> 
|  6> * xyz 0 1
|  7> C     -3.625327   -4.468712    0.818394
|  8> C     -2.715023   -3.384509    0.322506
|  9> C     -1.597259   -2.999387    1.070592
| 10> C     -0.728593   -2.013514    0.594532
| 11> C     -0.957059   -1.400471   -0.644638
| 12> C     -2.068772   -1.803979   -1.398825
| 13> C     -2.936592   -2.788597   -0.922977
| 14> P      0.114610   -0.108684   -1.305065
| 15> O      0.247176   -0.234395   -2.814580
| 16> C     -0.591450    1.488366   -0.853110
| 17> C     -1.473110    1.648709    0.224167
| 18> C     -1.981517    2.910433    0.544689
| 19> C     -1.611646    4.036510   -0.198609
| 20> C     -0.746628    3.878252   -1.285867
| 21> C     -0.238915    2.617889   -1.606380
| 22> C     -2.187181    5.383583    0.124207
| 23> C      1.724353   -0.254645   -0.504580
| 24> C      2.662726   -1.150606   -1.037713
| 25> C      3.916205   -1.310608   -0.444245
| 26> C      4.254205   -0.583284    0.701262
| 27> C      3.329237    0.325607    1.226332
| 28> C      2.074265    0.485671    0.632545
| 29> C      5.613969   -0.726600    1.318155
| 30> H     -3.267331   -5.444096    0.474908
| 31> H     -3.668363   -4.472292    1.912632
| 32> H     -4.647009   -4.317868    0.454188
| 33> H     -1.393115   -3.468317    2.031026
| 34> H      0.128744   -1.736772    1.202837
| 35> H     -2.252834   -1.349604   -2.371640
| 36> H     -3.784983   -3.088677   -1.534304
| 37> H     -1.779593    0.795773    0.824348
| 38> H     -2.672808    3.008100    1.379303
| 39> H     -0.463721    4.734685   -1.894161
| 40> H      0.432700    2.509278   -2.457169
| 41> H     -2.389549    5.474918    1.196553
| 42> H     -3.120982    5.533238   -0.426370
| 43> H     -1.486597    6.181810   -0.142714
| 44> H      2.413740   -1.722614   -1.930752
| 45> H      4.627560   -2.005305   -0.885728
| 46> H      3.581804    0.919334    2.102518
| 47> H      1.379032    1.198791    1.068159
| 48> H      5.574385   -0.544083    2.397203
| 49> H      6.003069   -1.740147    1.174780
| 50> H      6.308178   -0.013185    0.863590
| 51> **                         ****END OF INPUT****
================================================================================

                       *****************************
                       * Geometry Optimization Run *
                       *****************************

Geometry optimization settings:
Update method            Update   .... BFGS
Choice of coordinates    CoordSys .... (2022) Redundant Internals
Initial Hessian          InHess   .... Almloef's Model
Max. no of cycles        MaxIter  .... 132

Convergence Tolerances:
Energy Change            TolE     ....  5.0000e-06 Eh
Max. Gradient            TolMAXG  ....  3.0000e-04 Eh/bohr
RMS Gradient             TolRMSG  ....  1.0000e-04 Eh/bohr
Max. Displacement        TolMAXD  ....  4.0000e-03 bohr
RMS Displacement         TolRMSD  ....  2.0000e-03 bohr
Strict Convergence                .... False

------------------------------------------------------------------------------
                        ORCA OPTIMIZATION COORDINATE SETUP
------------------------------------------------------------------------------

The optimization will be done in redundant internal coordinates (2022)
Making redundant internal coordinates   ...  (2022 redundants) done
Evaluating the initial hessian          ...  (Almloef) done
Evaluating the coordinates              ...  done
Calculating the B-matrix                .... done
Calculating the G-matrix                .... done
Diagonalizing the G-matrix              .... done
Small eigenvalue found = 2.940e-03
Small eigenvalue found = 3.050e-03
Small eigenvalue found = 5.352e-03
Small eigenvalue found = 1.921e-02
Small eigenvalue found = 2.078e-02
The first mode is                       ....  100
The number of degrees of freedom        ....  126

    -----------------------------------------------------------------
                    Redundant Internal Coordinates


    -----------------------------------------------------------------
         Definition                    Initial Value    Approx d2E/dq
    -----------------------------------------------------------------
      1. B(C   1,C   0)                  1.5000         0.417073   
      2. B(C   2,C   1)                  1.3991         0.604360   
      3. B(C   3,C   2)                  1.3976         0.607695   
      4. B(C   4,C   3)                  1.4013         0.599454   
      5. B(C   5,C   4)                  1.4027         0.596351   
      6. B(C   6,C   5)                  1.3961         0.611015   
      7. B(C   6,C   1)                  1.3984         0.605883   
      8. B(P   7,C   4)                  1.8037         0.459402   
      9. B(O   8,P   7)                  1.5205         1.164439   
     10. B(C   9,P   7)                  1.8037         0.459401   
     11. B(C  10,C   9)                  1.4013         0.599455   
     12. B(C  11,C  10)                  1.3976         0.607695   
     13. B(C  12,C  11)                  1.3991         0.604362   
     14. B(C  13,C  12)                  1.3984         0.605883   
     15. B(C  14,C   9)                  1.4027         0.596354   
     16. B(C  14,C  13)                  1.3961         0.611015   
     17. B(C  15,C  12)                  1.5000         0.417072   
     18. B(C  16,P   7)                  1.8037         0.459401   
     19. B(C  17,C  16)                  1.4027         0.596352   
     20. B(C  18,C  17)                  1.3961         0.611016   
     21. B(C  19,C  18)                  1.3984         0.605884   
     22. B(C  20,C  19)                  1.3991         0.604361   
     23. B(C  21,C  20)                  1.3976         0.607696   
     24. B(C  21,C  16)                  1.4013         0.599455   
     25. B(C  22,C  19)                  1.5000         0.417072   
     26. B(H  23,C   0)                  1.0943         0.354441   
     27. B(H  24,C   0)                  1.0951         0.353429   
     28. B(H  25,C   0)                  1.0951         0.353422   
     29. B(H  26,C   2)                  1.0881         0.362597   
     30. B(H  27,C   3)                  1.0870         0.364042   
     31. B(H  28,C   5)                  1.0894         0.360948   
     32. B(H  29,C   6)                  1.0879         0.362883   
     33. B(H  30,C  10)                  1.0870         0.364041   
     34. B(H  31,C  11)                  1.0881         0.362597   
     35. B(H  32,C  13)                  1.0879         0.362883   
     36. B(H  33,C  14)                  1.0894         0.360948   
     37. B(H  34,C  15)                  1.0951         0.353430   
     38. B(H  35,C  15)                  1.0943         0.354442   
     39. B(H  36,C  15)                  1.0951         0.353424   
     40. B(H  37,C  17)                  1.0894         0.360947   
     41. B(H  38,C  18)                  1.0879         0.362882   
     42. B(H  39,C  20)                  1.0881         0.362596   
     43. B(H  40,C  21)                  1.0870         0.364042   
     44. B(H  41,C  22)                  1.0951         0.353428   
     45. B(H  42,C  22)                  1.0951         0.353423   
     46. B(H  43,C  22)                  1.0943         0.354442   
     47. A(H  24,C   0,H  25)          107.2239         0.289137   
     48. A(C   1,C   0,H  24)          110.8880         0.329240   
     49. A(H  23,C   0,H  25)          108.8805         0.289267   
     50. A(C   1,C   0,H  25)          110.8959         0.329239   
     51. A(H  23,C   0,H  24)          108.8797         0.289268   
     52. A(C   1,C   0,H  23)          109.9954         0.329396   
     53. A(C   0,C   1,C   6)          120.4180         0.402810   
     54. A(C   2,C   1,C   6)          119.0474         0.430292   
     55. A(C   0,C   1,C   2)          120.4673         0.402632   
     56. A(C   3,C   2,H  26)          119.2132         0.352125   
     57. A(C   1,C   2,C   3)          120.5730         0.430523   
     58. A(C   1,C   2,H  26)          120.2136         0.351798   
     59. A(C   2,C   3,H  27)          118.6325         0.352362   
     60. A(C   4,C   3,H  27)          120.8022         0.351550   
     61. A(C   2,C   3,C   4)          120.5646         0.429894   
     62. A(C   5,C   4,P   7)          118.6889         0.435757   
     63. A(C   3,C   4,P   7)          122.7004         0.436165   
     64. A(C   3,C   4,C   5)          118.6099         0.428443   
     65. A(C   4,C   5,H  28)          119.6090         0.350735   
     66. A(C   6,C   5,H  28)          119.5726         0.352178   
     67. A(C   4,C   5,C   6)          120.8165         0.429914   
     68. A(C   5,C   6,H  29)          119.1939         0.352497   
     69. A(C   1,C   6,H  29)          120.4318         0.351995   
     70. A(C   1,C   6,C   5)          120.3740         0.431139   
     71. A(C   9,P   7,C  16)          108.0474         0.443645   
     72. A(O   8,P   7,C  16)          110.8600         0.523777   
     73. A(C   4,P   7,C   9)          108.0474         0.443645   
     74. A(C   4,P   7,C  16)          108.0474         0.443645   
     75. A(C   4,P   7,O   8)          110.8601         0.523777   
     76. A(O   8,P   7,C   9)          110.8601         0.523777   
     77. A(P   7,C   9,C  10)          122.7004         0.436165   
     78. A(C  10,C   9,C  14)          118.6099         0.428443   
     79. A(P   7,C   9,C  14)          118.6889         0.435757   
     80. A(C  11,C  10,H  30)          118.6324         0.352362   
     81. A(C   9,C  10,H  30)          120.8023         0.351550   
     82. A(C   9,C  10,C  11)          120.5646         0.429894   
     83. A(C  12,C  11,H  31)          120.2135         0.351798   
     84. A(C  10,C  11,H  31)          119.2133         0.352125   
     85. A(C  10,C  11,C  12)          120.5730         0.430523   
     86. A(C  13,C  12,C  15)          120.4181         0.402810   
     87. A(C  11,C  12,C  15)          120.4672         0.402632   
     88. A(C  11,C  12,C  13)          119.0474         0.430293   
     89. A(C  14,C  13,H  32)          119.1938         0.352497   
     90. A(C  12,C  13,H  32)          120.4319         0.351995   
     91. A(C  12,C  13,C  14)          120.3739         0.431139   
     92. A(C  13,C  14,H  33)          119.5726         0.352178   
     93. A(C   9,C  14,H  33)          119.6089         0.350736   
     94. A(C   9,C  14,C  13)          120.8165         0.429914   
     95. A(C  12,C  15,H  36)          110.8960         0.329239   
     96. A(H  34,C  15,H  35)          108.8796         0.289268   
     97. A(C  12,C  15,H  35)          109.9953         0.329396   
     98. A(C  12,C  15,H  34)          110.8880         0.329240   
     99. A(H  35,C  15,H  36)          108.8804         0.289267   
    100. A(H  34,C  15,H  36)          107.2240         0.289138   
    101. A(P   7,C  16,C  21)          122.7004         0.436165   
    102. A(P   7,C  16,C  17)          118.6889         0.435757   
    103. A(C  17,C  16,C  21)          118.6099         0.428443   
    104. A(C  16,C  17,C  18)          120.8165         0.429914   
    105. A(C  18,C  17,H  37)          119.5726         0.352178   
    106. A(C  16,C  17,H  37)          119.6089         0.350735   
    107. A(C  17,C  18,C  19)          120.3740         0.431140   
    108. A(C  19,C  18,H  38)          120.4319         0.351995   
    109. A(C  17,C  18,H  38)          119.1939         0.352497   
    110. A(C  18,C  19,C  20)          119.0474         0.430293   
    111. A(C  20,C  19,C  22)          120.4671         0.402632   
    112. A(C  18,C  19,C  22)          120.4182         0.402811   
    113. A(C  21,C  20,H  39)          119.2132         0.352125   
    114. A(C  19,C  20,H  39)          120.2135         0.351798   
    115. A(C  19,C  20,C  21)          120.5730         0.430523   
    116. A(C  20,C  21,H  40)          118.6325         0.352362   
    117. A(C  16,C  21,H  40)          120.8022         0.351550   
    118. A(C  16,C  21,C  20)          120.5646         0.429894   
    119. A(H  42,C  22,H  43)          108.8806         0.289267   
    120. A(H  41,C  22,H  43)          108.8795         0.289268   
    121. A(C  19,C  22,H  43)          109.9954         0.329396   
    122. A(H  41,C  22,H  42)          107.2239         0.289137   
    123. A(C  19,C  22,H  42)          110.8961         0.329239   
    124. A(C  19,C  22,H  41)          110.8879         0.329240   
    125. D(C   6,C   1,C   0,H  23)     88.5134         0.012868   
    126. D(C   2,C   1,C   0,H  24)     32.0176         0.012868   
    127. D(C   2,C   1,C   0,H  23)    -88.4749         0.012868   
    128. D(C   2,C   1,C   0,H  25)    151.0264         0.012868   
    129. D(C   6,C   1,C   0,H  24)   -150.9941         0.012868   
    130. D(C   3,C   2,C   1,C   0)    178.3502         0.025199   
    131. D(C   3,C   2,C   1,C   6)      1.3210         0.025199   
    132. D(H  26,C   2,C   1,C   0)     -1.4624         0.025199   
    133. D(H  26,C   2,C   1,C   6)   -178.4916         0.025199   
    134. D(H  27,C   3,C   2,H  26)     -0.3440         0.025494   
    135. D(C   4,C   3,C   2,C   1)     -0.4513         0.025494   
    136. D(H  27,C   3,C   2,C   1)    179.8415         0.025494   
    137. D(C   4,C   3,C   2,H  26)    179.3631         0.025494   
    138. D(C   5,C   4,C   3,C   2)     -0.4426         0.024770   
    139. D(C   5,C   4,C   3,H  27)    179.2582         0.024770   
    140. D(P   7,C   4,C   3,C   2)    179.2366         0.024770   
    141. D(P   7,C   4,C   3,H  27)     -1.0627         0.024770   
    142. D(H  28,C   5,C   4,C   3)   -179.0221         0.024501   
    143. D(H  28,C   5,C   4,P   7)      1.2857         0.024501   
    144. D(C   6,C   5,C   4,P   7)   -179.2332         0.024501   
    145. D(C   6,C   5,C   4,C   3)      0.4590         0.024501   
    146. D(C   5,C   6,C   1,C   0)   -178.3338         0.025334   
    147. D(H  29,C   6,C   5,H  28)      0.1034         0.025789   
    148. D(H  29,C   6,C   5,C   4)   -179.3779         0.025789   
    149. D(C   1,C   6,C   5,H  28)    179.9006         0.025789   
    150. D(C   1,C   6,C   5,C   4)      0.4192         0.025789   
    151. D(H  29,C   6,C   1,C   2)    178.4915         0.025334   
    152. D(H  29,C   6,C   1,C   0)      1.4608         0.025334   
    153. D(C   5,C   6,C   1,C   2)     -1.3031         0.025334   
    154. D(O   8,P   7,C   4,C   3)    143.8742         0.004382   
    155. D(O   8,P   7,C   4,C   5)    -36.4469         0.004382   
    156. D(C  16,P   7,C   4,C   3)     22.2096         0.004382   
    157. D(C   9,P   7,C   4,C   5)     85.2178         0.004382   
    158. D(C   9,P   7,C   4,C   3)    -94.4611         0.004382   
    159. D(C  14,C   9,P   7,O   8)    -36.4464         0.004382   
    160. D(C  14,C   9,P   7,C   4)   -158.1111         0.004382   
    161. D(C  10,C   9,P   7,C  16)    -94.4607         0.004382   
    162. D(C  10,C   9,P   7,O   8)    143.8747         0.004382   
    163. D(C  10,C   9,P   7,C   4)     22.2100         0.004382   
    164. D(H  30,C  10,C   9,C  14)    179.2581         0.024770   
    165. D(H  30,C  10,C   9,P   7)     -1.0628         0.024770   
    166. D(C  11,C  10,C   9,C  14)     -0.4427         0.024770   
    167. D(C  11,C  10,C   9,P   7)    179.2364         0.024770   
    168. D(H  31,C  11,C  10,H  30)     -0.3441         0.025494   
    169. D(H  31,C  11,C  10,C   9)    179.3630         0.025494   
    170. D(C  12,C  11,C  10,H  30)    179.8416         0.025494   
    171. D(C  12,C  11,C  10,C   9)     -0.4512         0.025494   
    172. D(C  15,C  12,C  11,H  31)     -1.4622         0.025200   
    173. D(C  15,C  12,C  11,C  10)    178.3501         0.025200   
    174. D(C  13,C  12,C  11,H  31)   -178.4914         0.025200   
    175. D(C  13,C  12,C  11,C  10)      1.3210         0.025200   
    176. D(H  32,C  13,C  12,C  15)      1.4609         0.025334   
    177. D(H  32,C  13,C  12,C  11)    178.4916         0.025334   
    178. D(C  14,C  13,C  12,C  15)   -178.3338         0.025334   
    179. D(C  14,C  13,C  12,C  11)     -1.3031         0.025334   
    180. D(H  33,C  14,C  13,C  12)    179.9006         0.025789   
    181. D(C   9,C  14,C  13,H  32)   -179.3779         0.025789   
    182. D(C   9,C  14,C  13,C  12)      0.4193         0.025789   
    183. D(H  33,C  14,C   9,C  10)   -179.0221         0.024501   
    184. D(H  33,C  14,C   9,P   7)      1.2857         0.024501   
    185. D(C  13,C  14,C   9,C  10)      0.4590         0.024501   
    186. D(H  33,C  14,C  13,H  32)      0.1034         0.025789   
    187. D(C  13,C  14,C   9,P   7)   -179.2332         0.024501   
    188. D(H  36,C  15,C  12,C  11)    151.0294         0.012868   
    189. D(H  35,C  15,C  12,C  13)     88.5162         0.012868   
    190. D(H  35,C  15,C  12,C  11)    -88.4720         0.012868   
    191. D(H  34,C  15,C  12,C  13)   -150.9914         0.012868   
    192. D(H  34,C  15,C  12,C  11)     32.0203         0.012868   
    193. D(C  21,C  16,P   7,O   8)    143.8739         0.004382   
    194. D(C  21,C  16,P   7,C   4)    -94.4615         0.004382   
    195. D(C  17,C  16,P   7,C   9)   -158.1118         0.004382   
    196. D(C  17,C  16,P   7,O   8)    -36.4472         0.004382   
    197. D(C  17,C  16,P   7,C   4)     85.2174         0.004382   
    198. D(H  37,C  17,C  16,C  21)   -179.0220         0.024501   
    199. D(H  37,C  17,C  16,P   7)      1.2858         0.024501   
    200. D(C  18,C  17,C  16,C  21)      0.4590         0.024501   
    201. D(C  18,C  17,C  16,P   7)   -179.2331         0.024501   
    202. D(H  38,C  18,C  17,H  37)      0.1032         0.025789   
    203. D(H  38,C  18,C  17,C  16)   -179.3781         0.025789   
    204. D(C  19,C  18,C  17,H  37)    179.9005         0.025789   
    205. D(C  19,C  18,C  17,C  16)      0.4193         0.025789   
    206. D(C  22,C  19,C  18,H  38)      1.4610         0.025334   
    207. D(C  22,C  19,C  18,C  17)   -178.3339         0.025334   
    208. D(C  20,C  19,C  18,H  38)    178.4917         0.025334   
    209. D(C  20,C  19,C  18,C  17)     -1.3032         0.025334   
    210. D(H  39,C  20,C  19,C  22)     -1.4623         0.025200   
    211. D(H  39,C  20,C  19,C  18)   -178.4915         0.025200   
    212. D(C  21,C  20,C  19,C  22)    178.3502         0.025200   
    213. D(C  21,C  20,C  19,C  18)      1.3210         0.025200   
    214. D(H  40,C  21,C  20,H  39)     -0.3441         0.025494   
    215. D(H  40,C  21,C  20,C  19)    179.8416         0.025494   
    216. D(C  16,C  21,C  20,H  39)    179.3631         0.025494   
    217. D(C  16,C  21,C  20,C  19)     -0.4513         0.025494   
    218. D(H  40,C  21,C  16,C  17)    179.2581         0.024770   
    219. D(H  40,C  21,C  16,P   7)     -1.0628         0.024770   
    220. D(C  20,C  21,C  16,C  17)     -0.4427         0.024770   
    221. D(C  20,C  21,C  16,P   7)    179.2364         0.024770   
    222. D(H  43,C  22,C  19,C  18)     88.5161         0.012868   
    223. D(H  42,C  22,C  19,C  20)    151.0290         0.012868   
    224. D(H  42,C  22,C  19,C  18)    -31.9827         0.012868   
    225. D(H  41,C  22,C  19,C  20)     32.0201         0.012868   
    226. D(H  41,C  22,C  19,C  18)   -150.9917         0.012868   
    -----------------------------------------------------------------

Number of atoms                         .... 44
Number of degrees of freedom            .... 226


         *************************************************************
         *                GEOMETRY OPTIMIZATION CYCLE   1            *
         *************************************************************
---------------------------------
CARTESIAN COORDINATES (ANGSTROEM)
---------------------------------
  C     -3.625327   -4.468712    0.818394
  C     -2.715023   -3.384509    0.322506
  C     -1.597259   -2.999387    1.070592
  C     -0.728593   -2.013514    0.594532
  C     -0.957059   -1.400471   -0.644638
  C     -2.068772   -1.803979   -1.398825
  C     -2.936592   -2.788597   -0.922977
  P      0.114610   -0.108684   -1.305065
  O      0.247176   -0.234395   -2.814580
  C     -0.591450    1.488366   -0.853110
  C     -1.473110    1.648709    0.224167
  C     -1.981517    2.910433    0.544689
  C     -1.611646    4.036510   -0.198609
  C     -0.746628    3.878252   -1.285867
  C     -0.238915    2.617889   -1.606380
  C     -2.187181    5.383583    0.124207
  C      1.724353   -0.254645   -0.504580
  C      2.662726   -1.150606   -1.037713
  C      3.916205   -1.310608   -0.444245
  C      4.254205   -0.583284    0.701262
  C      3.329237    0.325607    1.226332
  C      2.074265    0.485671    0.632545
  C      5.613969   -0.726600    1.318155
  H     -3.267331   -5.444096    0.474908
  H     -3.668363   -4.472292    1.912632
  H     -4.647009   -4.317868    0.454188
  H     -1.393115   -3.468317    2.031026
  H      0.128744   -1.736772    1.202837
  H     -2.252834   -1.349604   -2.371640
  H     -3.784983   -3.088677   -1.534304
  H     -1.779593    0.795773    0.824348
  H     -2.672808    3.008100    1.379303
  H     -0.463721    4.734685   -1.894161
  H      0.432700    2.509278   -2.457169
  H     -2.389549    5.474918    1.196553
  H     -3.120982    5.533238   -0.426370
  H     -1.486597    6.181810   -0.142714
  H      2.413740   -1.722614   -1.930752
  H      4.627560   -2.005305   -0.885728
  H      3.581804    0.919334    2.102518
  H      1.379032    1.198791    1.068159
  H      5.574385   -0.544083    2.397203
  H      6.003069   -1.740147    1.174780
  H      6.308178   -0.013185    0.863590

----------------------------
CARTESIAN COORDINATES (A.U.)
----------------------------
  NO LB      ZA    FRAG     MASS         X           Y           Z
   0 C     6.0000    0    12.011   -6.850875   -8.444642    1.546541
   1 C     6.0000    0    12.011   -5.130650   -6.395795    0.609448
   2 C     6.0000    0    12.011   -3.018382   -5.668020    2.023126
   3 C     6.0000    0    12.011   -1.376841   -3.804990    1.123503
   4 C     6.0000    0    12.011   -1.808579   -2.646507   -1.218189
   5 C     6.0000    0    12.011   -3.909413   -3.409026   -2.643396
   6 C     6.0000    0    12.011   -5.549355   -5.269685   -1.744174
   7 P    15.0000    0    30.974    0.216582   -0.205383   -2.466215
   8 O     8.0000    0    15.999    0.467095   -0.442942   -5.318785
   9 C     6.0000    0    12.011   -1.117679    2.812604   -1.612144
  10 C     6.0000    0    12.011   -2.783774    3.115608    0.423614
  11 C     6.0000    0    12.011   -3.744524    5.499921    1.029313
  12 C     6.0000    0    12.011   -3.045570    7.627898   -0.375317
  13 C     6.0000    0    12.011   -1.410922    7.328834   -2.429936
  14 C     6.0000    0    12.011   -0.451484    4.947093   -3.035618
  15 C     6.0000    0    12.011   -4.133173   10.173497    0.234717
  16 C     6.0000    0    12.011    3.258555   -0.481209   -0.953518
  17 C     6.0000    0    12.011    5.031823   -2.174330   -1.960993
  18 C     6.0000    0    12.011    7.400555   -2.476690   -0.839501
  19 C     6.0000    0    12.011    8.039282   -1.102247    1.325193
  20 C     6.0000    0    12.011    6.291346    0.615308    2.317432
  21 C     6.0000    0    12.011    3.919793    0.917785    1.195337
  22 C     6.0000    0    12.011   10.608864   -1.373075    2.490952
  23 H     1.0000    0     1.008   -6.174361  -10.287850    0.897446
  24 H     1.0000    0     1.008   -6.932201   -8.451407    3.614351
  25 H     1.0000    0     1.008   -8.781574   -8.159588    0.858291
  26 H     1.0000    0     1.008   -2.632606   -6.554169    3.838083
  27 H     1.0000    0     1.008    0.243291   -3.282023    2.273033
  28 H     1.0000    0     1.008   -4.257239   -2.550382   -4.481750
  29 H     1.0000    0     1.008   -7.152581   -5.836754   -2.899414
  30 H     1.0000    0     1.008   -3.362943    1.503793    1.557792
  31 H     1.0000    0     1.008   -5.050875    5.684485    2.606505
  32 H     1.0000    0     1.008   -0.876306    8.947258   -3.579446
  33 H     1.0000    0     1.008    0.817684    4.741848   -4.643376
  34 H     1.0000    0     1.008   -4.515593   10.346096    2.261157
  35 H     1.0000    0     1.008   -5.897801   10.456304   -0.805723
  36 H     1.0000    0     1.008   -2.809261   11.681928   -0.269690
  37 H     1.0000    0     1.008    4.561308   -3.255269   -3.648593
  38 H     1.0000    0     1.008    8.744821   -3.789477   -1.673783
  39 H     1.0000    0     1.008    6.768629    1.737289    3.973183
  40 H     1.0000    0     1.008    2.605993    2.265387    2.018528
  41 H     1.0000    0     1.008   10.534061   -1.028168    4.530057
  42 H     1.0000    0     1.008   11.344156   -3.288401    2.220012
  43 H     1.0000    0     1.008   11.920729   -0.024916    1.631949

--------------------------------
INTERNAL COORDINATES (ANGSTROEM)
--------------------------------
 C      0   0   0     0.000000000000     0.00000000     0.00000000
 C      1   0   0     1.500018141947     0.00000000     0.00000000
 C      2   1   0     1.399052528669   120.46725677     0.00000000
 C      3   2   1     1.397554762893   120.57299388   178.35019667
 C      4   3   2     1.401271109352   120.56459930   359.54865641
 C      5   4   3     1.402684045465   118.60991028   359.55740910
 C      6   5   4     1.396071444242   120.81645939     0.45902052
 P      5   4   3     1.803705053843   122.70042796   179.23656384
 O      8   5   4     1.520530346656   110.86006697   143.87420930
 C      8   5   4     1.803705283056   108.04743685   265.53887963
 C     10   8   5     1.401270840337   122.70040342    22.21002676
 C     11  10   8     1.397554822649   120.56462270   179.23644264
 C     12  11  10     1.399051780090   120.57297197   359.54876248
 C     13  12  11     1.398367510153   119.04739472     1.32095110
 C     14  13  12     1.396071618975   120.37393501   358.69687929
 C     13  12  11     1.500018791019   120.46716937   178.35013948
 C      8   5   4     1.803705456774   108.04737416    22.20961355
 C     17   8   5     1.402683426985   118.68892425    85.21741481
 C     18  17   8     1.396071097928   120.81646203   180.76685519
 C     19  18  17     1.398367079141   120.37397901     0.41927989
 C     20  19  18     1.399052234838   119.04737203   358.69683258
 C     21  20  19     1.397554366116   120.57296930     1.32101598
 C     20  19  18     1.500018194890   120.41818006   181.66614529
 H      1   2   3     1.094311525877   109.99542437   271.52509096
 H      1   2   3     1.095089820216   110.88803293    32.01759334
 H      1   2   3     1.095095444195   110.89589249   151.02643048
 H      3   2   1     1.088119288494   120.21356106   358.53759538
 H      4   3   2     1.087036263957   118.63252744   179.84149065
 H      6   5   4     1.089359667279   119.60896507   180.97788905
 H      7   6   5     1.087904405823   119.19389090   180.62208197
 H     11  10   8     1.087036743696   120.80228321   358.93719113
 H     12  11  10     1.088118843953   119.21325794   179.36300552
 H     14  13  12     1.087904152292   120.43191543   178.49156470
 H     15  14  13     1.089359894648   119.57257784   179.90056334
 H     16  13  12     1.095089417977   110.88797335    32.02030724
 H     16  13  12     1.094310723494   109.99534970   271.52795470
 H     16  13  12     1.095094107749   110.89601234   151.02937060
 H     18  17   8     1.089360287408   119.60892138     1.28579099
 H     19  18  17     1.087904911802   119.19385429   180.62193131
 H     21  20  19     1.088119362301   120.21351934   181.50854784
 H     22  21  20     1.087036621133   118.63246451   179.84155367
 H     23  20  19     1.095090833972   110.88793240   209.00834944
 H     23  20  19     1.095094846045   110.89606538   328.01730259
 H     23  20  19     1.094310941703   109.99544121    88.51613924

---------------------------
INTERNAL COORDINATES (A.U.)
---------------------------
 C      0   0   0     0.000000000000     0.00000000     0.00000000
 C      1   0   0     2.834623484193     0.00000000     0.00000000
 C      2   1   0     2.643826126155   120.46725677     0.00000000
 C      3   2   1     2.640995759025   120.57299388   178.35019667
 C      4   3   2     2.648018636052   120.56459930   359.54865641
 C      5   4   3     2.650688698350   118.60991028   359.55740910
 C      6   5   4     2.638192693005   120.81645939     0.45902052
 P      5   4   3     3.408508578133   122.70042796   179.23656384
 O      8   5   4     2.873385933496   110.86006697   143.87420930
 C      8   5   4     3.408509011283   108.04743685   265.53887963
 C     10   8   5     2.648018127686   122.70040342    22.21002676
 C     11  10   8     2.640995871947   120.56462270   179.23644264
 C     12  11  10     2.643824711546   120.57297197   359.54876248
 C     13  12  11     2.642531628763   119.04739472     1.32095110
 C     14  13  12     2.638193023202   120.37393501   358.69687929
 C     13  12  11     2.834624710762   120.46716937   178.35013948
 C      8   5   4     3.408509339562   108.04737416    22.20961355
 C     17   8   5     2.650687529592   118.68892425    85.21741481
 C     18  17   8     2.638192038566   120.81646203   180.76685519
 C     19  18  17     2.642530814268   120.37397901     0.41927989
 C     20  19  18     2.643825570894   119.04737203   358.69683258
 C     21  20  19     2.640995009225   120.57296930     1.32101598
 C     20  19  18     2.834623584241   120.41818006   181.66614529
 H      1   2   3     2.067949089102   109.99542437   271.52509096
 H      1   2   3     2.069419852253   110.88803293    32.01759334
 H      1   2   3     2.069430480033   110.89589249   151.02643048
 H      3   2   1     2.056247456290   120.21356106   358.53759538
 H      4   3   2     2.054200836520   118.63252744   179.84149065
 H      6   5   4     2.058591432497   119.60896507   180.97788905
 H      7   6   5     2.055841386893   119.19389090   180.62208197
 H     11  10   8     2.054201743096   120.80228321   358.93719113
 H     12  11  10     2.056246616231   119.21325794   179.36300552
 H     14  13  12     2.055840907787   120.43191543   178.49156470
 H     15  14  13     2.058591862162   119.57257784   179.90056334
 H     16  13  12     2.069419092132   110.88797335    32.02030724
 H     16  13  12     2.067947572818   109.99534970   271.52795470
 H     16  13  12     2.069427954516   110.89601234   151.02937060
 H     18  17   8     2.058592604370   119.60892138     1.28579099
 H     19  18  17     2.055842343054   119.19385429   180.62193131
 H     21  20  19     2.056247595766   120.21351934   181.50854784
 H     22  21  20     2.054201511485   118.63246451   179.84155367
 H     23  20  19     2.069421767974   110.88793240   209.00834944
 H     23  20  19     2.069429349693   110.89606538   328.01730259
 H     23  20  19     2.067947985172   109.99544121    88.51613924

---------------------
BASIS SET INFORMATION
---------------------
There are 4 groups of distinct atoms

 Group   1 Type C   : 7s4p1d contracted to 3s2p1d pattern {511/31/1}
 Group   2 Type P   : 10s7p1d contracted to 4s3p1d pattern {5311/511/1}
 Group   3 Type O   : 7s4p1d contracted to 3s2p1d pattern {511/31/1}
 Group   4 Type H   : 4s1p contracted to 2s1p pattern {31/1}

Atom   0C    basis set group =>   1
Atom   1C    basis set group =>   1
Atom   2C    basis set group =>   1
Atom   3C    basis set group =>   1
Atom   4C    basis set group =>   1
Atom   5C    basis set group =>   1
Atom   6C    basis set group =>   1
Atom   7P    basis set group =>   2
Atom   8O    basis set group =>   3
Atom   9C    basis set group =>   1
Atom  10C    basis set group =>   1
Atom  11C    basis set group =>   1
Atom  12C    basis set group =>   1
Atom  13C    basis set group =>   1
Atom  14C    basis set group =>   1
Atom  15C    basis set group =>   1
Atom  16C    basis set group =>   1
Atom  17C    basis set group =>   1
Atom  18C    basis set group =>   1
Atom  19C    basis set group =>   1
Atom  20C    basis set group =>   1
Atom  21C    basis set group =>   1
Atom  22C    basis set group =>   1
Atom  23H    basis set group =>   4
Atom  24H    basis set group =>   4
Atom  25H    basis set group =>   4
Atom  26H    basis set group =>   4
Atom  27H    basis set group =>   4
Atom  28H    basis set group =>   4
Atom  29H    basis set group =>   4
Atom  30H    basis set group =>   4
Atom  31H    basis set group =>   4
Atom  32H    basis set group =>   4
Atom  33H    basis set group =>   4
Atom  34H    basis set group =>   4
Atom  35H    basis set group =>   4
Atom  36H    basis set group =>   4
Atom  37H    basis set group =>   4
Atom  38H    basis set group =>   4
Atom  39H    basis set group =>   4
Atom  40H    basis set group =>   4
Atom  41H    basis set group =>   4
Atom  42H    basis set group =>   4
Atom  43H    basis set group =>   4
---------------------------------
AUXILIARY/J BASIS SET INFORMATION
---------------------------------
There are 4 groups of distinct atoms

 Group   1 Type C   : 12s5p4d2f1g contracted to 6s4p3d1f1g pattern {711111/2111/211/2/1}
 Group   2 Type P   : 14s5p5d2f1g contracted to 8s4p3d1f1g pattern {71111111/2111/311/2/1}
 Group   3 Type O   : 12s5p4d2f1g contracted to 6s4p3d1f1g pattern {711111/2111/211/2/1}
 Group   4 Type H   : 5s2p1d contracted to 3s1p1d pattern {311/2/1}

Atom   0C    basis set group =>   1
Atom   1C    basis set group =>   1
Atom   2C    basis set group =>   1
Atom   3C    basis set group =>   1
Atom   4C    basis set group =>   1
Atom   5C    basis set group =>   1
Atom   6C    basis set group =>   1
Atom   7P    basis set group =>   2
Atom   8O    basis set group =>   3
Atom   9C    basis set group =>   1
Atom  10C    basis set group =>   1
Atom  11C    basis set group =>   1
Atom  12C    basis set group =>   1
Atom  13C    basis set group =>   1
Atom  14C    basis set group =>   1
Atom  15C    basis set group =>   1
Atom  16C    basis set group =>   1
Atom  17C    basis set group =>   1
Atom  18C    basis set group =>   1
Atom  19C    basis set group =>   1
Atom  20C    basis set group =>   1
Atom  21C    basis set group =>   1
Atom  22C    basis set group =>   1
Atom  23H    basis set group =>   4
Atom  24H    basis set group =>   4
Atom  25H    basis set group =>   4
Atom  26H    basis set group =>   4
Atom  27H    basis set group =>   4
Atom  28H    basis set group =>   4
Atom  29H    basis set group =>   4
Atom  30H    basis set group =>   4
Atom  31H    basis set group =>   4
Atom  32H    basis set group =>   4
Atom  33H    basis set group =>   4
Atom  34H    basis set group =>   4
Atom  35H    basis set group =>   4
Atom  36H    basis set group =>   4
Atom  37H    basis set group =>   4
Atom  38H    basis set group =>   4
Atom  39H    basis set group =>   4
Atom  40H    basis set group =>   4
Atom  41H    basis set group =>   4
Atom  42H    basis set group =>   4
Atom  43H    basis set group =>   4


           ************************************************************
           *        Program running with 6 parallel MPI-processes     *
           *              working on a common directory               *
           ************************************************************
------------------------------------------------------------------------------
                             ORCA STARTUP CALCULATIONS
                           -- RI-GTO INTEGRALS CHOSEN --
------------------------------------------------------------------------------
------------------------------------------------------------------------------
                   ___                                                        
                  /   \      - P O W E R E D   B Y -                         
                 /     \                                                     
                 |  |  |   _    _      __       _____    __    __             
                 |  |  |  | |  | |    /  \     |  _  \  |  |  /  |          
                  \  \/   | |  | |   /    \    | | | |  |  | /  /          
                 / \  \   | |__| |  /  /\  \   | |_| |  |  |/  /          
                |  |  |   |  __  | /  /__\  \  |    /   |      \           
                |  |  |   | |  | | |   __   |  |    \   |  |\   \          
                \     /   | |  | | |  |  |  |  | |\  \  |  | \   \       
                 \___/    |_|  |_| |__|  |__|  |_| \__\ |__|  \__/        
                                                                              
                      - O R C A' S   B I G   F R I E N D -                    
                                      &                                       
                       - I N T E G R A L  F E E D E R -                       
                                                                              
 v1 FN, 2020, v2 2021, v3 2022-2024                                           
------------------------------------------------------------------------------


----------------------
SHARK INTEGRAL PACKAGE
----------------------

Number of atoms                             ...     44
Number of basis functions                   ...    431
Number of shells                            ...    203
Maximum angular momentum                    ...      2
Integral batch strategy                     ... SHARK/LIBINT Hybrid
RI-J (if used) integral strategy            ... SPLIT-RIJ (Revised 2003 algorithm where possible)
Printlevel                                  ...      1
Contraction scheme used                     ... SEGMENTED contraction
Prescreening option                         ... SCHWARTZ
   Thresh                                   ... 2.500e-11
   Tcut                                     ... 2.500e-12
   Tpresel                                  ... 2.500e-12 
Coulomb Range Separation                    ... NOT USED
Exchange Range Separation                   ... NOT USED
Multipole approximations                    ... NOT USED
Finite Nucleus Model                        ... NOT USED
CABS basis                                  ... NOT available
Auxiliary Coulomb fitting basis             ... AVAILABLE
   # of basis functions in Aux-J            ...   1360
   # of shells in Aux-J                     ...    452
   Maximum angular momentum in Aux-J        ...      4
Auxiliary J/K fitting basis                 ... NOT available
Auxiliary Correlation fitting basis         ... NOT available
Auxiliary 'external' fitting basis          ... NOT available

Checking pre-screening integrals            ... done (  0.0 sec) Dimension = 203
Check shell pair data                       ... done (  0.0 sec)
Shell pair information
Shell pair cut-off parameter TPreSel        ...   2.5e-12
Total number of shell pairs                 ...     20706
Shell pairs after pre-screening             ...     14273
Total number of primitive shell pairs       ...     75450
Primitive shell pairs kept                  ...     32957
          la=0 lb=0:   4491 shell pairs
          la=1 lb=0:   5350 shell pairs
          la=1 lb=1:   1639 shell pairs
          la=2 lb=0:   1649 shell pairs
          la=2 lb=1:    997 shell pairs
          la=2 lb=2:    147 shell pairs

Calculating one electron integrals          ... done (  0.0 sec)
Calculating RI/J V-Matrix + Cholesky decomp.... done (  0.1 sec)
Calculating Nuclear repulsion               ... done (  0.0 sec) ENN=   1952.486177590908 Eh

Diagonalization of the overlap matrix:
Smallest eigenvalue                        ... 2.613e-04
Time for diagonalization                   ...    0.026 sec
Threshold for overlap eigenvalues          ... 1.000e-07
Number of eigenvalues below threshold      ... 0
Time for construction of square roots      ...    0.014 sec
Total time needed                          ...    0.042 sec

-------------------
DFT GRID GENERATION
-------------------

General Integration Accuracy     IntAcc      ... 4.388
Radial Grid Type                 RadialGrid  ... OptM3 with GC (2021)
Angular Grid (max. ang.)         AngularGrid ... 4 (Lebedev-302)
Angular grid pruning method      GridPruning ... 4 (adaptive)
Weight generation scheme         WeightScheme... mBecke (2022)
Basis function cutoff            BFCut       ... 1.0000e-11
Integration weight cutoff        WCut        ... 1.0000e-14
Partially contracted basis set               ... off
Rotationally invariant grid construction     ... off
Angular grids for H and He will be reduced by one unit

Total number of grid points                  ...   205600
Total number of batches                      ...     3233
Average number of points per batch           ...       63
Average number of grid points per atom       ...     4673
Initializing property integral containers    ... done (  0.0 sec)

SHARK setup successfully completed in   1.6 seconds

Maximum memory used throughout the entire STARTUP-calculation: 57.0 MB


           ************************************************************
           *        Program running with 6 parallel MPI-processes     *
           *              working on a common directory               *
           ************************************************************
-------------------------------------------------------------------------------
                                 ORCA GUESS
                   Start orbitals & Density for SCF / CASSCF
-------------------------------------------------------------------------------

------------
SCF SETTINGS
------------
Hamiltonian:
 Density Functional     Method          .... DFT(GTOs)
 Exchange Functional    Exchange        .... B88
   X-Alpha parameter    XAlpha          ....  0.666667
   Becke's b parameter  XBeta           ....  0.004200
 Correlation Functional Correlation     .... P86
 LDA part of GGA corr.  LDAOpt          .... PW91-LDA
 Gradients option       PostSCFGGA      .... off
   NL short-range parameter             ....  4.400000
 RI-approximation to the Coulomb term is turned on
   Number of AuxJ basis functions       .... 1360


General Settings:
 Integral files         IntName         .... data/geom_opt_PO_BP86/13956/13956
 Hartree-Fock type      HFTyp           .... RHF
 Total Charge           Charge          ....    0
 Multiplicity           Mult            ....    1
 Number of Electrons    NEL             ....  170
 Basis Dimension        Dim             ....  431
 Nuclear Repulsion      ENuc            ....   1952.4861775909 Eh

Convergence Acceleration:
 AO-DIIS                CNVDIIS         .... on
   Start iteration      DIISMaxIt       ....    12
   Startup error        DIISStart       ....  0.200000
   # of expansion vecs  DIISMaxEq       ....     5
   Bias factor          DIISBfac        ....   1.050
   Max. coefficient     DIISMaxC        ....  10.000
 MO-DIIS                CNVKDIIS        .... off
 Trust-Rad. Augm. Hess. CNVTRAH         .... auto
   Auto Start mean grad. ratio tolernc. ....  1.125000
   Auto Start start iteration           ....    50
   Auto Start num. interpolation iter.  ....    10
   Max. Number of Micro iterations      ....    24
   Max. Number of Macro iterations      .... Maxiter - #DIIS iter
   Number of Davidson start vectors     ....     2
   Converg. threshold    (grad. norm)   ....   1.000e-05
   Grad. Scal. Fac. for Micro threshold ....   0.100
   Minimum threshold for Micro iter.    ....   1.000e-02
   NR start threshold (gradient norm)   ....   1.000e-04
   Initial trust radius                 ....   0.400
   Minimum AH scaling param. (alpha)    ....   1.000
   Maximum AH scaling param. (alpha)    .... 1000.000
   Quad. conv. algorithm                .... NR
   White noise on init. David. guess    .... on
   Maximum white noise                  ....   0.010
   Pseudo random numbers                .... off
   Inactive MOs                         .... canonical
   Orbital update algorithm             .... Taylor
   Preconditioner                       .... Diag
   Full preconditioner red. dimension   ....   250
 SOSCF                  CNVSOSCF        .... on
   Start iteration      SOSCFMaxIt      ....   150
   Startup grad/error   SOSCFStart      ....  0.003300
   Hessian update       SOSCFHessUp     .... L-BFGS
 Level Shifting         CNVShift        .... on
   Level shift para.    LevelShift      ....    0.2500
   Turn off err/grad.   ShiftErr        ....    0.0010
 Zerner damping         CNVZerner       .... off
 Static damping         CNVDamp         .... on
   Fraction old density DampFac         ....    0.7000
   Max. Damping (<1)    DampMax         ....    0.9800
   Min. Damping (>=0)   DampMin         ....    0.0000
   Turn off err/grad.   DampErr         ....    0.1000

SCF Procedure:
 Maximum # iterations   MaxIter         ....   125
 SCF integral mode      SCFMode         .... Direct
   Integral package                     .... SHARK and LIBINT hybrid scheme
 Reset frequency        DirectResetFreq ....    20
 Integral Threshold     Thresh          ....  2.500e-11 Eh
 Primitive CutOff       TCut            ....  2.500e-12 Eh

Convergence Tolerance:
 Convergence Check Mode ConvCheckMode   .... Total+1el-Energy
 Convergence forced     ConvForced      .... 0
 Energy Change          TolE            ....  1.000e-08 Eh
 1-El. energy change                    ....  1.000e-05 Eh
 Orbital Gradient       TolG            ....  1.000e-05
 Orbital Rotation angle TolX            ....  1.000e-05
 DIIS Error             TolErr          ....  5.000e-07

------------------------------
INITIAL GUESS: MODEL POTENTIAL
------------------------------
Loading Hartree-Fock densities                     ... done
Calculating cut-offs                               ... done
Initializing the effective Hamiltonian             ... done
Setting up the integral package (SHARK)            ... done
Starting the Coulomb interaction                   ... done (   0.3 sec)
Making the grid                                    ... done (   0.3 sec)
Mapping shells                                     ... done
Starting the XC term evaluation                    ... done (   0.2 sec)
  promolecular density results
     # of electrons  =    169.976648800
     EX              =   -145.077604711
     EC              =     -6.271736713
     EX+EC           =   -151.349341424
Transforming the Hamiltonian                       ... done (   0.0 sec)
Diagonalizing the Hamiltonian                      ... done (   0.0 sec)
Back transforming the eigenvectors                 ... done (   0.0 sec)
Now organizing SCF variables                       ... done
                      ------------------
                      INITIAL GUESS DONE (   0.9 sec)
                      ------------------
             **** ENERGY FILE WAS UPDATED (data/geom_opt_PO_BP86/13956/13956.en.tmp) ****
Finished Guess after   1.0 sec
Maximum memory used throughout the entire GUESS-calculation: 32.2 MB


           ************************************************************
           *        Program running with 6 parallel MPI-processes     *
           *              working on a common directory               *
           ************************************************************

-------------------------------------------------------------------------------------------
                                      ORCA LEAN-SCF
                              memory conserving SCF solver
-------------------------------------------------------------------------------------------

----------------------------------------D-I-I-S--------------------------------------------
Iteration    Energy (Eh)           Delta-E    RMSDP     MaxDP     DIISErr   Damp  Time(sec)
-------------------------------------------------------------------------------------------
               ***  Starting incremental Fock matrix formation  ***
    1    -1228.2494500343846084     0.00e+00  3.00e-03  1.58e-01  3.35e-01  0.700   1.2
    2    -1228.5088085207225959    -2.59e-01  1.76e-03  5.95e-02  7.80e-02  0.700   1.3
                               ***Turning on AO-DIIS***
    3    -1228.5936993374762096    -8.49e-02  6.44e-04  2.18e-02  3.21e-02  0.700   1.2
    4    -1228.6504692519583841    -5.68e-02  1.12e-03  5.00e-02  1.43e-02  0.000   1.1
    5    -1228.7751859500576757    -1.25e-01  2.81e-04  1.36e-02  1.08e-02  0.000   1.2
                              *** Initializing SOSCF ***
---------------------------------------S-O-S-C-F--------------------------------------
Iteration    Energy (Eh)           Delta-E    RMSDP     MaxDP     MaxGrad    Time(sec)
--------------------------------------------------------------------------------------
    6    -1228.7766749681136389    -1.49e-03  1.00e-04  3.53e-03  2.91e-03     1.2
               *** Restarting incremental Fock matrix formation ***
    7    -1228.7767523713378068    -7.74e-05  9.75e-05  3.05e-03  5.32e-04     1.2
    8    -1228.7766810619200442     7.13e-05  6.30e-05  1.73e-03  1.51e-03     1.1
    9    -1228.7767684948012175    -8.74e-05  2.60e-05  1.32e-03  1.34e-04     1.1
   10    -1228.7767640019824285     4.49e-06  1.97e-05  9.79e-04  3.48e-04     1.0
   11    -1228.7767694883136755    -5.49e-06  1.06e-05  7.41e-04  7.35e-05     1.0
   12    -1228.7767688891763100     5.99e-07  6.46e-06  3.58e-04  9.01e-05     1.0
   13    -1228.7767697300082546    -8.41e-07  3.55e-06  1.90e-04  2.44e-05     1.0
   14    -1228.7767695932980132     1.37e-07  2.42e-06  1.11e-04  4.49e-05     1.0
   15    -1228.7767697572353427    -1.64e-07  1.01e-06  4.74e-05  8.99e-06     0.9
   16    -1228.7767697443041470     1.29e-08  6.60e-07  2.51e-05  1.52e-05     1.0
   17    -1228.7767697536460219    -9.34e-09  1.61e-07  1.40e-05  5.19e-07     0.9
                 **** Energy Check signals convergence ****

               *****************************************************
               *                     SUCCESS                       *
               *           SCF CONVERGED AFTER  17 CYCLES          *
               *****************************************************

             **** ENERGY FILE WAS UPDATED (data/geom_opt_PO_BP86/13956/13956.en.tmp) ****

----------------
TOTAL SCF ENERGY
----------------

Total Energy       :      -1228.77676975364602 Eh          -33436.71579 eV

Components:
Nuclear Repulsion  :       1952.48617759090803 Eh           53129.84996 eV
Electronic Energy  :      -3181.26294734455405 Eh          -86566.56576 eV
One Electron Energy:      -5553.99342490286108 Eh         -151131.84449 eV
Two Electron Energy:       2372.73047755830703 Eh           64565.27873 eV

Virial components:
Potential Energy   :      -2446.37414218974345 Eh          -66569.22472 eV
Kinetic Energy     :       1217.59737243609743 Eh           33132.50893 eV
Virial Ratio       :          2.00918152220974

DFT components:
N(Alpha)           :       85.000241568057 electrons
N(Beta)            :       85.000241568057 electrons
N(Total)           :      170.000483136114 electrons
E(X)               :     -147.334907213203 Eh       
E(C)               :       -6.280355082200 Eh       
E(XC)              :     -153.615262295402 Eh       

---------------
SCF CONVERGENCE
---------------

  Last Energy change         ...    9.3419e-09  Tolerance :   1.0000e-08
  Last MAX-Density change    ...    1.4025e-05  Tolerance :   1.0000e-07
  Last RMS-Density change    ...    1.6105e-07  Tolerance :   5.0000e-09
  Last DIIS Error            ...    2.9107e-03  Tolerance :   5.0000e-07
  Last Orbital Gradient      ...    5.1915e-07  Tolerance :   1.0000e-05
  Last Orbital Rotation      ...    1.0021e-06  Tolerance :   1.0000e-05


----------------
ORBITAL ENERGIES
----------------

  NO   OCC          E(Eh)            E(eV) 
   0   2.0000     -76.402833     -2079.0268 
   1   2.0000     -18.697460      -508.7838 
   2   2.0000      -9.928552      -270.1696 
   3   2.0000      -9.928551      -270.1696 
   4   2.0000      -9.928550      -270.1696 
   5   2.0000      -9.923417      -270.0299 
   6   2.0000      -9.923378      -270.0289 
   7   2.0000      -9.923375      -270.0288 
   8   2.0000      -9.920526      -269.9512 
   9   2.0000      -9.920502      -269.9506 
  10   2.0000      -9.920499      -269.9505 
  11   2.0000      -9.917945      -269.8810 
  12   2.0000      -9.917941      -269.8809 
  13   2.0000      -9.917937      -269.8808 
  14   2.0000      -9.917036      -269.8563 
  15   2.0000      -9.917034      -269.8562 
  16   2.0000      -9.917032      -269.8562 
  17   2.0000      -9.916892      -269.8524 
  18   2.0000      -9.916887      -269.8522 
  19   2.0000      -9.916826      -269.8505 
  20   2.0000      -9.915803      -269.8227 
  21   2.0000      -9.915802      -269.8227 
  22   2.0000      -9.915798      -269.8226 
  23   2.0000      -6.361783      -173.1129 
  24   2.0000      -4.582876      -124.7064 
  25   2.0000      -4.582876      -124.7064 
  26   2.0000      -4.582776      -124.7037 
  27   2.0000      -0.836620       -22.7656 
  28   2.0000      -0.782043       -21.2805 
  29   2.0000      -0.780604       -21.2413 
  30   2.0000      -0.780600       -21.2412 
  31   2.0000      -0.713177       -19.4065 
  32   2.0000      -0.701407       -19.0863 
  33   2.0000      -0.701406       -19.0862 
  34   2.0000      -0.674099       -18.3432 
  35   2.0000      -0.673936       -18.3387 
  36   2.0000      -0.673933       -18.3386 
  37   2.0000      -0.639358       -17.3978 
  38   2.0000      -0.618342       -16.8259 
  39   2.0000      -0.618339       -16.8259 
  40   2.0000      -0.556908       -15.1542 
  41   2.0000      -0.549541       -14.9538 
  42   2.0000      -0.549539       -14.9537 
  43   2.0000      -0.548996       -14.9389 
  44   2.0000      -0.525241       -14.2925 
  45   2.0000      -0.525240       -14.2925 
  46   2.0000      -0.502327       -13.6690 
  47   2.0000      -0.459884       -12.5141 
  48   2.0000      -0.459878       -12.5139 
  49   2.0000      -0.424142       -11.5415 
  50   2.0000      -0.422877       -11.5071 
  51   2.0000      -0.422875       -11.5070 
  52   2.0000      -0.421515       -11.4700 
  53   2.0000      -0.403403       -10.9771 
  54   2.0000      -0.403401       -10.9771 
  55   2.0000      -0.394054       -10.7228 
  56   2.0000      -0.386814       -10.5257 
  57   2.0000      -0.386812       -10.5257 
  58   2.0000      -0.386663       -10.5216 
  59   2.0000      -0.377849       -10.2818 
  60   2.0000      -0.377761       -10.2794 
  61   2.0000      -0.377757       -10.2793 
  62   2.0000      -0.366436        -9.9712 
  63   2.0000      -0.366436        -9.9712 
  64   2.0000      -0.347108        -9.4453 
  65   2.0000      -0.345144        -9.3918 
  66   2.0000      -0.345139        -9.3917 
  67   2.0000      -0.327964        -8.9244 
  68   2.0000      -0.327383        -8.9085 
  69   2.0000      -0.327382        -8.9085 
  70   2.0000      -0.321532        -8.7493 
  71   2.0000      -0.306263        -8.3339 
  72   2.0000      -0.304817        -8.2945 
  73   2.0000      -0.304816        -8.2945 
  74   2.0000      -0.299522        -8.1504 
  75   2.0000      -0.299521        -8.1504 
  76   2.0000      -0.285079        -7.7574 
  77   2.0000      -0.237663        -6.4671 
  78   2.0000      -0.236981        -6.4486 
  79   2.0000      -0.236978        -6.4485 
  80   2.0000      -0.231664        -6.3039 
  81   2.0000      -0.231663        -6.3039 
  82   2.0000      -0.224361        -6.1052 
  83   2.0000      -0.199580        -5.4309 
  84   2.0000      -0.199579        -5.4308 
  85   0.0000      -0.057385        -1.5615 
  86   0.0000      -0.057379        -1.5614 
  87   0.0000      -0.056235        -1.5302 
  88   0.0000      -0.051229        -1.3940 
  89   0.0000      -0.041320        -1.1244 
  90   0.0000      -0.041318        -1.1243 
  91   0.0000       0.040773         1.1095 
  92   0.0000       0.048901         1.3307 
  93   0.0000       0.048912         1.3310 
  94   0.0000       0.053463         1.4548 
  95   0.0000       0.064584         1.7574 
*Only the first 10 virtual orbitals were printed.

                    ********************************
                    * MULLIKEN POPULATION ANALYSIS *
                    ********************************

-----------------------
MULLIKEN ATOMIC CHARGES
-----------------------
   0 C :    0.031669
   1 C :   -0.043295
   2 C :   -0.010756
   3 C :   -0.004879
   4 C :   -0.111434
   5 C :    0.013056
   6 C :   -0.013199
   7 P :    0.622565
   8 O :   -0.471527
   9 C :   -0.111733
  10 C :   -0.004665
  11 C :   -0.010796
  12 C :   -0.043214
  13 C :   -0.013328
  14 C :    0.013078
  15 C :    0.031667
  16 C :   -0.111338
  17 C :    0.013103
  18 C :   -0.013371
  19 C :   -0.043287
  20 C :   -0.010704
  21 C :   -0.005017
  22 C :    0.031672
  23 H :    0.054788
  24 H :    0.029973
  25 H :    0.031451
  26 H :   -0.020872
  27 H :   -0.000987
  28 H :    0.009446
  29 H :   -0.015309
  30 H :   -0.001014
  31 H :   -0.020819
  32 H :   -0.015301
  33 H :    0.009505
  34 H :    0.029969
  35 H :    0.054780
  36 H :    0.031453
  37 H :    0.009454
  38 H :   -0.015290
  39 H :   -0.020810
  40 H :   -0.000894
  41 H :    0.029961
  42 H :    0.031445
  43 H :    0.054804
Sum of atomic charges:   -0.0000000

--------------------------------
MULLIKEN REDUCED ORBITAL CHARGES
--------------------------------
  0 C s       :     2.948571  s :     2.948571
      pz      :     1.001804  p :     2.994236
      px      :     0.991919
      py      :     1.000513
      dz2     :     0.007365  d :     0.025524
      dxz     :     0.003149
      dyz     :     0.003093
      dx2y2   :     0.007078
      dxy     :     0.004838

  1 C s       :     3.070114  s :     3.070114
      pz      :     0.975832  p :     2.931382
      px      :     0.981857
      py      :     0.973693
      dz2     :     0.009756  d :     0.041799
      dxz     :     0.009152
      dyz     :     0.007913
      dx2y2   :     0.007955
      dxy     :     0.007023

  2 C s       :     3.222340  s :     3.222340
      pz      :     0.850575  p :     2.756507
      px      :     0.959444
      py      :     0.946489
      dz2     :     0.006683  d :     0.031908
      dxz     :     0.006566
      dyz     :     0.005816
      dx2y2   :     0.006640
      dxy     :     0.006203

  3 C s       :     3.231902  s :     3.231902
      pz      :     0.924308  p :     2.739807
      px      :     0.870027
      py      :     0.945472
      dz2     :     0.007141  d :     0.033170
      dxz     :     0.008476
      dyz     :     0.006805
      dx2y2   :     0.005932
      dxy     :     0.004817

  4 C s       :     3.066313  s :     3.066313
      pz      :     0.980868  p :     3.011834
      px      :     1.025254
      py      :     1.005711
      dz2     :     0.008310  d :     0.033287
      dxz     :     0.007981
      dyz     :     0.006625
      dx2y2   :     0.004399
      dxy     :     0.005973

  5 C s       :     3.243167  s :     3.243167
      pz      :     0.868498  p :     2.710848
      px      :     0.937677
      py      :     0.904673
      dz2     :     0.006899  d :     0.032929
      dxz     :     0.006736
      dyz     :     0.005902
      dx2y2   :     0.007109
      dxy     :     0.006283

  6 C s       :     3.224766  s :     3.224766
      pz      :     0.921681  p :     2.756429
      px      :     0.872235
      py      :     0.962513
      dz2     :     0.007056  d :     0.032003
      dxz     :     0.007969
      dyz     :     0.006788
      dx2y2   :     0.005337
      dxy     :     0.004853

  7 P s       :     5.209916  s :     5.209916
      pz      :     2.812117  p :     8.681606
      px      :     2.934748
      py      :     2.934741
      dz2     :     0.093197  d :     0.485913
      dxz     :     0.142438
      dyz     :     0.125426
      dx2y2   :     0.058342
      dxy     :     0.066510

  8 O s       :     3.822623  s :     3.822623
      pz      :     1.337998  p :     4.637279
      px      :     1.649509
      py      :     1.649773
      dz2     :     0.004943  d :     0.011625
      dxz     :     0.003253
      dyz     :     0.003272
      dx2y2   :     0.000087
      dxy     :     0.000070

  9 C s       :     3.066512  s :     3.066512
      pz      :     0.988680  p :     3.011933
      px      :     1.015386
      py      :     1.007867
      dz2     :     0.007668  d :     0.033287
      dxz     :     0.005166
      dyz     :     0.007673
      dx2y2   :     0.006217
      dxy     :     0.006563

 10 C s       :     3.231821  s :     3.231821
      pz      :     0.925821  p :     2.739674
      px      :     0.965423
      py      :     0.848430
      dz2     :     0.005942  d :     0.033170
      dxz     :     0.004375
      dyz     :     0.009329
      dx2y2   :     0.006815
      dxy     :     0.006709

 11 C s       :     3.222321  s :     3.222321
      pz      :     0.890800  p :     2.756567
      px      :     0.919541
      py      :     0.946226
      dz2     :     0.005005  d :     0.031908
      dxz     :     0.004382
      dyz     :     0.008022
      dx2y2   :     0.007384
      dxy     :     0.007115

 12 C s       :     3.070191  s :     3.070191
      pz      :     0.971503  p :     2.931224
      px      :     0.969666
      py      :     0.990055
      dz2     :     0.008539  d :     0.041799
      dxz     :     0.005492
      dyz     :     0.010225
      dx2y2   :     0.008571
      dxy     :     0.008972

 13 C s       :     3.224831  s :     3.224831
      pz      :     0.926299  p :     2.756494
      px      :     0.986086
      py      :     0.844108
      dz2     :     0.005773  d :     0.032003
      dxz     :     0.004415
      dyz     :     0.009006
      dx2y2   :     0.006596
      dxy     :     0.006212

 14 C s       :     3.243049  s :     3.243049
      pz      :     0.889999  p :     2.710943
      px      :     0.900751
      py      :     0.920194
      dz2     :     0.005278  d :     0.032930
      dxz     :     0.004326
      dyz     :     0.008473
      dx2y2   :     0.007387
      dxy     :     0.007466

 15 C s       :     2.948599  s :     2.948599
      pz      :     1.006288  p :     2.994209
      px      :     1.012718
      py      :     0.975203
      dz2     :     0.006463  d :     0.025524
      dxz     :     0.004094
      dyz     :     0.003206
      dx2y2   :     0.005090
      dxy     :     0.006671

 16 C s       :     3.066257  s :     3.066257
      pz      :     0.988519  p :     3.011793
      px      :     0.998100
      py      :     1.025175
      dz2     :     0.007091  d :     0.033287
      dxz     :     0.007891
      dyz     :     0.005740
      dx2y2   :     0.007139
      dxy     :     0.005427

 17 C s       :     3.243042  s :     3.243042
      pz      :     0.872476  p :     2.710926
      px      :     0.912460
      py      :     0.925990
      dz2     :     0.005626  d :     0.032929
      dxz     :     0.007605
      dyz     :     0.004961
      dx2y2   :     0.007356
      dxy     :     0.007382

 18 C s       :     3.224791  s :     3.224791
      pz      :     0.944252  p :     2.756575
      px      :     0.880347
      py      :     0.931976
      dz2     :     0.006853  d :     0.032004
      dxz     :     0.008231
      dyz     :     0.005011
      dx2y2   :     0.005022
      dxy     :     0.006887

 19 C s       :     3.070149  s :     3.070149
      pz      :     0.974016  p :     2.931339
      px      :     0.984758
      py      :     0.972564
      dz2     :     0.008903  d :     0.041800
      dxz     :     0.009692
      dyz     :     0.006130
      dx2y2   :     0.008446
      dxy     :     0.008629

 20 C s       :     3.222305  s :     3.222305
      pz      :     0.872524  p :     2.756490
      px      :     0.948725
      py      :     0.935241
      dz2     :     0.005351  d :     0.031908
      dxz     :     0.007256
      dyz     :     0.005004
      dx2y2   :     0.007041
      dxy     :     0.007256

 21 C s       :     3.231830  s :     3.231830
      pz      :     0.935080  p :     2.740015
      px      :     0.881723
      py      :     0.923212
      dz2     :     0.007144  d :     0.033171
      dxz     :     0.008375
      dyz     :     0.005209
      dx2y2   :     0.005100
      dxy     :     0.007343

 22 C s       :     2.948569  s :     2.948569
      pz      :     0.999699  p :     2.994235
      px      :     0.982807
      py      :     1.011728
      dz2     :     0.007272  d :     0.025524
      dxz     :     0.004490
      dyz     :     0.002207
      dx2y2   :     0.005050
      dxy     :     0.006506

 23 H s       :     0.921529  s :     0.921529
      pz      :     0.006304  p :     0.023683
      px      :     0.006056
      py      :     0.011323

 24 H s       :     0.946986  s :     0.946986
      pz      :     0.013009  p :     0.023041
      px      :     0.005161
      py      :     0.004872

 25 H s       :     0.945511  s :     0.945511
      pz      :     0.006170  p :     0.023038
      px      :     0.011898
      py      :     0.004970

 26 H s       :     0.998484  s :     0.998484
      pz      :     0.011682  p :     0.022388
      px      :     0.004419
      py      :     0.006287

 27 H s       :     0.977880  s :     0.977880
      pz      :     0.006994  p :     0.023107
      px      :     0.010964
      py      :     0.005149

 28 H s       :     0.967922  s :     0.967922
      pz      :     0.012426  p :     0.022632
      px      :     0.004158
      py      :     0.006048

 29 H s       :     0.992950  s :     0.992950
      pz      :     0.007062  p :     0.022359
      px      :     0.010162
      py      :     0.005135

 30 H s       :     0.977906  s :     0.977906
      pz      :     0.007134  p :     0.023108
      px      :     0.005315
      py      :     0.010659

 31 H s       :     0.998432  s :     0.998432
      pz      :     0.010040  p :     0.022387
      px      :     0.008574
      py      :     0.003774

 32 H s       :     0.992943  s :     0.992943
      pz      :     0.007276  p :     0.022358
      px      :     0.005202
      py      :     0.009879

 33 H s       :     0.967866  s :     0.967866
      pz      :     0.010620  p :     0.022629
      px      :     0.008061
      py      :     0.003948

 34 H s       :     0.946989  s :     0.946989
      pz      :     0.012748  p :     0.023042
      px      :     0.005580
      py      :     0.004714

 35 H s       :     0.921537  s :     0.921537
      pz      :     0.007490  p :     0.023683
      px      :     0.011054
      py      :     0.005139

 36 H s       :     0.945509  s :     0.945509
      pz      :     0.005877  p :     0.023038
      px      :     0.008309
      py      :     0.008852

 37 H s       :     0.967916  s :     0.967916
      pz      :     0.011387  p :     0.022631
      px      :     0.004518
      py      :     0.006725

 38 H s       :     0.992934  s :     0.992934
      pz      :     0.005749  p :     0.022357
      px      :     0.008128
      py      :     0.008480

 39 H s       :     0.998423  s :     0.998423
      pz      :     0.010602  p :     0.022388
      px      :     0.004433
      py      :     0.007353

 40 H s       :     0.977790  s :     0.977790
      pz      :     0.005665  p :     0.023105
      px      :     0.008483
      py      :     0.008956

[...]
      dyz     :     0.010270
      dx2y2   :     0.017032
      dxy     :     0.017155

 21 C s       :     2.873966  s :     2.873966
      pz      :     1.038808  p :     3.072049
      px      :     1.044924
      py      :     0.988317
      dz2     :     0.020772  d :     0.088380
      dxz     :     0.027176
      dyz     :     0.013929
      dx2y2   :     0.011594
      dxy     :     0.014909

 22 C s       :     2.846157  s :     2.846157
      pz      :     1.055517  p :     3.149924
      px      :     1.026557
      py      :     1.067849
      dz2     :     0.020604  d :     0.066952
      dxz     :     0.011134
      dyz     :     0.004421
      dx2y2   :     0.011712
      dxy     :     0.019081

 23 H s       :     0.889384  s :     0.889384
      pz      :     0.012890  p :     0.063840
      px      :     0.015995
      py      :     0.034955

 24 H s       :     0.899603  s :     0.899603
      pz      :     0.038784  p :     0.063710
      px      :     0.012549
      py      :     0.012377

 25 H s       :     0.898639  s :     0.898639
      pz      :     0.017488  p :     0.063757
      px      :     0.034050
      py      :     0.012219

 26 H s       :     0.903640  s :     0.903640
      pz      :     0.038239  p :     0.066166
      px      :     0.012152
      py      :     0.015776

 27 H s       :     0.899612  s :     0.899612
      pz      :     0.021878  p :     0.068466
      px      :     0.029654
      py      :     0.016935

 28 H s       :     0.892775  s :     0.892775
      pz      :     0.041344  p :     0.069028
      px      :     0.011841
      py      :     0.015844

 29 H s       :     0.902161  s :     0.902161
      pz      :     0.021907  p :     0.066073
      px      :     0.027260
      py      :     0.016906

 30 H s       :     0.899580  s :     0.899580
      pz      :     0.022778  p :     0.068476
      px      :     0.014250
      py      :     0.031448

 31 H s       :     0.903644  s :     0.903644
      pz      :     0.033733  p :     0.066170
      px      :     0.021300
      py      :     0.011137

 32 H s       :     0.902176  s :     0.902176
      pz      :     0.023041  p :     0.066077
      px      :     0.014024
      py      :     0.029013

 33 H s       :     0.892838  s :     0.892838
      pz      :     0.036161  p :     0.069016
      px      :     0.020464
      py      :     0.012391

 34 H s       :     0.899614  s :     0.899614
      pz      :     0.039000  p :     0.063711
      px      :     0.012528
      py      :     0.012183

 35 H s       :     0.889422  s :     0.889422
      pz      :     0.015802  p :     0.063834
      px      :     0.035441
      py      :     0.012591

 36 H s       :     0.898649  s :     0.898649
      pz      :     0.015982  p :     0.063755
      px      :     0.020745
      py      :     0.027028

 37 H s       :     0.892733  s :     0.892733
      pz      :     0.039163  p :     0.069070
      px      :     0.013049
      py      :     0.016858

 38 H s       :     0.902171  s :     0.902171
      pz      :     0.017862  p :     0.066074
      px      :     0.026624
      py      :     0.021588

 39 H s       :     0.903653  s :     0.903653
      pz      :     0.035699  p :     0.066163
      px      :     0.012072
      py      :     0.018393

 40 H s       :     0.899710  s :     0.899710
      pz      :     0.017646  p :     0.068425
      px      :     0.027819
      py      :     0.022961

 41 H s       :     0.899672  s :     0.899672
      pz      :     0.039450  p :     0.063712
      px      :     0.011912
      py      :     0.012349

 42 H s       :     0.898585  s :     0.898585
      pz      :     0.013818  p :     0.063760
      px      :     0.017375
      py      :     0.032567

 43 H s       :     0.889426  s :     0.889426
      pz      :     0.014232  p :     0.063835
      px      :     0.022632
      py      :     0.026970



                      *****************************
                      * MAYER POPULATION ANALYSIS *
                      *****************************

  NA   - Mulliken gross atomic population
  ZA   - Total nuclear charge
  QA   - Mulliken gross atomic charge
  VA   - Mayer's total valence
  BVA  - Mayer's bonded valence
  FA   - Mayer's free valence

  ATOM       NA         ZA         QA         VA         BVA        FA
  0 C      5.9915     6.0000     0.0085     3.9148     3.9148    -0.0000
  1 C      6.0367     6.0000    -0.0367     3.9703     3.9703    -0.0000
  2 C      6.0225     6.0000    -0.0225     3.8646     3.8646    -0.0000
  3 C      6.0043     6.0000    -0.0043     3.8676     3.8676    -0.0000
  4 C      6.1226     6.0000    -0.1226     3.7542     3.7542    -0.0000
  5 C      5.9879     6.0000     0.0121     3.8755     3.8755    -0.0000
  6 C      6.0213     6.0000    -0.0213     3.8387     3.8387    -0.0000
  7 P     14.3678    15.0000     0.6322     4.7097     4.7097    -0.0000
  8 O      8.4584     8.0000    -0.4584     2.1442     2.1442    -0.0000
  9 C      6.1228     6.0000    -0.1228     3.7552     3.7552    -0.0000
 10 C      6.0042     6.0000    -0.0042     3.8681     3.8681    -0.0000
 11 C      6.0224     6.0000    -0.0224     3.8645     3.8645    -0.0000
 12 C      6.0367     6.0000    -0.0367     3.9705     3.9705    -0.0000
 13 C      6.0212     6.0000    -0.0212     3.8387     3.8387    -0.0000
 14 C      5.9876     6.0000     0.0124     3.8751     3.8751    -0.0000
 15 C      5.9915     6.0000     0.0085     3.9148     3.9148    -0.0000
 16 C      6.1223     6.0000    -0.1223     3.7545     3.7545    -0.0000
 17 C      5.9882     6.0000     0.0118     3.8758     3.8758    -0.0000
 18 C      6.0214     6.0000    -0.0214     3.8385     3.8385    -0.0000
 19 C      6.0368     6.0000    -0.0368     3.9704     3.9704    -0.0000
 20 C      6.0226     6.0000    -0.0226     3.8653     3.8653    -0.0000
 21 C      6.0040     6.0000    -0.0040     3.8677     3.8677    -0.0000
 22 C      5.9912     6.0000     0.0088     3.9148     3.9148    -0.0000
 23 H      0.9431     1.0000     0.0569     0.9860     0.9860    -0.0000
 24 H      0.9645     1.0000     0.0355     0.9928     0.9928    -0.0000
 25 H      0.9626     1.0000     0.0374     0.9931     0.9931    -0.0000
 26 H      1.0130     1.0000    -0.0130     0.9870     0.9870    -0.0000
 27 H      0.9988     1.0000     0.0012     0.9999     0.9999    -0.0000
 28 H      0.9822     1.0000     0.0178     1.0116     1.0116    -0.0000
 29 H      1.0073     1.0000    -0.0073     0.9879     0.9879    -0.0000
 30 H      0.9984     1.0000     0.0016     0.9994     0.9994    -0.0000
 31 H      1.0130     1.0000    -0.0130     0.9870     0.9870    -0.0000
 32 H      1.0074     1.0000    -0.0074     0.9879     0.9879    -0.0000
 33 H      0.9823     1.0000     0.0177     1.0115     1.0115    -0.0000
 34 H      0.9646     1.0000     0.0354     0.9928     0.9928     0.0000
 35 H      0.9431     1.0000     0.0569     0.9859     0.9859    -0.0000
 36 H      0.9626     1.0000     0.0374     0.9931     0.9931    -0.0000
 37 H      0.9821     1.0000     0.0179     1.0118     1.0118    -0.0000
 38 H      1.0074     1.0000    -0.0074     0.9879     0.9879    -0.0000
 39 H      1.0130     1.0000    -0.0130     0.9870     0.9870    -0.0000
 40 H      0.9986     1.0000     0.0014     0.9995     0.9995     0.0000
 41 H      0.9647     1.0000     0.0353     0.9929     0.9929    -0.0000
 42 H      0.9625     1.0000     0.0375     0.9930     0.9930    -0.0000
 43 H      0.9431     1.0000     0.0569     0.9860     0.9860    -0.0000

  Mayer bond orders larger than 0.100000
B(  0-C ,  1-C ) :   1.0733 B(  0-C , 23-H ) :   0.9460 B(  0-C , 24-H ) :   0.9542 
B(  0-C , 25-H ) :   0.9540 B(  1-C ,  2-C ) :   1.3753 B(  1-C ,  6-C ) :   1.3725 
B(  2-C ,  3-C ) :   1.3838 B(  2-C , 26-H ) :   0.9760 B(  3-C ,  4-C ) :   1.3565 
B(  3-C , 27-H ) :   0.9635 B(  4-C ,  5-C ) :   1.3708 B(  4-C ,  7-P ) :   0.8802 
B(  5-C ,  6-C ) :   1.3706 B(  5-C , 28-H ) :   0.9715 B(  6-C , 29-H ) :   0.9787 
B(  7-P ,  8-O ) :   1.8759 B(  7-P ,  9-C ) :   0.8808 B(  7-P , 16-C ) :   0.8803 
B(  9-C , 10-C ) :   1.3573 B(  9-C , 14-C ) :   1.3705 B( 10-C , 11-C ) :   1.3836 
B( 10-C , 30-H ) :   0.9634 B( 11-C , 12-C ) :   1.3755 B( 11-C , 31-H ) :   0.9760 
B( 12-C , 13-C ) :   1.3724 B( 12-C , 15-C ) :   1.0733 B( 13-C , 14-C ) :   1.3708 
B( 13-C , 32-H ) :   0.9787 B( 14-C , 33-H ) :   0.9715 B( 15-C , 34-H ) :   0.9542 
B( 15-C , 35-H ) :   0.9460 B( 15-C , 36-H ) :   0.9540 B( 16-C , 17-C ) :   1.3713 
B( 16-C , 21-C ) :   1.3563 B( 17-C , 18-C ) :   1.3702 B( 17-C , 37-H ) :   0.9714 
B( 18-C , 19-C ) :   1.3726 B( 18-C , 38-H ) :   0.9788 B( 19-C , 20-C ) :   1.3753 
B( 19-C , 22-C ) :   1.0733 B( 20-C , 21-C ) :   1.3842 B( 20-C , 39-H ) :   0.9760 
B( 21-C , 40-H ) :   0.9633 B( 22-C , 41-H ) :   0.9542 B( 22-C , 42-H ) :   0.9540 
B( 22-C , 43-H ) :   0.9460 

-------
TIMINGS
-------

Total SCF time: 0 days 0 hours 0 min 8 sec 

Total time                  ....       8.564 sec
Sum of individual times     ....       8.452 sec  ( 98.7%)

SCF preparation             ....       0.137 sec  (  1.6%)
Fock matrix formation       ....       7.545 sec  ( 88.1%)
  Startup                   ....       0.036 sec  (  0.5% of F)
  Split-RI-J                ....       2.736 sec  ( 36.3% of F)
  XC integration            ....       4.644 sec  ( 61.6% of F)
    Basis function eval.    ....       1.410 sec  ( 30.4% of XC)
    Density eval.           ....       1.375 sec  ( 29.6% of XC)
    XC-Functional eval.     ....       0.125 sec  (  2.7% of XC)
    XC-Potential eval.      ....       0.974 sec  ( 21.0% of XC)
Diagonalization             ....       0.000 sec  (  0.0%)
Density matrix formation    ....       0.093 sec  (  1.1%)
Total Energy calculation    ....       0.032 sec  (  0.4%)
Population analysis         ....       0.108 sec  (  1.3%)
Orbital Transformation      ....       0.061 sec  (  0.7%)
Orbital Orthonormalization  ....       0.000 sec  (  0.0%)
DIIS solution               ....       0.071 sec  (  0.8%)
SOSCF solution              ....       0.405 sec  (  4.7%)
Finished LeanSCF after   8.6 sec

Maximum memory used throughout the entire LEANSCF-calculation: 46.5 MB


-------------------------------------------------------------------------------
                          DFT DISPERSION CORRECTION                            
                                                                               
                              DFTD3 V3.1  Rev 1                                
                          USING Becke-Johnson damping                          
-------------------------------------------------------------------------------
The BP86 functional is recognized
Active option DFTDOPT                   ...         4   

molecular C6(AA) [au] = 24202.777352 


            DFT-D V3
 parameters
 s6 scaling factor         :     1.0000 
 a1 scaling factor         :     0.3946 
 s8 scaling factor         :     3.2822 
 a2 scaling factor         :     4.8516 
 ad hoc parameters k1-k3   :    16.0000     1.3333    -4.0000 

 Edisp/kcal,au: -62.519465002762  -0.099631098681 
 E6   /kcal   : -22.912119517 
 E8   /kcal   : -39.607345486 
 % E8         :  63.352022421 

-------------------------   ----------------
Dispersion correction           -0.099631099
-------------------------   ----------------


-------------------------   --------------------
FINAL SINGLE POINT ENERGY     -1228.885316465062
-------------------------   --------------------

                                *** OPTIMIZATION RUN DONE ***



           ************************************************************
           *        Program running with 6 parallel MPI-processes     *
           *              working on a common directory               *
           ************************************************************

------------------------------------------------------------------------------
                              ORCA PROPERTY CALCULATIONS
------------------------------------------------------------------------------

GBWName                                 ... data/geom_opt_PO_BP86/13956/13956.gbw
Number of atoms                         ...     44
Number of basis functions               ...    431
Max core memory                         ...   1024 MB

Electric properties:
Dipole moment                           ... YES
Quadrupole moment                       ...  NO
Static polarizability (Dipole/Dipole)   ...  NO
Static polarizability (Dipole/Quad.)    ...  NO
Static polarizability (Quad./Quad.)     ...  NO
Static polarizability (Velocity)        ...  NO

Atomic electric properties:
Dipole moment                           ...  NO
Quadrupole moment                       ...  NO
Static polarizability                   ...  NO

Choice of electric origin               ... Center of mass
Position of electric origin             ...     0.052392    -0.052181    -0.601092

General magnetic properties:
Magnetizability                         ...  NO

EPR properties:
g-Tensor (aka g-matrix)                 ...  NO
Zero-Field splitting spin-orbit         ...  NO
Zero-field splitting spin-spin          ...  NO
Hyperfine couplings                     ...  NO (   0 nuclei)
Quadrupole couplings                    ...  NO (   0 nuclei)
Contact density                         ...  NO (   0 nuclei)

NMR properties:
Chemical shifts                         ...  NO (   0 nuclei)
Spin-rotation constants                 ...  NO (   0 nuclei)
Spin-spin couplings                     ...  NO (   0 nuclei,    0 pairs)

Choice of magnetic origin               ... GIAO
Position of magnetic origin             ...     0.000000     0.000000     0.000000

Properties with geometric perturbations:
SCF Hessian                             ...  NO
IR spectrum                             ...  NO
VCD spectrum                            ...  NO
X-ray spectroscopy properties:
SCF XES/XAS/RIXS spectra                ...  NO


-------------
DIPOLE MOMENT
-------------

Method             : SCF
Type of density    : Electron Density
Multiplicity       :   1
Irrep              :   0
Energy             : -1228.7856853663806760 Eh
Relativity type    : 
Basis              : AO
                                X                 Y                 Z
Electronic contribution:      0.955293496      -0.957723286     -10.984971109
Nuclear contribution   :     -1.098578186       1.096644365      12.613154141
                        -----------------------------------------
Total Dipole Moment    :     -0.143284690       0.138921079       1.628183032
                        -----------------------------------------
Magnitude (a.u.)       :      1.640368725
Magnitude (Debye)      :      4.169485946



--------------------
Rotational spectrum 
--------------------
 
Rotational constants in cm-1:             0.007098             0.007070             0.004336 
Rotational constants in MHz :           212.786056           211.958767           129.978820 

Dipole components along the rotational axes: 
x,y,z [a.u.] :    -0.000112     0.003151     1.640366 
x,y,z [Debye]:    -0.000284     0.008008     4.169478 

 

Dipole moment calculation done in   0.0 sec 

Maximum memory used throughout the entire PROP-calculation: 24.0 MB

--------------------------------
SUGGESTED CITATIONS FOR THIS RUN
--------------------------------

Below you find a list of papers that are relevant to this ORCA run
We neither can nor want to force you to cite these papers, but we appreciate if you do
You receive ORCA, which is the product of decades of hard work by many enthusiastic individuals, for free
The only thing we kindly ask in return is that you cite our papers,
We deeply appreciate it, if you show your appreciation for ORCA by not just citing the generic ORCA reference.

Please note that relegating all ORCA citations to the supporting information does *not* help us.
SI sections are not indexed - citations you put there will not count into any citation statistics
But we need these citations in order to attract the funding resources that allow us to do what we are doing

Therefore, if you are a happy ORCA user, please consider citing a few of the papers listed below in the main body of your paper

In addition to the list printed below, the program has created the file data/geom_opt_PO_BP86/13956/13956.bibtex that contains the list in bibtex format
You can import this file easily into all common literature databanks and citation aid programs


List of essential papers. We consider these as the minimum necessary citations

  1. Neese,F.
     Software update: the ORCA program system, version 5.0
     WIRES Comput. Molec. Sci., 2022 12(1)e1606
     doi.org/10.1002/wcms.1606

List of papers to cite with high priority. The work reported in these papers was absolutely
necessary for this run to complete.
Our perspective: the developers of density functionals and basis sets usually get cited in chemistry papers
Good! But without the algorithms to do something with them, the functionals or basis sets would not do anything.
Hence, in our opinion, the algorithm design and method developments papers are equally worthy of getting cited

  1. Neese,F.
     An improvement of the resolution of the identity approximation for the formation of the Coulomb matrix
     J. Comp. Chem., 2003 24(14)1740-1747
     doi.org/10.1002/jcc.10318
  2. Neese,F.
     The SHARK Integral Generation and Digestion System
     J. Comp. Chem., 2022  1-16
     doi.org/10.1002/jcc.26942
  3. Grimme,S.; Antony,J.; Ehrlich,S.; Krieg,H.
     A consistent and accurate ab initio parametrization of density functional dispersion correction (DFT-D) for the 94 elements H-Pu
     J. Chem. Phys., 2010 132 154104-XXXX
     doi.org/10.1063/1.3382344
  4. Grimme,S.; Ehrlich,S.; Goerigk,L.
     Effect of the damping function in dispersion corrected density functional theory
     J. Comput. Chem., 2011 32(7)1456-1465
     doi.org/10.1002/jcc.21759

List of suggested additional citations. These are papers that are important in the 'surrounding' of 
of this run, or papers that preceded the highly important papers. If you like your results we are grateful for a citation.

  1. Neese,F.
     The ORCA program system
     WIRES Comput. Molec. Sci., 2012 2(1)73-78
     doi.org/10.1002/wcms.81
  2. Neese,F.
     Software update: the ORCA program system, version 4.0
     WIRES Comput. Molec. Sci., 2018 8(1)1-6
     doi.org/10.1002/wcms.1327
  3. Neese,F.; Wennmohs,F.; Becker,U.; Riplinger,C.
     The ORCA quantum chemistry program package
     J. Chem. Phys., 2020 152 Art. No. L224108
     doi.org/10.1063/5.0004608

List of optional additional citations

  1. Neese,F.
     Approximate second-order SCF convergence for spin unrestricted wavefunctions
     Chem. Phys. Lett., 2000 325(1-3)93-98
     doi.org/10.1016/s0009-2614(00)00662-x

Timings for individual modules:

Sum of individual times          ...      172.065 sec (=   2.868 min)
Startup calculation              ...       13.271 sec (=   0.221 min)   7.7 %
SCF iterations                   ...      108.822 sec (=   1.814 min)  63.2 %
Property calculations            ...        0.192 sec (=   0.003 min)   0.1 %
SCF Gradient evaluation          ...       49.607 sec (=   0.827 min)  28.8 %
Geometry relaxation              ...        0.173 sec (=   0.003 min)   0.1 %
                             ****ORCA TERMINATED NORMALLY****
TOTAL RUN TIME: 0 days 0 hours 2 minutes 53 seconds 705 msec
