
                                 *****************
                                 * O   R   C   A *
                                 *****************

                                            #,                                       
                                            ###                                      
                                            ####                                     
                                            #####                                    
                                            ######                                   
                                           ########,                                 
                                     ,,################,,,,,                         
                               ,,#################################,,                 
                          ,,##########################################,,             
                       ,#########################################, ''#####,          
                    ,#############################################,,   '####,        
                  ,##################################################,,,,####,       
                ,###########''''           ''''###############################       
              ,#####''   ,,,,##########,,,,          '''####'''          '####       
            ,##' ,,,,###########################,,,                        '##       
           ' ,,###''''                  '''############,,,                           
         ,,##''                                '''############,,,,        ,,,,,,###''
      ,#''                                            '''#######################'''  
     '                                                          ''''####''''         
             ,#######,   #######,   ,#######,      ##                                
            ,#'     '#,  ##    ##  ,#'     '#,    #''#        ,####,   ,####,        
            ##       ##  ##   ,#'  ##            #'  '#       #'       #'  '#        
            ##       ##  #######   ##           ,######,      #####,   #    #        
            '#,     ,#'  ##    ##  '#,     ,#' ,#      #,     #,   #   #,  ,#        
             '#######'   ##     ##  '#######'  #'      '#     '####' # '####'        



                #########################################################
                #                        -***-                          #
                #          Department of theory and spectroscopy        #
                #                                                       #
                #                      Frank Neese                      #
                #                                                       #
                #     Directorship, Architecture, Infrastructure        #
                #                    SHARK, DRIVERS                     #
                #        Core code/Algorithms in most modules           #
                #                                                       #
                #        Max Planck Institute fuer Kohlenforschung      #
                #                Kaiser Wilhelm Platz 1                 #
                #                 D-45470 Muelheim/Ruhr                 #
                #                      Germany                          #
                #                                                       #
                #                  All rights reserved                  #
                #                        -***-                          #
                #########################################################


                         Program Version 6.0.0  -   RELEASE   -


 With contributions from (in alphabetic order):
   Daniel Aravena         : Magnetic Suceptibility
   Michael Atanasov       : Ab Initio Ligand Field Theory (pilot matlab implementation)
   Alexander A. Auer      : GIAO ZORA, VPT2 properties, NMR spectrum
   Ute Becker             : All parallelization in ORCA, NUMFREQ, NUMCALC
   Giovanni Bistoni       : ED, misc. LED, open-shell LED, HFLD
   Martin Brehm           : Molecular dynamics
   Dmytro Bykov           : pre 5.0 version of the SCF Hessian
   Marcos Casanova-Páez   : Triplet and SCS-CIS(D). UHF-(DLPNO)-IP/EA/STEOM-CCSD. UHF-CVS-IP/STEOM-CCSD
   Vijay G. Chilkuri      : MRCI spin determinant printing, contributions to CSF-ICE
   Pauline Colinet        : FMM embedding
   Dipayan Datta          : RHF DLPNO-CCSD density
   Achintya Kumar Dutta   : EOM-CC, STEOM-CC
   Nicolas Foglia         : Exact transition moments, OPA infrastructure, MCD improvements
   Dmitry Ganyushin       : Spin-Orbit,Spin-Spin,Magnetic field MRCI
   Miquel Garcia          : C-PCM and meta-GGA Hessian, CCSD/C-PCM, Gaussian charge scheme
   Tiago L. C. Gouveia    : GS-ROHF, GS-ROCIS
   Yang Guo               : DLPNO-NEVPT2, F12-NEVPT2, CIM, IAO-localization
   Andreas Hansen         : Spin unrestricted coupled pair/coupled cluster methods
   Ingolf Harden          : AUTO-CI MPn and infrastructure 
   Benjamin Helmich-Paris : MC-RPA, TRAH-(SCF,CASSCF), AVAS, COSX integrals, SCF dyn. polar.
   Lee Huntington         : MR-EOM, pCC
   Robert Izsak           : Overlap fitted RIJCOSX, COSX-SCS-MP3, EOM
   Riya Kayal             : Wick's Theorem for AUTO-CI, AUTO-CI UHF-CCSDT
   Emily Kempfer          : AUTO-CI, RHF CISDT and CCSDT
   Christian Kollmar      : KDIIS, OOCD, Brueckner-CCSD(T), CCSD density, CASPT2, CASPT2-K, improved NEVPT2
   Axel Koslowski         : Symmetry handling
   Simone Kossmann        : Meta GGA functionals, TD-DFT gradient, OOMP2, (MP2 Hessian; deprecated post 5.0)
   Lucas Lang             : DCDCAS
   Marvin Lechner         : AUTO-CI (C++ implementation), FIC-MRCC
   Spencer Leger          : CASSCF response
   Dagmar Lenk            : GEPOL surface, SMD, ORCA-2-JSON
   Dimitrios Liakos       : Extrapolation schemes; Compound Job, initial MDCI parallelization
   Dimitrios Manganas     : Further ROCIS development; embedding schemes. LFT, Crystal Embedding
   Dimitrios Pantazis     : SARC Basis sets
   Anastasios Papadopoulos: AUTO-CI, single reference methods and gradients
   Taras Petrenko         : pre 6.0 DFT Hessian and TD-DFT gradient, (ASA, deprecated), ECA, 1-Electron XAS/XES, NRVS
   Peter Pinski           : DLPNO-MP2, DLPNO-MP2 Gradient
   Christoph Reimann      : Effective Core Potentials
   Marius Retegan         : Local ZFS, SOC
   Christoph Riplinger    : Optimizer, TS searches, QM/MM, DLPNO-CCSD(T), (RO)-DLPNO pert. Triples
   Michael Roemelt        : Original ROCIS implementation
   Masaaki Saitow         : Open-shell DLPNO-CCSD energy and density
   Barbara Sandhoefer     : DKH picture change effects
   Kantharuban Sivalingam : CASSCF convergence/infrastructure, NEVPT2 and variants, FIC-MRCI
   Bernardo de Souza      : ESD, SOC TD-DFT
   Georgi Stoychev        : AutoAux, RI-MP2 NMR, DLPNO-MP2 response, X2C
   Van Anh Tran           : RI-MP2 g-tensors
   Willem Van den Heuvel  : Paramagnetic NMR
   Zikuan Wang            : NOTCH, Electric field optimization 
   Frank Wennmohs         : Technical directorship and infrastructure
   Hang Xu                : AUTO-CI-Response properties 


 We gratefully acknowledge several colleagues who have allowed us to
 interface, adapt or use parts of their codes:
   Stefan Grimme, W. Hujo, H. Kruse, P. Pracht,  : VdW corrections, initial TS optimization,
                  C. Bannwarth, S. Ehlert,         DFT functionals, gCP, sTDA/sTD-DF
                  L. Wittmann, M. Mueller
   Ed Valeev, F. Pavosevic, A. Kumar             : LibInt (2-el integral package), F12 methods
   Garnet Chan, S. Sharma, J. Yang, R. Olivares  : DMRG
   Ulf Ekstrom                                   : XCFun DFT Library
   Mihaly Kallay                                 : mrcc  (arbitrary order and MRCC methods)
   Frank Weinhold                                : gennbo (NPA and NBO analysis)
   Simon Mueller                                 : openCOSMO-RS
   Christopher J. Cramer and Donald G. Truhlar   : smd solvation model
   Lars Goerigk                                  : TD-DFT with DH, B97 family of functionals
   V. Asgeirsson, H. Jonsson                     : NEB implementation
   FAccTs GmbH                                   : IRC, NEB, NEB-TS, DLPNO-Multilevel, CI-OPT
                                                   MM, QMMM, 2- and 3-layer-ONIOM, Crystal-QMMM,
                                                   LR-CPCM, SF, NACMEs, symmetry and pop. for TD-DFT,
                                                   nearIR, NL-DFT gradient (VV10), updates on ESD,
                                                   ML-optimized integration grids, MBIS, APM,
                                                   GOAT, DOCKER, SOLVATOR, interface openCOSMO-RS
   S Lehtola, MJT Oliveira, MAL Marques          : LibXC Library
   Liviu Ungur et al                             : ANISO software


 Your calculation uses the libint2 library for the computation of 2-el integrals
 For citations please refer to: http://libint.valeyev.net

 Your ORCA version has been built with support for libXC version: 6.2.2
 For citations please refer to: https://libxc.gitlab.io

 This ORCA versions uses:
   CBLAS   interface :  Fast vector & matrix operations
   LAPACKE interface :  Fast linear algebra routines
   Shared memory     :  Shared parallel matrices


Your calculation utilizes the atom-pairwise dispersion correction
with the Becke-Johnson damping scheme (D3BJ)


Warning: RI is on but no J-basis has been assigned. Assigning Def2/J (nothing to worry about!)
================================================================================

----- Orbital basis set information -----
Your calculation utilizes the basis: def2-SVP
   F. Weigend and R. Ahlrichs, Phys. Chem. Chem. Phys. 7, 3297 (2005).

----- AuxJ basis set information -----
Your calculation utilizes the auxiliary basis: def2/J
   F. Weigend, Phys. Chem. Chem. Phys. 8, 1057 (2006).

================================================================================
                                        WARNINGS
                       Please study these warnings very carefully!
================================================================================


WARNING: Geometry Optimization
  ===> : Switching off AutoStart
         For restart on a previous wavefunction, please use MOREAD

================================================================================
                                       INPUT FILE
================================================================================
NAME = data/geom_opt/13956/13956.inp
|  1> ! RIJONX B3LYP def2-SVP D3BJ TIGHTSCF Opt
|  2> %pal
|  3> nprocs 6
|  4> end
|  5> 
|  6> * xyz 0 1
|  7> C     -3.749845   -4.245279    0.902439
|  8> C     -2.802428   -3.233071    0.331535
|  9> C     -1.929626   -3.580499   -0.701996
| 10> C     -1.069705   -2.625365   -1.254376
| 11> C     -1.063517   -1.296975   -0.795227
| 12> C     -1.956351   -0.956738    0.230035
| 13> C     -2.818058   -1.911071    0.783897
| 14> P      0.094766   -0.128334   -1.579147
| 15> C     -0.455516    1.504993   -0.986441
| 16> C      0.113636    2.184650    0.099013
| 17> C     -0.363634    3.439373    0.496426
| 18> C     -1.428859    4.042662   -0.177297
| 19> C     -1.992930    3.383364   -1.271749
| 20> C     -1.514328    2.129903   -1.667531
| 21> C     -1.915888    5.401402    0.228565
| 22> C      1.668161   -0.409975   -0.703376
| 23> C      2.834192    0.156796   -1.246167
| 24> C      4.078909   -0.014495   -0.631183
| 25> C      4.189052   -0.752397    0.549514
| 26> C      3.039495   -1.335848    1.088652
| 27> C      1.794619   -1.162893    0.471869
| 28> C      5.526286   -0.967273    1.192729
| 29> H     -3.318131   -5.250878    0.862023
| 30> H     -3.967099   -4.027696    1.953483
| 31> H     -4.687730   -4.239879    0.338642
| 32> H     -1.909446   -4.597360   -1.087355
| 33> H     -0.397872   -2.934207   -2.053653
| 34> H     -2.000973    0.055075    0.624744
| 35> H     -3.501801   -1.608720    1.574168
| 36> H      0.937355    1.754630    0.663036
| 37> H      0.107124    3.939730    1.339919
| 38> H     -2.810365    3.837736   -1.826964
| 39> H     -1.983306    1.642456   -2.520785
| 40> H     -1.357482    6.174792   -0.307698
| 41> H     -1.789963    5.555900    1.305371
| 42> H     -2.982139    5.516533    0.006991
| 43> H      2.785464    0.744447   -2.161525
| 44> H      4.959808    0.434808   -1.084019
| 45> H      3.099928   -1.932050    1.996585
| 46> H      0.930018   -1.628992    0.937454
| 47> H      6.187258   -0.112449    1.014873
| 48> H      5.424637   -1.078367    2.277423
| 49> H      5.996282   -1.868437    0.787101
| 50> **                         ****END OF INPUT****
================================================================================

                       *****************************
                       * Geometry Optimization Run *
                       *****************************

Geometry optimization settings:
Update method            Update   .... BFGS
Choice of coordinates    CoordSys .... (2022) Redundant Internals
Initial Hessian          InHess   .... Almloef's Model
Max. no of cycles        MaxIter  .... 129

Convergence Tolerances:
Energy Change            TolE     ....  5.0000e-06 Eh
Max. Gradient            TolMAXG  ....  3.0000e-04 Eh/bohr
RMS Gradient             TolRMSG  ....  1.0000e-04 Eh/bohr
Max. Displacement        TolMAXD  ....  4.0000e-03 bohr
RMS Displacement         TolRMSD  ....  2.0000e-03 bohr
Strict Convergence                .... False

------------------------------------------------------------------------------
                        ORCA OPTIMIZATION COORDINATE SETUP
------------------------------------------------------------------------------

The optimization will be done in redundant internal coordinates (2022)
Making redundant internal coordinates   ...  (2022 redundants) done
Evaluating the initial hessian          ...  (Almloef) done
Evaluating the coordinates              ...  done
Calculating the B-matrix                .... done
Calculating the G-matrix                .... done
Diagonalizing the G-matrix              .... done
Small eigenvalue found = 2.863e-03
Small eigenvalue found = 2.864e-03
Small eigenvalue found = 5.609e-03
Small eigenvalue found = 2.258e-02
Small eigenvalue found = 2.262e-02
The first mode is                       ....   96
The number of degrees of freedom        ....  123

    -----------------------------------------------------------------
                    Redundant Internal Coordinates


    -----------------------------------------------------------------
         Definition                    Initial Value    Approx d2E/dq
    -----------------------------------------------------------------
      1. B(C   1,C   0)                  1.4994         0.418075   
      2. B(C   2,C   1)                  1.3967         0.609682   
      3. B(C   3,C   2)                  1.3989         0.604741   
      4. B(C   4,C   3)                  1.4055         0.590178   
      5. B(C   5,C   4)                  1.4015         0.599050   
      6. B(C   6,C   5)                  1.4000         0.602218   
      7. B(C   6,C   1)                  1.3973         0.608174   
      8. B(P   7,C   4)                  1.8226         0.428594   
      9. B(C   8,P   7)                  1.8226         0.428596   
     10. B(C   9,C   8)                  1.4015         0.599048   
     11. B(C  10,C   9)                  1.4000         0.602218   
     12. B(C  11,C  10)                  1.3973         0.608170   
     13. B(C  12,C  11)                  1.3967         0.609683   
     14. B(C  13,C  12)                  1.3989         0.604741   
     15. B(C  13,C   8)                  1.4055         0.590176   
     16. B(C  14,C  11)                  1.4994         0.418074   
     17. B(C  15,P   7)                  1.8226         0.428596   
     18. B(C  16,C  15)                  1.4055         0.590176   
     19. B(C  17,C  16)                  1.3989         0.604742   
     20. B(C  18,C  17)                  1.3967         0.609682   
     21. B(C  19,C  18)                  1.3973         0.608169   
     22. B(C  20,C  19)                  1.4000         0.602220   
     23. B(C  20,C  15)                  1.4015         0.599048   
     24. B(C  21,C  18)                  1.4994         0.418076   
     25. B(H  22,C   0)                  1.0951         0.353419   
     26. B(H  23,C   0)                  1.0951         0.353421   
     27. B(H  24,C   0)                  1.0943         0.354437   
     28. B(H  25,C   2)                  1.0876         0.363264   
     29. B(H  26,C   3)                  1.0888         0.361629   
     30. B(H  27,C   5)                  1.0870         0.364101   
     31. B(H  28,C   6)                  1.0879         0.362936   
     32. B(H  29,C   9)                  1.0870         0.364101   
     33. B(H  30,C  10)                  1.0879         0.362935   
     34. B(H  31,C  12)                  1.0876         0.363262   
     35. B(H  32,C  13)                  1.0888         0.361629   
     36. B(H  33,C  14)                  1.0943         0.354436   
     37. B(H  34,C  14)                  1.0951         0.353420   
     38. B(H  35,C  14)                  1.0951         0.353418   
     39. B(H  36,C  16)                  1.0888         0.361628   
     40. B(H  37,C  17)                  1.0876         0.363263   
     41. B(H  38,C  19)                  1.0879         0.362935   
     42. B(H  39,C  20)                  1.0870         0.364101   
     43. B(H  40,C  21)                  1.0951         0.353418   
     44. B(H  41,C  21)                  1.0951         0.353421   
     45. B(H  42,C  21)                  1.0943         0.354436   
     46. A(C   1,C   0,H  24)          110.0018         0.329525   
     47. A(H  22,C   0,H  23)          107.2224         0.289136   
     48. A(C   1,C   0,H  22)          110.9016         0.329369   
     49. A(C   1,C   0,H  23)          110.8959         0.329369   
     50. A(H  23,C   0,H  24)          108.8730         0.289266   
     51. A(H  22,C   0,H  24)          108.8679         0.289266   
     52. A(C   2,C   1,C   6)          118.8091         0.431263   
     53. A(C   0,C   1,C   2)          120.5776         0.403425   
     54. A(C   0,C   1,C   6)          120.5546         0.403249   
     55. A(C   3,C   2,H  25)          119.1468         0.351945   
     56. A(C   1,C   2,H  25)          120.4216         0.352429   
     57. A(C   1,C   2,C   3)          120.4316         0.430824   
     58. A(C   2,C   3,H  26)          118.3909         0.351676   
     59. A(C   4,C   3,H  26)          120.3420         0.350231   
     60. A(C   2,C   3,C   4)          121.2671         0.428318   
     61. A(C   3,C   4,C   5)          117.7513         0.427593   
     62. A(C   5,C   4,P   7)          124.3232         0.430701   
     63. A(C   3,C   4,P   7)          117.9240         0.429549   
     64. A(C   6,C   5,H  27)          117.7485         0.351833   
     65. A(C   4,C   5,H  27)          121.1837         0.351519   
     66. A(C   4,C   5,C   6)          121.0674         0.429144   
     67. A(C   5,C   6,H  28)          118.9984         0.351642   
     68. A(C   1,C   6,C   5)          120.6604         0.430310   
     69. A(C   1,C   6,H  28)          120.3412         0.352228   
     70. A(C   8,P   7,C  15)          104.0554         0.432675   
     71. A(C   4,P   7,C  15)          104.0557         0.432675   
     72. A(C   4,P   7,C   8)          104.0555         0.432675   
     73. A(P   7,C   8,C   9)          124.3232         0.430701   
     74. A(C   9,C   8,C  13)          117.7513         0.427592   
     75. A(P   7,C   8,C  13)          117.9240         0.429549   
     76. A(C  10,C   9,H  29)          117.7485         0.351833   
     77. A(C   8,C   9,C  10)          121.0674         0.429144   
     78. A(C   8,C   9,H  29)          121.1837         0.351519   
     79. A(C  11,C  10,H  30)          120.3411         0.352228   
     80. A(C   9,C  10,H  30)          118.9985         0.351642   
     81. A(C   9,C  10,C  11)          120.6604         0.430309   
     82. A(C  10,C  11,C  12)          118.8091         0.431262   
     83. A(C  12,C  11,C  14)          120.5778         0.403425   
     84. A(C  10,C  11,C  14)          120.5544         0.403249   
     85. A(C  13,C  12,H  31)          119.1467         0.351944   
     86. A(C  11,C  12,H  31)          120.4216         0.352429   
     87. A(C  11,C  12,C  13)          120.4316         0.430825   
     88. A(C  12,C  13,H  32)          118.3910         0.351676   
     89. A(C   8,C  13,H  32)          120.3419         0.350231   
     90. A(C   8,C  13,C  12)          121.2670         0.428318   
     91. A(H  33,C  14,H  35)          108.8677         0.289266   
     92. A(H  33,C  14,H  34)          108.8732         0.289266   
     93. A(C  11,C  14,H  34)          110.8956         0.329369   
     94. A(C  11,C  14,H  33)          110.0018         0.329525   
     95. A(C  11,C  14,H  35)          110.9020         0.329369   
     96. A(H  34,C  14,H  35)          107.2224         0.289136   
     97. A(C  16,C  15,C  20)          117.7512         0.427592   
     98. A(P   7,C  15,C  20)          124.3233         0.430701   
     99. A(P   7,C  15,C  16)          117.9240         0.429549   
    100. A(C  17,C  16,H  36)          118.3909         0.351676   
    101. A(C  15,C  16,H  36)          120.3419         0.350231   
    102. A(C  15,C  16,C  17)          121.2671         0.428318   
    103. A(C  16,C  17,C  18)          120.4316         0.430825   
    104. A(C  18,C  17,H  37)          120.4215         0.352429   
    105. A(C  16,C  17,H  37)          119.1468         0.351945   
    106. A(C  17,C  18,C  19)          118.8091         0.431262   
    107. A(C  19,C  18,C  21)          120.5546         0.403249   
    108. A(C  17,C  18,C  21)          120.5777         0.403426   
    109. A(C  18,C  19,C  20)          120.6604         0.430309   
    110. A(C  20,C  19,H  38)          118.9985         0.351642   
    111. A(C  18,C  19,H  38)          120.3411         0.352227   
    112. A(C  15,C  20,C  19)          121.0675         0.429144   
    113. A(C  19,C  20,H  39)          117.7485         0.351833   
    114. A(C  15,C  20,H  39)          121.1836         0.351519   
    115. A(H  41,C  21,H  42)          108.8730         0.289266   
    116. A(H  40,C  21,H  42)          108.8677         0.289266   
    117. A(C  18,C  21,H  42)          110.0018         0.329525   
    118. A(H  40,C  21,H  41)          107.2224         0.289136   
    119. A(C  18,C  21,H  41)          110.8959         0.329369   
    120. A(C  18,C  21,H  40)          110.9018         0.329369   
    121. D(C   6,C   1,C   0,H  23)    -32.0055         0.012928   
    122. D(C   2,C   1,C   0,H  24)    -88.6940         0.012928   
    123. D(C   2,C   1,C   0,H  22)     31.7968         0.012928   
    124. D(C   6,C   1,C   0,H  22)   -151.0212         0.012928   
    125. D(C   2,C   1,C   0,H  23)    150.8125         0.012928   
    126. D(C   3,C   2,C   1,C   0)    178.4458         0.025671   
    127. D(H  25,C   2,C   1,C   0)     -1.5870         0.025671   
    128. D(H  25,C   2,C   1,C   6)   -178.8175         0.025671   
    129. D(C   3,C   2,C   1,C   6)      1.2153         0.025671   
    130. D(H  26,C   3,C   2,H  25)     -0.4158         0.025233   
    131. D(C   4,C   3,C   2,H  25)    179.6662         0.025233   
    132. D(H  26,C   3,C   2,C   1)    179.5518         0.025233   
    133. D(C   4,C   3,C   2,C   1)     -0.3662         0.025233   
    134. D(C   5,C   4,C   3,C   2)     -0.4696         0.023970   
    135. D(C   5,C   4,C   3,H  26)    179.6140         0.023970   
    136. D(P   7,C   4,C   3,C   2)    179.9656         0.023970   
    137. D(P   7,C   4,C   3,H  26)      0.0492         0.023970   
    138. D(H  27,C   5,C   4,P   7)     -0.2521         0.024735   
    139. D(C   6,C   5,C   4,C   3)      0.4483         0.024735   
    140. D(C   6,C   5,C   4,P   7)    179.9827         0.024735   
    141. D(H  27,C   5,C   4,C   3)   -179.7865         0.024735   
    142. D(H  28,C   6,C   5,H  27)      0.5997         0.025011   
    143. D(H  28,C   6,C   5,C   4)   -179.6273         0.025011   
    144. D(C   1,C   6,C   5,H  27)   -179.3648         0.025011   
    145. D(C   1,C   6,C   5,C   4)      0.4081         0.025011   
    146. D(H  28,C   6,C   1,C   2)    178.7976         0.025537   
    147. D(H  28,C   6,C   1,C   0)      1.5664         0.025537   
    148. D(C   5,C   6,C   1,C   2)     -1.2383         0.025537   
    149. D(C   5,C   6,C   1,C   0)   -178.4696         0.025537   
    150. D(C   8,P   7,C   4,C   5)    -11.6093         0.003787   
    151. D(C   8,P   7,C   4,C   3)    167.9244         0.003787   
    152. D(C  15,P   7,C   4,C   5)     97.0997         0.003787   
    153. D(C  15,P   7,C   4,C   3)    -83.3666         0.003787   
    154. D(C  13,C   8,P   7,C  15)    167.9216         0.003787   
    155. D(C  13,C   8,P   7,C   4)    -83.3692         0.003787   
    156. D(C   9,C   8,P   7,C  15)    -11.6124         0.003787   
    157. D(C   9,C   8,P   7,C   4)     97.0968         0.003787   
    158. D(H  29,C   9,C   8,C  13)   -179.7870         0.024735   
    159. D(H  29,C   9,C   8,P   7)     -0.2522         0.024735   
    160. D(C  10,C   9,C   8,C  13)      0.4481         0.024735   
    161. D(C  10,C   9,C   8,P   7)    179.9828         0.024735   
    162. D(H  30,C  10,C   9,H  29)      0.6001         0.025011   
    163. D(H  30,C  10,C   9,C   8)   -179.6272         0.025011   
    164. D(C  11,C  10,C   9,H  29)   -179.3645         0.025011   
    165. D(C  11,C  10,C   9,C   8)      0.4083         0.025011   
    166. D(C  14,C  11,C  10,H  30)      1.5663         0.025536   
    167. D(C  14,C  11,C  10,C   9)   -178.4696         0.025536   
    168. D(C  12,C  11,C  10,C   9)     -1.2384         0.025536   
    169. D(C  12,C  11,C  10,H  30)    178.7976         0.025536   
    170. D(H  31,C  12,C  11,C  14)     -1.5870         0.025671   
    171. D(H  31,C  12,C  11,C  10)   -178.8176         0.025671   
    172. D(C  13,C  12,C  11,C  14)    178.4458         0.025671   
    173. D(C  13,C  12,C  11,C  10)      1.2153         0.025671   
    174. D(H  32,C  13,C  12,H  31)     -0.4157         0.025233   
    175. D(H  32,C  13,C  12,C  11)    179.5518         0.025233   
    176. D(C   8,C  13,C  12,H  31)    179.6662         0.025233   
    177. D(C   8,C  13,C  12,C  11)     -0.3662         0.025233   
    178. D(H  32,C  13,C   8,C   9)    179.6141         0.023970   
    179. D(H  32,C  13,C   8,P   7)      0.0490         0.023970   
    180. D(C  12,C  13,C   8,C   9)     -0.4694         0.023970   
    181. D(C  12,C  13,C   8,P   7)    179.9655         0.023970   
    182. D(H  33,C  14,C  11,C  12)    -88.7032         0.012928   
    183. D(H  33,C  14,C  11,C  10)     88.4788         0.012928   
    184. D(H  35,C  14,C  11,C  10)   -151.0304         0.012928   
    185. D(H  34,C  14,C  11,C  12)    150.8034         0.012928   
    186. D(H  34,C  14,C  11,C  10)    -32.0147         0.012928   
    187. D(C  20,C  15,P   7,C   8)     97.1017         0.003787   
    188. D(C  20,C  15,P   7,C   4)    -11.6074         0.003787   
    189. D(C  16,C  15,P   7,C   8)    -83.3648         0.003787   
    190. D(C  16,C  15,P   7,C   4)    167.9261         0.003787   
    191. D(H  36,C  16,C  15,C  20)    179.6138         0.023970   
    192. D(H  36,C  16,C  15,P   7)      0.0491         0.023970   
    193. D(C  17,C  16,C  15,C  20)     -0.4697         0.023970   
    194. D(C  17,C  16,C  15,P   7)    179.9656         0.023970   
    195. D(H  37,C  17,C  16,H  36)     -0.4156         0.025233   
    196. D(H  37,C  17,C  16,C  15)    179.6663         0.025233   
    197. D(C  18,C  17,C  16,H  36)    179.5520         0.025233   
    198. D(C  18,C  17,C  16,C  15)     -0.3661         0.025233   
    199. D(C  21,C  18,C  17,H  37)     -1.5869         0.025671   
    200. D(C  21,C  18,C  17,C  16)    178.4459         0.025671   
    201. D(C  19,C  18,C  17,H  37)   -178.8175         0.025671   
    202. D(C  19,C  18,C  17,C  16)      1.2153         0.025671   
    203. D(H  38,C  19,C  18,C  21)      1.5662         0.025536   
    204. D(H  38,C  19,C  18,C  17)    178.7975         0.025536   
    205. D(C  20,C  19,C  18,C  21)   -178.4696         0.025536   
    206. D(C  20,C  19,C  18,C  17)     -1.2384         0.025536   
    207. D(H  39,C  20,C  19,H  38)      0.5999         0.025012   
    208. D(H  39,C  20,C  19,C  18)   -179.3648         0.025012   
    209. D(C  15,C  20,C  19,H  38)   -179.6272         0.025012   
    210. D(C  15,C  20,C  19,C  18)      0.4081         0.025012   
    211. D(H  39,C  20,C  15,C  16)   -179.7865         0.024735   
    212. D(H  39,C  20,C  15,P   7)     -0.2522         0.024735   
    213. D(C  19,C  20,C  15,C  16)      0.4484         0.024735   
    214. D(C  19,C  20,C  15,P   7)    179.9827         0.024735   
    215. D(H  42,C  21,C  18,C  17)    -88.6964         0.012928   
    216. D(H  41,C  21,C  18,C  19)    -32.0078         0.012928   
    217. D(H  41,C  21,C  18,C  17)    150.8101         0.012928   
    218. D(H  40,C  21,C  18,C  19)   -151.0237         0.012928   
    219. D(H  40,C  21,C  18,C  17)     31.7943         0.012928   
    -----------------------------------------------------------------

Number of atoms                         .... 43
Number of degrees of freedom            .... 219


         *************************************************************
         *                GEOMETRY OPTIMIZATION CYCLE   1            *
         *************************************************************
---------------------------------
CARTESIAN COORDINATES (ANGSTROEM)
---------------------------------
  C     -3.749845   -4.245279    0.902439
  C     -2.802428   -3.233071    0.331535
  C     -1.929626   -3.580499   -0.701996
  C     -1.069705   -2.625365   -1.254376
  C     -1.063517   -1.296975   -0.795227
  C     -1.956351   -0.956738    0.230035
  C     -2.818058   -1.911071    0.783897
  P      0.094766   -0.128334   -1.579147
  C     -0.455516    1.504993   -0.986441
  C      0.113636    2.184650    0.099013
  C     -0.363634    3.439373    0.496426
  C     -1.428859    4.042662   -0.177297
  C     -1.992930    3.383364   -1.271749
  C     -1.514328    2.129903   -1.667531
  C     -1.915888    5.401402    0.228565
  C      1.668161   -0.409975   -0.703376
  C      2.834192    0.156796   -1.246167
  C      4.078909   -0.014495   -0.631183
  C      4.189052   -0.752397    0.549514
  C      3.039495   -1.335848    1.088652
  C      1.794619   -1.162893    0.471869
  C      5.526286   -0.967273    1.192729
  H     -3.318131   -5.250878    0.862023
  H     -3.967099   -4.027696    1.953483
  H     -4.687730   -4.239879    0.338642
  H     -1.909446   -4.597360   -1.087355
  H     -0.397872   -2.934207   -2.053653
  H     -2.000973    0.055075    0.624744
  H     -3.501801   -1.608720    1.574168
  H      0.937355    1.754630    0.663036
  H      0.107124    3.939730    1.339919
  H     -2.810365    3.837736   -1.826964
  H     -1.983306    1.642456   -2.520785
  H     -1.357482    6.174792   -0.307698
  H     -1.789963    5.555900    1.305371
  H     -2.982139    5.516533    0.006991
  H      2.785464    0.744447   -2.161525
  H      4.959808    0.434808   -1.084019
  H      3.099928   -1.932050    1.996585
  H      0.930018   -1.628992    0.937454
  H      6.187258   -0.112449    1.014873
  H      5.424637   -1.078367    2.277423
  H      5.996282   -1.868437    0.787101

----------------------------
CARTESIAN COORDINATES (A.U.)
----------------------------
  NO LB      ZA    FRAG     MASS         X           Y           Z
   0 C     6.0000    0    12.011   -7.086180   -8.022415    1.705363
   1 C     6.0000    0    12.011   -5.295821   -6.109619    0.626510
   2 C     6.0000    0    12.011   -3.646465   -6.766163   -1.326580
   3 C     6.0000    0    12.011   -2.021449   -4.961221   -2.370427
   4 C     6.0000    0    12.011   -2.009756   -2.450928   -1.502761
   5 C     6.0000    0    12.011   -3.696968   -1.807973    0.434703
   6 C     6.0000    0    12.011   -5.325358   -3.611401    1.481351
   7 P    15.0000    0    30.974    0.179082   -0.242516   -2.984155
   8 C     6.0000    0    12.011   -0.860800    2.844025   -1.864103
   9 C     6.0000    0    12.011    0.214741    4.128390    0.187107
  10 C     6.0000    0    12.011   -0.687169    6.499473    0.938109
  11 C     6.0000    0    12.011   -2.700152    7.639524   -0.335043
  12 C     6.0000    0    12.011   -3.766092    6.393631   -2.403257
  13 C     6.0000    0    12.011   -2.861665    4.024933   -3.151177
  14 C     6.0000    0    12.011   -3.620504   10.207171    0.431925
  15 C     6.0000    0    12.011    3.152367   -0.774740   -1.329188
  16 C     6.0000    0    12.011    5.355847    0.296301   -2.354914
  17 C     6.0000    0    12.011    7.708021   -0.027392   -1.192763
  18 C     6.0000    0    12.011    7.916161   -1.421824    1.038431
  19 C     6.0000    0    12.011    5.743813   -2.524387    2.057254
  20 C     6.0000    0    12.011    3.391338   -2.197549    0.891703
  21 C     6.0000    0    12.011   10.443167   -1.827881    2.253931
  22 H     1.0000    0     1.008   -6.270359   -9.922721    1.628987
  23 H     1.0000    0     1.008   -7.496731   -7.611242    3.691548
  24 H     1.0000    0     1.008   -8.858526   -8.012210    0.639941
  25 H     1.0000    0     1.008   -3.608330   -8.687751   -2.054803
  26 H     1.0000    0     1.008   -0.751869   -5.544848   -3.880842
  27 H     1.0000    0     1.008   -3.781291    0.104077    1.180595
  28 H     1.0000    0     1.008   -6.617445   -3.040040    2.974746
  29 H     1.0000    0     1.008    1.771344    3.315770    1.252956
  30 H     1.0000    0     1.008    0.202435    7.445011    2.532080
  31 H     1.0000    0     1.008   -5.310820    7.252270   -3.452462
  32 H     1.0000    0     1.008   -3.747905    3.103792   -4.763593
  33 H     1.0000    0     1.008   -2.565269   11.668666   -0.581465
  34 H     1.0000    0     1.008   -3.382540   10.499129    2.466794
  35 H     1.0000    0     1.008   -5.635426   10.424737    0.013211
  36 H     1.0000    0     1.008    5.263764    1.406801   -4.084690
  37 H     1.0000    0     1.008    9.372679    0.821668   -2.048499
  38 H     1.0000    0     1.008    5.858015   -3.651045    3.772999
  39 H     1.0000    0     1.008    1.757479   -3.078349    1.771531
  40 H     1.0000    0     1.008   11.692223   -0.212498    1.917832
  41 H     1.0000    0     1.008   10.251078   -2.037818    4.303706
  42 H     1.0000    0     1.008   11.331331   -3.530834    1.487405

--------------------------------
INTERNAL COORDINATES (ANGSTROEM)
--------------------------------
 C      0   0   0     0.000000000000     0.00000000     0.00000000
 C      1   0   0     1.499364993712     0.00000000     0.00000000
 C      2   1   0     1.396665985248   120.57760077     0.00000000
 C      3   2   1     1.398881248926   120.43158502   178.44584356
 C      4   3   2     1.405516306432   121.26706767   359.63383122
 C      5   4   3     1.401454935547   117.75125295   359.53040585
 C      2   1   3     1.397340214817   120.55461506   177.18201054
 P      5   4   3     1.822600302143   117.92402462   179.96557761
 C      8   5   4     1.822599179987   104.05552998   167.92437553
 C      9   8   5     1.401455679952   124.32316655    97.09679703
 C     10   9   8     1.400019125654   121.06739526   179.98284695
 C     11  10   9     1.397341976352   120.66037183     0.40826761
 C     12  11  10     1.396665717396   118.80914162   358.76163283
 C     13  12  11     1.398880890015   120.43163059     1.21527654
 C     12  11  10     1.499365064781   120.55438743   181.53042409
 C      8   5   4     1.822599331545   104.05568051   276.63337679
 C     16   8   5     1.405517601840   117.92397200   167.92612492
 C     17  16   8     1.398880386962   121.26709576   179.96560245
 C     18  17  16     1.396666118964   120.43161182   359.63388659
 C     19  18  17     1.397342530911   118.80911462     1.21527654
 C     20  19  18     1.400018198628   120.66037261   358.76164274
 C     19  18  17     1.499363865897   120.57766691   178.44587370
 H      1   2   3     1.095098068509   110.90156681    31.79678807
 H      1   2   3     1.095095955769   110.89591614   150.81253862
 H      1   2   3     1.094314621320   110.00183987   271.30599749
 H      3   2   1     1.087618997904   120.42159836   358.41303347
 H      4   3   2     1.088846492203   118.39090766   179.55181277
 H      6   5   4     1.086992117972   121.18370353   180.21345915
 H      7   2   1     1.087864362267   120.34116100     1.56638776
 H     10   9   8     1.086992242792   121.18367398   359.74775018
 H     11  10   9     1.087865186069   118.99850538   180.37282391
 H     13  12  11     1.087620149608   120.42163015   181.18241843
 H     14  13  12     1.088846789410   118.39099824   179.55181887
 H     15  12  11     1.094315931578   110.00177422    88.47884184
 H     15  12  11     1.095097209961   110.89559195   327.98534612
 H     15  12  11     1.095098799030   110.90197224   208.96955028
 H     17  16   8     1.088847273014   120.34194952     0.04905073
 H     18  17  16     1.087619729918   119.14684137   179.66629199
 H     20  19  18     1.087865481014   120.34112166   178.79745832
 H     21  20  19     1.086992437521   117.74853275   180.63519401
 H     22  19  18     1.095098540085   110.90175720    31.79429005
 H     22  19  18     1.095096100656   110.89586558   150.81014764
 H     22  19  18     1.094315708238   110.00179119   271.30362353

---------------------------
INTERNAL COORDINATES (A.U.)
---------------------------
 C      0   0   0     0.000000000000     0.00000000     0.00000000
 C      1   0   0     2.833389212904     0.00000000     0.00000000
 C      2   1   0     2.639316212682   120.57760077     0.00000000
 C      3   2   1     2.643502454348   120.43158502   178.44584356
 C      4   3   2     2.656040895916   121.26706767   359.63383122
 C      5   4   3     2.648366017216   117.75125295   359.53040585
 C      2   1   3     2.640590321918   120.55461506   177.18201054
 P      5   4   3     3.444215422651   117.92402462   179.96557761
 C      8   5   4     3.444213302085   104.05552998   167.92437553
 C      9   8   5     2.648367423937   124.32316655    97.09679703
 C     10   9   8     2.645652729739   121.06739526   179.98284695
 C     11  10   9     2.640593650737   120.66037183     0.40826761
 C     12  11  10     2.639315706515   118.80914162   358.76163283
 C     13  12  11     2.643501776104   120.43163059     1.21527654
 C     12  11  10     2.833389347205   120.55438743   181.53042409
 C      8   5   4     3.444213588487   104.05568051   276.63337679
 C     16   8   5     2.656043343884   117.92397200   167.92612492
 C     17  16   8     2.643500825471   121.26709576   179.96560245
 C     18  17  16     2.639316465369   120.43161182   359.63388659
 C     19  18  17     2.640594698703   118.80911462     1.21527654
 C     20  19  18     2.645650977913   120.66037261   358.76164274
 C     19  18  17     2.833387081642   120.57766691   178.44587370
 H      1   2   3     2.069435439269   110.90156681    31.79678807
 H      1   2   3     2.069431446768   110.89591614   150.81253862
 H      1   2   3     2.067954938640   110.00183987   271.30599749
 H      3   2   1     2.055302044089   120.42159836   358.41303347
 H      4   3   2     2.057621672144   118.39090766   179.55181277
 H      6   5   4     2.054117412699   121.18370353   180.21345915
 H      7   2   1     2.055765715538   120.34116100     1.56638776
 H     10   9   8     2.054117648574   121.18367398   359.74775018
 H     11  10   9     2.055767272299   118.99850538   180.37282391
 H     13  12  11     2.055304220494   120.42163015   181.18241843
 H     14  13  12     2.057622233785   118.39099824   179.55181887
 H     15  12  11     2.067957414669   110.00177422    88.47884184
 H     15  12  11     2.069433816848   110.89559195   327.98534612
 H     15  12  11     2.069436819754   110.90197224   208.96955028
 H     17  16   8     2.057623147663   120.34194952     0.04905073
 H     18  17  16     2.055303427394   119.14684137   179.66629199
 H     20  19  18     2.055767829663   120.34112166   178.79745832
 H     21  20  19     2.054118016557   117.74853275   180.63519401
 H     22  19  18     2.069436330417   110.90175720    31.79429005
 H     22  19  18     2.069431720566   110.89586558   150.81014764
 H     22  19  18     2.067956992618   110.00179119   271.30362353

---------------------
BASIS SET INFORMATION
---------------------
There are 3 groups of distinct atoms

 Group   1 Type C   : 7s4p1d contracted to 3s2p1d pattern {511/31/1}
 Group   2 Type P   : 10s7p1d contracted to 4s3p1d pattern {5311/511/1}
 Group   3 Type H   : 4s1p contracted to 2s1p pattern {31/1}

Atom   0C    basis set group =>   1
Atom   1C    basis set group =>   1
Atom   2C    basis set group =>   1
Atom   3C    basis set group =>   1
Atom   4C    basis set group =>   1
Atom   5C    basis set group =>   1
Atom   6C    basis set group =>   1
Atom   7P    basis set group =>   2
Atom   8C    basis set group =>   1
Atom   9C    basis set group =>   1
Atom  10C    basis set group =>   1
Atom  11C    basis set group =>   1
Atom  12C    basis set group =>   1
Atom  13C    basis set group =>   1
Atom  14C    basis set group =>   1
Atom  15C    basis set group =>   1
Atom  16C    basis set group =>   1
Atom  17C    basis set group =>   1
Atom  18C    basis set group =>   1
Atom  19C    basis set group =>   1
Atom  20C    basis set group =>   1
Atom  21C    basis set group =>   1
Atom  22H    basis set group =>   3
Atom  23H    basis set group =>   3
Atom  24H    basis set group =>   3
Atom  25H    basis set group =>   3
Atom  26H    basis set group =>   3
Atom  27H    basis set group =>   3
Atom  28H    basis set group =>   3
Atom  29H    basis set group =>   3
Atom  30H    basis set group =>   3
Atom  31H    basis set group =>   3
Atom  32H    basis set group =>   3
Atom  33H    basis set group =>   3
Atom  34H    basis set group =>   3
Atom  35H    basis set group =>   3
Atom  36H    basis set group =>   3
Atom  37H    basis set group =>   3
Atom  38H    basis set group =>   3
Atom  39H    basis set group =>   3
Atom  40H    basis set group =>   3
Atom  41H    basis set group =>   3
Atom  42H    basis set group =>   3
---------------------------------
AUXILIARY/J BASIS SET INFORMATION
---------------------------------
There are 3 groups of distinct atoms

 Group   1 Type C   : 12s5p4d2f1g contracted to 6s4p3d1f1g pattern {711111/2111/211/2/1}
 Group   2 Type P   : 14s5p5d2f1g contracted to 8s4p3d1f1g pattern {71111111/2111/311/2/1}
 Group   3 Type H   : 5s2p1d contracted to 3s1p1d pattern {311/2/1}

Atom   0C    basis set group =>   1
Atom   1C    basis set group =>   1
Atom   2C    basis set group =>   1
Atom   3C    basis set group =>   1
Atom   4C    basis set group =>   1
Atom   5C    basis set group =>   1
Atom   6C    basis set group =>   1
Atom   7P    basis set group =>   2
Atom   8C    basis set group =>   1
Atom   9C    basis set group =>   1
Atom  10C    basis set group =>   1
Atom  11C    basis set group =>   1
Atom  12C    basis set group =>   1
Atom  13C    basis set group =>   1
Atom  14C    basis set group =>   1
Atom  15C    basis set group =>   1
Atom  16C    basis set group =>   1
Atom  17C    basis set group =>   1
Atom  18C    basis set group =>   1
Atom  19C    basis set group =>   1
Atom  20C    basis set group =>   1
Atom  21C    basis set group =>   1
Atom  22H    basis set group =>   3
Atom  23H    basis set group =>   3
Atom  24H    basis set group =>   3
Atom  25H    basis set group =>   3
Atom  26H    basis set group =>   3
Atom  27H    basis set group =>   3
Atom  28H    basis set group =>   3
Atom  29H    basis set group =>   3
Atom  30H    basis set group =>   3
Atom  31H    basis set group =>   3
Atom  32H    basis set group =>   3
Atom  33H    basis set group =>   3
Atom  34H    basis set group =>   3
Atom  35H    basis set group =>   3
Atom  36H    basis set group =>   3
Atom  37H    basis set group =>   3
Atom  38H    basis set group =>   3
Atom  39H    basis set group =>   3
Atom  40H    basis set group =>   3
Atom  41H    basis set group =>   3
Atom  42H    basis set group =>   3


           ************************************************************
           *        Program running with 6 parallel MPI-processes     *
           *              working on a common directory               *
           ************************************************************
------------------------------------------------------------------------------
                             ORCA STARTUP CALCULATIONS
                           -- RI-GTO INTEGRALS CHOSEN --
------------------------------------------------------------------------------
------------------------------------------------------------------------------
                   ___                                                        
                  /   \      - P O W E R E D   B Y -                         
                 /     \                                                     
                 |  |  |   _    _      __       _____    __    __             
                 |  |  |  | |  | |    /  \     |  _  \  |  |  /  |          
                  \  \/   | |  | |   /    \    | | | |  |  | /  /          
                 / \  \   | |__| |  /  /\  \   | |_| |  |  |/  /          
                |  |  |   |  __  | /  /__\  \  |    /   |      \           
                |  |  |   | |  | | |   __   |  |    \   |  |\   \          
                \     /   | |  | | |  |  |  |  | |\  \  |  | \   \       
                 \___/    |_|  |_| |__|  |__|  |_| \__\ |__|  \__/        
                                                                              
                      - O R C A' S   B I G   F R I E N D -                    
                                      &                                       
                       - I N T E G R A L  F E E D E R -                       
                                                                              
 v1 FN, 2020, v2 2021, v3 2022-2024                                           
------------------------------------------------------------------------------


----------------------
SHARK INTEGRAL PACKAGE
----------------------

Number of atoms                             ...     43
Number of basis functions                   ...    417
Number of shells                            ...    197
Maximum angular momentum                    ...      2
Integral batch strategy                     ... SHARK/LIBINT Hybrid
RI-J (if used) integral strategy            ... SPLIT-RIJ (Revised 2003 algorithm where possible)
Printlevel                                  ...      1
Contraction scheme used                     ... SEGMENTED contraction
Prescreening option                         ... SCHWARTZ
   Thresh                                   ... 2.500e-11
   Tcut                                     ... 2.500e-12
   Tpresel                                  ... 2.500e-12 
Coulomb Range Separation                    ... NOT USED
Exchange Range Separation                   ... NOT USED
Multipole approximations                    ... NOT USED
Finite Nucleus Model                        ... NOT USED
CABS basis                                  ... NOT available
Auxiliary Coulomb fitting basis             ... AVAILABLE
   # of basis functions in Aux-J            ...   1311
   # of shells in Aux-J                     ...    437
   Maximum angular momentum in Aux-J        ...      4
Auxiliary J/K fitting basis                 ... NOT available
Auxiliary Correlation fitting basis         ... NOT available
Auxiliary 'external' fitting basis          ... NOT available

Checking pre-screening integrals            ... done (  0.0 sec) Dimension = 197
Check shell pair data                       ... done (  0.0 sec)
Shell pair information
Shell pair cut-off parameter TPreSel        ...   2.5e-12
Total number of shell pairs                 ...     19503
Shell pairs after pre-screening             ...     13582
Total number of primitive shell pairs       ...     70859
Primitive shell pairs kept                  ...     31367
          la=0 lb=0:   4321 shell pairs
          la=1 lb=0:   5097 shell pairs
          la=1 lb=1:   1549 shell pairs
          la=2 lb=0:   1546 shell pairs
          la=2 lb=1:    930 shell pairs
          la=2 lb=2:    139 shell pairs

Calculating one electron integrals          ... done (  0.0 sec)
Calculating RI/J V-Matrix + Cholesky decomp.... done (  0.1 sec)
Calculating Nuclear repulsion               ... done (  0.0 sec) ENN=   1770.628165288774 Eh

Diagonalization of the overlap matrix:
Smallest eigenvalue                        ... 2.572e-04
Time for diagonalization                   ...    0.025 sec
Threshold for overlap eigenvalues          ... 1.000e-07
Number of eigenvalues below threshold      ... 0
Time for construction of square roots      ...    0.015 sec
Total time needed                          ...    0.041 sec

-------------------
DFT GRID GENERATION
-------------------

General Integration Accuracy     IntAcc      ... 4.388
Radial Grid Type                 RadialGrid  ... OptM3 with GC (2021)
Angular Grid (max. ang.)         AngularGrid ... 4 (Lebedev-302)
Angular grid pruning method      GridPruning ... 4 (adaptive)
Weight generation scheme         WeightScheme... mBecke (2022)
Basis function cutoff            BFCut       ... 1.0000e-11
Integration weight cutoff        WCut        ... 1.0000e-14
Partially contracted basis set               ... off
Rotationally invariant grid construction     ... off
Angular grids for H and He will be reduced by one unit

Total number of grid points                  ...   199641
Total number of batches                      ...     3141
Average number of points per batch           ...       63
Average number of grid points per atom       ...     4643
Initializing property integral containers    ... done (  0.0 sec)

SHARK setup successfully completed in   1.5 seconds

Maximum memory used throughout the entire STARTUP-calculation: 53.0 MB


           ************************************************************
           *        Program running with 6 parallel MPI-processes     *
           *              working on a common directory               *
           ************************************************************
-------------------------------------------------------------------------------
                                 ORCA GUESS
                   Start orbitals & Density for SCF / CASSCF
-------------------------------------------------------------------------------

------------
SCF SETTINGS
------------
Hamiltonian:
 Density Functional     Method          .... DFT(GTOs)
 Exchange Functional    Exchange        .... B88
   X-Alpha parameter    XAlpha          ....  0.666667
   Becke's b parameter  XBeta           ....  0.004200
 Correlation Functional Correlation     .... LYP
 LDA part of GGA corr.  LDAOpt          .... VWN-5
 Gradients option       PostSCFGGA      .... off
 Hybrid DFT is turned on
   Fraction HF Exchange ScalHFX         ....  0.200000
   Scaling of DF-GGA-X  ScalDFX         ....  0.720000
   Scaling of DF-GGA-C  ScalDFC         ....  0.810000
   Scaling of DF-LDA-C  ScalLDAC        ....  1.000000
   Perturbative correction              ....  0.000000
   NL short-range parameter             ....  4.800000
 RI-approximation to the Coulomb term is turned on
   Number of AuxJ basis functions       .... 1311
   RIJ-ON(X) (HFX calculated with O(N)) .... on


General Settings:
 Integral files         IntName         .... data/geom_opt/13956/13956
 Hartree-Fock type      HFTyp           .... RHF
 Total Charge           Charge          ....    0
 Multiplicity           Mult            ....    1
 Number of Electrons    NEL             ....  162
 Basis Dimension        Dim             ....  417
 Nuclear Repulsion      ENuc            ....   1770.6281652888 Eh

Convergence Acceleration:
 AO-DIIS                CNVDIIS         .... on
   Start iteration      DIISMaxIt       ....    12
   Startup error        DIISStart       ....  0.200000
   # of expansion vecs  DIISMaxEq       ....     5
   Bias factor          DIISBfac        ....   1.050
   Max. coefficient     DIISMaxC        ....  10.000
 MO-DIIS                CNVKDIIS        .... off
 Trust-Rad. Augm. Hess. CNVTRAH         .... auto
   Auto Start mean grad. ratio tolernc. ....  1.125000
   Auto Start start iteration           ....    50
   Auto Start num. interpolation iter.  ....    10
   Max. Number of Micro iterations      ....    24
   Max. Number of Macro iterations      .... Maxiter - #DIIS iter
   Number of Davidson start vectors     ....     2
   Converg. threshold    (grad. norm)   ....   1.000e-05
   Grad. Scal. Fac. for Micro threshold ....   0.100
   Minimum threshold for Micro iter.    ....   1.000e-02
   NR start threshold (gradient norm)   ....   1.000e-04
   Initial trust radius                 ....   0.400
   Minimum AH scaling param. (alpha)    ....   1.000
   Maximum AH scaling param. (alpha)    .... 1000.000
   Quad. conv. algorithm                .... NR
   White noise on init. David. guess    .... on
   Maximum white noise                  ....   0.010
   Pseudo random numbers                .... off
   Inactive MOs                         .... canonical
   Orbital update algorithm             .... Taylor
   Preconditioner                       .... Diag
   Full preconditioner red. dimension   ....   250
   COSX micro iterations for RIJONX calc.... off
 SOSCF                  CNVSOSCF        .... on
   Start iteration      SOSCFMaxIt      ....   150
   Startup grad/error   SOSCFStart      ....  0.003300
   Hessian update       SOSCFHessUp     .... L-BFGS
 Level Shifting         CNVShift        .... on
   Level shift para.    LevelShift      ....    0.2500
   Turn off err/grad.   ShiftErr        ....    0.0010
 Zerner damping         CNVZerner       .... off
 Static damping         CNVDamp         .... on
   Fraction old density DampFac         ....    0.7000
   Max. Damping (<1)    DampMax         ....    0.9800
   Min. Damping (>=0)   DampMin         ....    0.0000
   Turn off err/grad.   DampErr         ....    0.1000

SCF Procedure:
 Maximum # iterations   MaxIter         ....   125
 SCF integral mode      SCFMode         .... Direct
   Integral package                     .... SHARK and LIBINT hybrid scheme
 Reset frequency        DirectResetFreq ....    20
 Integral Threshold     Thresh          ....  2.500e-11 Eh
 Primitive CutOff       TCut            ....  2.500e-12 Eh

Convergence Tolerance:
 Convergence Check Mode ConvCheckMode   .... Total+1el-Energy
 Convergence forced     ConvForced      .... 0
 Energy Change          TolE            ....  1.000e-08 Eh
 1-El. energy change                    ....  1.000e-05 Eh
 Orbital Gradient       TolG            ....  1.000e-05
 Orbital Rotation angle TolX            ....  1.000e-05
 DIIS Error             TolErr          ....  5.000e-07

------------------------------
INITIAL GUESS: MODEL POTENTIAL
------------------------------
Loading Hartree-Fock densities                     ... done
Calculating cut-offs                               ... done
Initializing the effective Hamiltonian             ... done
Setting up the integral package (SHARK)            ... done
Starting the Coulomb interaction                   ... done (   0.2 sec)
Making the grid                                    ... done (   0.3 sec)
Mapping shells                                     ... done
Starting the XC term evaluation                    ... done (   0.2 sec)
  promolecular density results
     # of electrons  =    161.993923514
     EX              =   -136.847893740
     EC              =     -5.487032188
     EX+EC           =   -142.334925928
Transforming the Hamiltonian                       ... done (   0.0 sec)
Diagonalizing the Hamiltonian                      ... done (   0.0 sec)
Back transforming the eigenvectors                 ... done (   0.0 sec)
Now organizing SCF variables                       ... done
                      ------------------
                      INITIAL GUESS DONE (   0.7 sec)
                      ------------------
             **** ENERGY FILE WAS UPDATED (data/geom_opt/13956/13956.en.tmp) ****
Finished Guess after   0.8 sec
Maximum memory used throughout the entire GUESS-calculation: 30.0 MB


           ************************************************************
           *        Program running with 6 parallel MPI-processes     *
           *              working on a common directory               *
           ************************************************************

-------------------------------------------------------------------------------------------
                                      ORCA LEAN-SCF
                              memory conserving SCF solver
-------------------------------------------------------------------------------------------

----------------------------------------D-I-I-S--------------------------------------------
Iteration    Energy (Eh)           Delta-E    RMSDP     MaxDP     DIISErr   Damp  Time(sec)
-------------------------------------------------------------------------------------------
               ***  Starting incremental Fock matrix formation  ***
    1    -1152.4870871368395910     0.00e+00  2.30e-03  7.63e-02  1.65e-01  0.700   6.1
    2    -1152.7083270214905042    -2.21e-01  1.64e-03  5.56e-02  8.93e-02  0.700   5.9
                               ***Turning on AO-DIIS***
    3    -1152.8057303040789066    -9.74e-02  7.47e-04  3.59e-02  3.65e-02  0.700   5.6
    4    -1152.8615968587494081    -5.59e-02  1.44e-03  7.95e-02  1.91e-02  0.000   5.1
    5    -1152.9804377343623401    -1.19e-01  2.10e-04  1.31e-02  4.99e-03  0.000   5.7
                              *** Initializing SOSCF ***
---------------------------------------S-O-S-C-F--------------------------------------
Iteration    Energy (Eh)           Delta-E    RMSDP     MaxDP     MaxGrad    Time(sec)
--------------------------------------------------------------------------------------
    6    -1152.9811100191529931    -6.72e-04  7.71e-05  3.87e-03  1.25e-03     5.0
               *** Restarting incremental Fock matrix formation ***
    7    -1152.9811629254488707    -5.29e-05  5.25e-05  1.46e-03  3.45e-04     6.1
    8    -1152.9811553849147003     7.54e-06  2.58e-05  7.05e-04  5.89e-04     4.4
    9    -1152.9811694161601281    -1.40e-05  1.37e-05  6.24e-04  1.04e-04     4.3
   10    -1152.9811690228123098     3.93e-07  6.93e-06  2.20e-04  8.92e-05     3.8
   11    -1152.9811701119431291    -1.09e-06  3.03e-06  2.27e-04  2.42e-05     3.3
   12    -1152.9811700792135980     3.27e-08  1.87e-06  1.20e-04  3.86e-05     3.1
   13    -1152.9811701412902494    -6.21e-08  3.43e-07  3.68e-05  1.68e-06     3.2
                  *** Gradient check signals convergence ***

               *****************************************************
               *                     SUCCESS                       *
               *           SCF CONVERGED AFTER  13 CYCLES          *
               *****************************************************

             **** ENERGY FILE WAS UPDATED (data/geom_opt/13956/13956.en.tmp) ****

----------------
TOTAL SCF ENERGY
----------------

Total Energy       :      -1152.98117014129025 Eh          -31374.21267 eV

Components:
Nuclear Repulsion  :       1770.62816528877443 Eh           48181.24186 eV
Electronic Energy  :      -2923.60933543006468 Eh          -79555.45454 eV
One Electron Energy:      -5087.49495717530499 Eh         -138437.77583 eV
Two Electron Energy:       2163.88562174524031 Eh           58882.32129 eV

Virial components:
Potential Energy   :      -2296.28927162974469 Eh          -62485.20777 eV
Kinetic Energy     :       1143.30810148845444 Eh           31110.99509 eV
Virial Ratio       :          2.00846059661455

DFT components:
N(Alpha)           :       80.999997138654 electrons
N(Beta)            :       80.999997138654 electrons
N(Total)           :      161.999994277307 electrons
E(X)               :     -110.162760985051 Eh       
E(C)               :       -6.472729058771 Eh       
E(XC)              :     -116.635490043823 Eh       

---------------
SCF CONVERGENCE
---------------

  Last Energy change         ...    6.2077e-08  Tolerance :   1.0000e-08
  Last MAX-Density change    ...    3.6825e-05  Tolerance :   1.0000e-07
  Last RMS-Density change    ...    3.4257e-07  Tolerance :   5.0000e-09
  Last DIIS Error            ...    1.2452e-03  Tolerance :   5.0000e-07
  Last Orbital Gradient      ...    1.6752e-06  Tolerance :   1.0000e-05
  Last Orbital Rotation      ...    3.9044e-06  Tolerance :   1.0000e-05


----------------
ORBITAL ENERGIES
----------------

  NO   OCC          E(Eh)            E(eV) 
   0   2.0000     -77.040074     -2096.3670 
   1   2.0000     -10.190058      -277.2856 
   2   2.0000     -10.190056      -277.2855 
   3   2.0000     -10.190055      -277.2855 
   4   2.0000     -10.185783      -277.1692 
   5   2.0000     -10.185774      -277.1690 
   6   2.0000     -10.185772      -277.1690 
   7   2.0000     -10.183972      -277.1200 
   8   2.0000     -10.183971      -277.1199 
   9   2.0000     -10.183967      -277.1198 
  10   2.0000     -10.183472      -277.1064 
  11   2.0000     -10.183469      -277.1063 
  12   2.0000     -10.183421      -277.1050 
  13   2.0000     -10.181691      -277.0579 
  14   2.0000     -10.181689      -277.0578 
  15   2.0000     -10.181687      -277.0578 
  16   2.0000     -10.181623      -277.0560 
  17   2.0000     -10.181620      -277.0560 
  18   2.0000     -10.181618      -277.0559 
  19   2.0000     -10.181013      -277.0395 
  20   2.0000     -10.181011      -277.0394 
  21   2.0000     -10.181005      -277.0392 
  22   2.0000      -6.536683      -177.8722 
  23   2.0000      -4.702122      -127.9512 
  24   2.0000      -4.702119      -127.9512 
  25   2.0000      -4.699154      -127.8705 
  26   2.0000      -0.850410       -23.1408 
  27   2.0000      -0.843963       -22.9654 
  28   2.0000      -0.843962       -22.9654 
  29   2.0000      -0.779564       -21.2130 
  30   2.0000      -0.760193       -20.6859 
  31   2.0000      -0.760192       -20.6859 
  32   2.0000      -0.731611       -19.9081 
  33   2.0000      -0.731610       -19.9081 
  34   2.0000      -0.731552       -19.9065 
  35   2.0000      -0.699530       -19.0352 
  36   2.0000      -0.672085       -18.2884 
  37   2.0000      -0.672084       -18.2883 
  38   2.0000      -0.610827       -16.6215 
  39   2.0000      -0.597715       -16.2647 
  40   2.0000      -0.597715       -16.2646 
  41   2.0000      -0.597420       -16.2566 
  42   2.0000      -0.571795       -15.5593 
  43   2.0000      -0.571795       -15.5593 
  44   2.0000      -0.549450       -14.9513 
  45   2.0000      -0.494701       -13.4615 
  46   2.0000      -0.494700       -13.4615 
  47   2.0000      -0.463528       -12.6132 
  48   2.0000      -0.460611       -12.5339 
  49   2.0000      -0.460610       -12.5338 
  50   2.0000      -0.459390       -12.5006 
  51   2.0000      -0.443295       -12.0627 
  52   2.0000      -0.443294       -12.0627 
  53   2.0000      -0.434017       -11.8102 
  54   2.0000      -0.422389       -11.4938 
  55   2.0000      -0.422336       -11.4923 
  56   2.0000      -0.422334       -11.4923 
  57   2.0000      -0.414712       -11.2849 
  58   2.0000      -0.414323       -11.2743 
  59   2.0000      -0.414321       -11.2742 
  60   2.0000      -0.392234       -10.6732 
  61   2.0000      -0.392232       -10.6732 
  62   2.0000      -0.382742       -10.4149 
  63   2.0000      -0.380138       -10.3441 
  64   2.0000      -0.380136       -10.3440 
  65   2.0000      -0.358307        -9.7500 
  66   2.0000      -0.353708        -9.6249 
  67   2.0000      -0.353705        -9.6248 
  68   2.0000      -0.350003        -9.5241 
  69   2.0000      -0.337515        -9.1842 
  70   2.0000      -0.337514        -9.1842 
  71   2.0000      -0.337234        -9.1766 
  72   2.0000      -0.318759        -8.6739 
  73   2.0000      -0.318758        -8.6738 
  74   2.0000      -0.263920        -7.1816 
  75   2.0000      -0.253737        -6.9045 
  76   2.0000      -0.249883        -6.7997 
  77   2.0000      -0.249881        -6.7996 
  78   2.0000      -0.243975        -6.6389 
  79   2.0000      -0.243973        -6.6389 
  80   2.0000      -0.197944        -5.3863 
  81   0.0000      -0.017611        -0.4792 
  82   0.0000      -0.017609        -0.4792 
  83   0.0000      -0.016501        -0.4490 
  84   0.0000      -0.000146        -0.0040 
  85   0.0000      -0.000144        -0.0039 
  86   0.0000       0.001194         0.0325 
  87   0.0000       0.068143         1.8543 
  88   0.0000       0.068150         1.8545 
  89   0.0000       0.068604         1.8668 
  90   0.0000       0.082122         2.2346 
  91   0.0000       0.082126         2.2348 
*Only the first 10 virtual orbitals were printed.

                    ********************************
                    * MULLIKEN POPULATION ANALYSIS *
                    ********************************

-----------------------
MULLIKEN ATOMIC CHARGES
-----------------------
   0 C :    0.088936
   1 C :   -0.038626
   2 C :   -0.007459
   3 C :    0.023148
   4 C :   -0.136515
   5 C :    0.016308
   6 C :   -0.002709
   7 P :    0.337209
   8 C :   -0.136555
   9 C :    0.016296
  10 C :   -0.002676
  11 C :   -0.038671
  12 C :   -0.007377
  13 C :    0.023038
  14 C :    0.088885
  15 C :   -0.136628
  16 C :    0.023156
  17 C :   -0.007339
  18 C :   -0.038703
  19 C :   -0.002758
  20 C :    0.016303
  21 C :    0.088932
  22 H :    0.010240
  23 H :    0.010467
  24 H :    0.031344
  25 H :   -0.036307
  26 H :   -0.022320
  27 H :   -0.010097
  28 H :   -0.038775
  29 H :   -0.010118
  30 H :   -0.038729
  31 H :   -0.036312
  32 H :   -0.022266
  33 H :    0.031349
  34 H :    0.010449
  35 H :    0.010281
  36 H :   -0.022315
  37 H :   -0.036325
  38 H :   -0.038767
  39 H :   -0.010061
  40 H :    0.010240
  41 H :    0.010460
  42 H :    0.031362
Sum of atomic charges:   -0.0000000

--------------------------------
MULLIKEN REDUCED ORBITAL CHARGES
--------------------------------
  0 C s       :     2.922396  s :     2.922396
      pz      :     0.988777  p :     2.959900
      px      :     0.993357
      py      :     0.977766
      dz2     :     0.007292  d :     0.028768
      dxz     :     0.005829
      dyz     :     0.002926
      dx2y2   :     0.006635
      dxy     :     0.006086

  1 C s       :     3.072527  s :     3.072527
      pz      :     0.968714  p :     2.922090
      px      :     0.972380
      py      :     0.980997
      dz2     :     0.008274  d :     0.044009
      dxz     :     0.006320
      dyz     :     0.009549
      dx2y2   :     0.010001
      dxy     :     0.009865

  2 C s       :     3.214929  s :     3.214929
      pz      :     0.956495  p :     2.758137
      px      :     0.988969
      py      :     0.812673
      dz2     :     0.006577  d :     0.034393
      dxz     :     0.005756
      dyz     :     0.007324
      dx2y2   :     0.008378
      dxy     :     0.006358

  3 C s       :     3.215453  s :     3.215453
      pz      :     0.897644  p :     2.726294
      px      :     0.898661
      py      :     0.929989
      dz2     :     0.004680  d :     0.035104
      dxz     :     0.004974
      dyz     :     0.008432
      dx2y2   :     0.008355
      dxy     :     0.008664

  4 C s       :     3.075914  s :     3.075914
      pz      :     0.990685  p :     3.024002
      px      :     1.020672
      py      :     1.012646
      dz2     :     0.007217  d :     0.036599
      dxz     :     0.005644
      dyz     :     0.008569
      dx2y2   :     0.006917
      dxy     :     0.008252

  5 C s       :     3.227553  s :     3.227553
      pz      :     0.931015  p :     2.720887
      px      :     0.956941
      py      :     0.832931
      dz2     :     0.006684  d :     0.035251
      dxz     :     0.005711
      dyz     :     0.007601
      dx2y2   :     0.008675
      dxy     :     0.006579

  6 C s       :     3.215002  s :     3.215002
      pz      :     0.895747  p :     2.753326
      px      :     0.912286
      py      :     0.945293
      dz2     :     0.004613  d :     0.034381
      dxz     :     0.004922
      dyz     :     0.008094
      dx2y2   :     0.008516
      dxy     :     0.008235

  7 P s       :     5.640708  s :     5.640708
      pz      :     3.339322  p :     8.840713
      px      :     2.749813
      py      :     2.751578
      dz2     :     0.015257  d :     0.181370
      dxz     :     0.040362
      dyz     :     0.032683
      dx2y2   :     0.045923
      dxy     :     0.047145

  8 C s       :     3.076002  s :     3.076002
      pz      :     0.991555  p :     3.023954
      px      :     1.023198
      py      :     1.009201
      dz2     :     0.007806  d :     0.036599
      dxz     :     0.006737
      dyz     :     0.008494
      dx2y2   :     0.006955
      dxy     :     0.006607

  9 C s       :     3.227722  s :     3.227722
      pz      :     0.923945  p :     2.720731
      px      :     0.899498
      py      :     0.897289
      dz2     :     0.006512  d :     0.035251
      dxz     :     0.006162
      dyz     :     0.008271
      dx2y2   :     0.007017
      dxy     :     0.007288

 10 C s       :     3.214874  s :     3.214874
      pz      :     0.885182  p :     2.753421
      px      :     0.944177
      py      :     0.924062
      dz2     :     0.005293  d :     0.034382
      dxz     :     0.005692
      dyz     :     0.007639
      dx2y2   :     0.007786
      dxy     :     0.007972

 11 C s       :     3.072552  s :     3.072552
      pz      :     0.968195  p :     2.922110
      px      :     0.974928
      py      :     0.978987
      dz2     :     0.008948  d :     0.044009
      dxz     :     0.006972
      dyz     :     0.009509
      dx2y2   :     0.009436
      dxy     :     0.009143

 12 C s       :     3.214937  s :     3.214937
      pz      :     0.935979  p :     2.758046
      px      :     0.894482
      py      :     0.927586
      dz2     :     0.006440  d :     0.034393
      dxz     :     0.005937
      dyz     :     0.008252
      dx2y2   :     0.006493
      dxy     :     0.007271

 13 C s       :     3.215409  s :     3.215409
      pz      :     0.893535  p :     2.726448
      px      :     0.935809
      py      :     0.897104
      dz2     :     0.005382  d :     0.035105
      dxz     :     0.005827
      dyz     :     0.007840
      dx2y2   :     0.008023
      dxy     :     0.008032

 14 C s       :     2.922415  s :     2.922415
      pz      :     0.991754  p :     2.959932
      px      :     0.990365
      py      :     0.977813
      dz2     :     0.007741  d :     0.028768
      dxz     :     0.002557
      dyz     :     0.005238
      dx2y2   :     0.007634
      dxy     :     0.005599

 15 C s       :     3.076039  s :     3.076039
      pz      :     0.986887  p :     3.023990
      px      :     1.007563
      py      :     1.029540
      dz2     :     0.008363  d :     0.036599
      dxz     :     0.010305
      dyz     :     0.005169
      dx2y2   :     0.006917
      dxy     :     0.005844

 16 C s       :     3.215421  s :     3.215421
      pz      :     0.874897  p :     2.726319
      px      :     0.922112
      py      :     0.929310
      dz2     :     0.006220  d :     0.035104
      dxz     :     0.009113
      dyz     :     0.004527
      dx2y2   :     0.007540
      dxy     :     0.007704

 17 C s       :     3.214929  s :     3.214929
      pz      :     0.944831  p :     2.758018
      px      :     0.834800
      py      :     0.978387
      dz2     :     0.007652  d :     0.034393
      dxz     :     0.009554
      dyz     :     0.005089
      dx2y2   :     0.005770
      dxy     :     0.006327

 18 C s       :     3.072573  s :     3.072573
      pz      :     0.969803  p :     2.922121
      px      :     0.982519
      py      :     0.969799
      dz2     :     0.009696  d :     0.044009
      dxz     :     0.011356
      dyz     :     0.005723
      dx2y2   :     0.008326
      dxy     :     0.008907

 19 C s       :     3.214977  s :     3.214977
      pz      :     0.860638  p :     2.753399
      px      :     0.953044
      py      :     0.939717
      dz2     :     0.006132  d :     0.034381
      dxz     :     0.008931
      dyz     :     0.004453
      dx2y2   :     0.007304
      dxy     :     0.007561

 20 C s       :     3.227520  s :     3.227520
      pz      :     0.925997  p :     2.720927
      px      :     0.834307
      py      :     0.960623
      dz2     :     0.007680  d :     0.035250
      dxz     :     0.009918
      dyz     :     0.005124
      dx2y2   :     0.005704
      dxy     :     0.006824

 21 C s       :     2.922395  s :     2.922395
      pz      :     0.986580  p :     2.959905
      px      :     0.972571
      py      :     1.000754
      dz2     :     0.008468  d :     0.028768
      dxz     :     0.004632
      dyz     :     0.002594
      dx2y2   :     0.004648
      dxy     :     0.008426

 22 H s       :     0.966259  s :     0.966259
      pz      :     0.005040  p :     0.023502
      px      :     0.005971
      py      :     0.012491

 23 H s       :     0.966026  s :     0.966026
      pz      :     0.013470  p :     0.023507
      px      :     0.005073
      py      :     0.004964

 24 H s       :     0.944565  s :     0.944565
      pz      :     0.007459  p :     0.024091
      px      :     0.011695
      py      :     0.004936

 25 H s       :     1.013315  s :     1.013315
      pz      :     0.005485  p :     0.022992
      px      :     0.004100
      py      :     0.013407

 26 H s       :     0.999249  s :     0.999249
      pz      :     0.010241  p :     0.023071
      px      :     0.008473
      py      :     0.004357

 27 H s       :     0.986437  s :     0.986437
      pz      :     0.005484  p :     0.023661
      px      :     0.004086
      py      :     0.014091

 28 H s       :     1.015833  s :     1.015833
      pz      :     0.010056  p :     0.022942
      px      :     0.008584
      py      :     0.004302

 29 H s       :     0.986458  s :     0.986458
      pz      :     0.006921  p :     0.023660
      px      :     0.010870
      py      :     0.005869

 30 H s       :     1.015787  s :     1.015787
      pz      :     0.010772  p :     0.022941
      px      :     0.006103
      py      :     0.006066

 31 H s       :     1.013321  s :     1.013321
      pz      :     0.006903  p :     0.022991
      px      :     0.010449
      py      :     0.005639

 32 H s       :     0.999196  s :     0.999196
      pz      :     0.010975  p :     0.023070
      px      :     0.005976
      py      :     0.006120

 33 H s       :     0.944560  s :     0.944560
      pz      :     0.007339  p :     0.024090
      px      :     0.007468
      py      :     0.009283

 34 H s       :     0.966044  s :     0.966044
      pz      :     0.013885  p :     0.023507
      px      :     0.005166
      py      :     0.004456

 35 H s       :     0.966219  s :     0.966219
      pz      :     0.005421  p :     0.023500
      px      :     0.013718
      py      :     0.004360

 36 H s       :     0.999244  s :     0.999244
      pz      :     0.011967  p :     0.023070
      px      :     0.003542
      py      :     0.007561

 37 H s       :     1.013332  s :     1.013332
      pz      :     0.005784  p :     0.022993
      px      :     0.010863
      py      :     0.006346

 38 H s       :     1.015826  s :     1.015826
      pz      :     0.011731  p :     0.022941
      px      :     0.003424
      py      :     0.007786

 39 H s       :     0.986401  s :     0.986401
      pz      :     0.005842  p :     0.023660
      px      :     0.011423
      py      :     0.006395

 40 H s       :     0.966259  s :     0.966259
      pz      :     0.005176  p :     0.023500
      px      :     0.007761
      py      :     0.010564

 41 H s       :     0.966032  s :     0.966032
      pz      :     0.013966  p :     0.023507
      px      :     0.004321
      py      :     0.005220

 42 H s       :     0.944548  s :     0.944548
      pz      :     0.006319  p :     0.024090
      px      :     0.006421
      py      :     0.011350



                     *******************************
                     * LOEWDIN POPULATION ANALYSIS *
                     *******************************

----------------------
LOEWDIN ATOMIC CHARGES
----------------------
   0 C :   -0.042317
   1 C :   -0.022875
   2 C :   -0.031325
   3 C :   -0.021729
   4 C :   -0.184804
   5 C :   -0.025507
   6 C :   -0.031398
   7 P :    0.515949
   8 C :   -0.184795
   9 C :   -0.025510
  10 C :   -0.031402
  11 C :   -0.022884
  12 C :   -0.031309
  13 C :   -0.021749
  14 C :   -0.042325
  15 C :   -0.184821
  16 C :   -0.021734
  17 C :   -0.031303
  18 C :   -0.022882
  19 C :   -0.031406
  20 C :   -0.025517
  21 C :   -0.042321
  22 H :    0.028252
  23 H :    0.028426
  24 H :    0.036156
  25 H :    0.022990
  26 H :    0.023131
  27 H :    0.026731
  28 H :    0.022291
  29 H :    0.026733
  30 H :    0.022296
  31 H :    0.022992
  32 H :    0.023140
  33 H :    0.036158
  34 H :    0.028427
  35 H :    0.028256
[...]
      dxz     :     0.024618
      dyz     :     0.010427
      dx2y2   :     0.019915
      dxy     :     0.018430

 20 C s       :     2.866039  s :     2.866039
      pz      :     1.030397  p :     3.070369
      px      :     1.048109
      py      :     0.991862
      dz2     :     0.020526  d :     0.091966
      dxz     :     0.027347
      dyz     :     0.013813
      dx2y2   :     0.014694
      dxy     :     0.015586

 21 C s       :     2.835123  s :     2.835123
      pz      :     1.050228  p :     3.138222
      px      :     1.024888
      py      :     1.063106
      dz2     :     0.021688  d :     0.072147
      dxz     :     0.012413
      dyz     :     0.005344
      dx2y2   :     0.010935
      dxy     :     0.021766

 22 H s       :     0.906724  s :     0.906724
      pz      :     0.012029  p :     0.063964
      px      :     0.015899
      py      :     0.036035

 23 H s       :     0.906843  s :     0.906843
      pz      :     0.037537  p :     0.063948
      px      :     0.013317
      py      :     0.013093

 24 H s       :     0.898843  s :     0.898843
      pz      :     0.018421  p :     0.064074
      px      :     0.033486
      py      :     0.012167

 25 H s       :     0.909794  s :     0.909794
      pz      :     0.015449  p :     0.066668
      px      :     0.012804
      py      :     0.038416

 26 H s       :     0.908717  s :     0.908717
      pz      :     0.029995  p :     0.067168
      px      :     0.023824
      py      :     0.013349

 27 H s       :     0.901382  s :     0.901382
      pz      :     0.015450  p :     0.069540
      px      :     0.012768
      py      :     0.041322

 28 H s       :     0.910285  s :     0.910285
      pz      :     0.029620  p :     0.066695
      px      :     0.023648
      py      :     0.013428

 29 H s       :     0.901412  s :     0.901412
      pz      :     0.019370  p :     0.069533
      px      :     0.031093
      py      :     0.019070

 30 H s       :     0.910279  s :     0.910279
      pz      :     0.031748  p :     0.066690
      px      :     0.017687
      py      :     0.017254

 31 H s       :     0.909800  s :     0.909800
      pz      :     0.019161  p :     0.066667
      px      :     0.030016
      py      :     0.017490

 32 H s       :     0.908712  s :     0.908712
      pz      :     0.032157  p :     0.067165
      px      :     0.017443
      py      :     0.017565

 33 H s       :     0.898850  s :     0.898850
      pz      :     0.017745  p :     0.064075
      px      :     0.018882
      py      :     0.027448

 34 H s       :     0.906755  s :     0.906755
      pz      :     0.039088  p :     0.063954
      px      :     0.012479
      py      :     0.012387

 35 H s       :     0.906791  s :     0.906791
      pz      :     0.013178  p :     0.063963
      px      :     0.038332
      py      :     0.012453

 36 H s       :     0.908724  s :     0.908724
      pz      :     0.034616  p :     0.067166
      px      :     0.010952
      py      :     0.021598

 37 H s       :     0.909806  s :     0.909806
      pz      :     0.016162  p :     0.066668
      px      :     0.031785
      py      :     0.018721

 38 H s       :     0.910297  s :     0.910297
      pz      :     0.033997  p :     0.066695
      px      :     0.010887
      py      :     0.021811

 39 H s       :     0.901409  s :     0.901409
      pz      :     0.016241  p :     0.069537
      px      :     0.034879
      py      :     0.018417

 40 H s       :     0.906779  s :     0.906779
      pz      :     0.012561  p :     0.063963
      px      :     0.022811
      py      :     0.028591

 41 H s       :     0.906814  s :     0.906814
      pz      :     0.039231  p :     0.063948
      px      :     0.012057
      py      :     0.012660

 42 H s       :     0.898842  s :     0.898842
      pz      :     0.015202  p :     0.064078
      px      :     0.018151
      py      :     0.030725



                      *****************************
                      * MAYER POPULATION ANALYSIS *
                      *****************************

  NA   - Mulliken gross atomic population
  ZA   - Total nuclear charge
  QA   - Mulliken gross atomic charge
  VA   - Mayer's total valence
  BVA  - Mayer's bonded valence
  FA   - Mayer's free valence

  ATOM       NA         ZA         QA         VA         BVA        FA
  0 C      5.9220     6.0000     0.0780     3.9040     3.9040    -0.0000
  1 C      6.0345     6.0000    -0.0345     3.9573     3.9573    -0.0000
  2 C      6.0113     6.0000    -0.0113     3.8634     3.8634    -0.0000
  3 C      5.9710     6.0000     0.0290     3.8611     3.8611    -0.0000
  4 C      6.1629     6.0000    -0.1629     3.7984     3.7984    -0.0000
  5 C      5.9762     6.0000     0.0238     3.8681     3.8681    -0.0000
  6 C      6.0062     6.0000    -0.0062     3.8395     3.8395    -0.0000
  7 P     14.6401    15.0000     0.3599     2.9265     2.9265    -0.0000
  8 C      6.1630     6.0000    -0.1630     3.7985     3.7985    -0.0000
  9 C      5.9762     6.0000     0.0238     3.8682     3.8682    -0.0000
 10 C      6.0062     6.0000    -0.0062     3.8394     3.8394    -0.0000
 11 C      6.0345     6.0000    -0.0345     3.9571     3.9571    -0.0000
 12 C      6.0112     6.0000    -0.0112     3.8636     3.8636    -0.0000
 13 C      5.9709     6.0000     0.0291     3.8611     3.8611    -0.0000
 14 C      5.9220     6.0000     0.0780     3.9041     3.9041    -0.0000
 15 C      6.1629     6.0000    -0.1629     3.7982     3.7982    -0.0000
 16 C      5.9709     6.0000     0.0291     3.8611     3.8611    -0.0000
 17 C      6.0112     6.0000    -0.0112     3.8635     3.8635    -0.0000
 18 C      6.0346     6.0000    -0.0346     3.9574     3.9574    -0.0000
 19 C      6.0062     6.0000    -0.0062     3.8395     3.8395    -0.0000
 20 C      5.9765     6.0000     0.0235     3.8683     3.8683    -0.0000
 21 C      5.9220     6.0000     0.0780     3.9040     3.9040    -0.0000
 22 H      0.9866     1.0000     0.0134     0.9929     0.9929    -0.0000
 23 H      0.9870     1.0000     0.0130     0.9932     0.9932    -0.0000
 24 H      0.9683     1.0000     0.0317     0.9868     0.9868    -0.0000
 25 H      1.0333     1.0000    -0.0333     0.9849     0.9849    -0.0000
 26 H      1.0202     1.0000    -0.0202     0.9891     0.9891    -0.0000
 27 H      1.0049     1.0000    -0.0049     0.9907     0.9907    -0.0000
 28 H      1.0356     1.0000    -0.0356     0.9847     0.9847    -0.0000
 29 H      1.0049     1.0000    -0.0049     0.9907     0.9907    -0.0000
 30 H      1.0356     1.0000    -0.0356     0.9847     0.9847     0.0000
 31 H      1.0333     1.0000    -0.0333     0.9849     0.9849     0.0000
 32 H      1.0202     1.0000    -0.0202     0.9891     0.9891    -0.0000
 33 H      0.9683     1.0000     0.0317     0.9868     0.9868    -0.0000
 34 H      0.9868     1.0000     0.0132     0.9931     0.9931    -0.0000
 35 H      0.9867     1.0000     0.0133     0.9930     0.9930    -0.0000
 36 H      1.0202     1.0000    -0.0202     0.9891     0.9891    -0.0000
 37 H      1.0333     1.0000    -0.0333     0.9849     0.9849    -0.0000
 38 H      1.0357     1.0000    -0.0357     0.9847     0.9847    -0.0000
 39 H      1.0048     1.0000    -0.0048     0.9907     0.9907    -0.0000
 40 H      0.9867     1.0000     0.0133     0.9930     0.9930    -0.0000
 41 H      0.9869     1.0000     0.0131     0.9931     0.9931    -0.0000
 42 H      0.9683     1.0000     0.0317     0.9868     0.9868    -0.0000

  Mayer bond orders larger than 0.100000
B(  0-C ,  1-C ) :   1.0633 B(  0-C , 22-H ) :   0.9579 B(  0-C , 23-H ) :   0.9580 
B(  0-C , 24-H ) :   0.9515 B(  1-C ,  2-C ) :   1.3780 B(  1-C ,  6-C ) :   1.3826 
B(  2-C ,  3-C ) :   1.3991 B(  2-C , 25-H ) :   0.9863 B(  3-C ,  4-C ) :   1.3636 
B(  3-C , 26-H ) :   0.9807 B(  4-C ,  5-C ) :   1.3789 B(  4-C ,  7-P ) :   0.9291 
B(  5-C ,  6-C ) :   1.3762 B(  5-C , 27-H ) :   0.9790 B(  6-C , 28-H ) :   0.9856 
B(  7-P ,  8-C ) :   0.9290 B(  7-P , 15-C ) :   0.9286 B(  8-C ,  9-C ) :   1.3787 
B(  8-C , 13-C ) :   1.3639 B(  9-C , 10-C ) :   1.3763 B(  9-C , 29-H ) :   0.9791 
B( 10-C , 11-C ) :   1.3824 B( 10-C , 30-H ) :   0.9856 B( 11-C , 12-C ) :   1.3781 
B( 11-C , 14-C ) :   1.0632 B( 12-C , 13-C ) :   1.3990 B( 12-C , 31-H ) :   0.9863 
B( 13-C , 32-H ) :   0.9807 B( 14-C , 33-H ) :   0.9515 B( 14-C , 34-H ) :   0.9579 
B( 14-C , 35-H ) :   0.9579 B( 15-C , 16-C ) :   1.3635 B( 15-C , 20-C ) :   1.3792 
B( 16-C , 17-C ) :   1.3993 B( 16-C , 36-H ) :   0.9806 B( 17-C , 18-C ) :   1.3778 
B( 17-C , 37-H ) :   0.9863 B( 18-C , 19-C ) :   1.3829 B( 18-C , 21-C ) :   1.0633 
B( 19-C , 20-C ) :   1.3760 B( 19-C , 38-H ) :   0.9856 B( 20-C , 39-H ) :   0.9791 
B( 21-C , 40-H ) :   0.9579 B( 21-C , 41-H ) :   0.9580 B( 21-C , 42-H ) :   0.9515 


-------
TIMINGS
-------

Total SCF time: 0 days 0 hours 0 min 25 sec 

Total time                  ....      25.579 sec
Sum of individual times     ....      25.477 sec  ( 99.6%)

SCF preparation             ....       0.155 sec  (  0.6%)
Fock matrix formation       ....      24.712 sec  ( 96.6%)
  Startup                   ....       0.028 sec  (  0.1% of F)
  Exchange formation        ....      19.152 sec  ( 77.5% of F)
  Split-RI-J                ....       2.179 sec  (  8.8% of F)
  XC integration            ....       3.250 sec  ( 13.2% of F)
    Basis function eval.    ....       1.003 sec  ( 30.9% of XC)
    Density eval.           ....       1.015 sec  ( 31.2% of XC)
    XC-Functional eval.     ....       0.085 sec  (  2.6% of XC)
    XC-Potential eval.      ....       0.702 sec  ( 21.6% of XC)
Diagonalization             ....       0.000 sec  (  0.0%)
Density matrix formation    ....       0.069 sec  (  0.3%)
Total Energy calculation    ....       0.024 sec  (  0.1%)
Population analysis         ....       0.103 sec  (  0.4%)
Orbital Transformation      ....       0.057 sec  (  0.2%)
Orbital Orthonormalization  ....       0.000 sec  (  0.0%)
DIIS solution               ....       0.068 sec  (  0.3%)
SOSCF solution              ....       0.289 sec  (  1.1%)
Finished LeanSCF after  25.6 sec

Maximum memory used throughout the entire LEANSCF-calculation: 44.9 MB


-------------------------------------------------------------------------------
                          DFT DISPERSION CORRECTION                            
                                                                               
                              DFTD3 V3.1  Rev 1                                
                          USING Becke-Johnson damping                          
-------------------------------------------------------------------------------
The B3LYP functional is recognized
Active option DFTDOPT                   ...         4   

molecular C6(AA) [au] = 23112.325128 


            DFT-D V3
 parameters
 s6 scaling factor         :     1.0000 
 a1 scaling factor         :     0.3981 
 s8 scaling factor         :     1.9889 
 a2 scaling factor         :     4.4211 
 ad hoc parameters k1-k3   :    16.0000     1.3333    -4.0000 

 Edisp/kcal,au: -63.875560748417  -0.101792174581 
 E6   /kcal   : -29.258239353 
 E8   /kcal   : -34.617321395 
 % E8         :  54.194939331 

-------------------------   ----------------
Dispersion correction           -0.101792175
-------------------------   ----------------


-------------------------   --------------------
FINAL SINGLE POINT ENERGY     -1153.086389595041
-------------------------   --------------------

                                *** OPTIMIZATION RUN DONE ***



           ************************************************************
           *        Program running with 6 parallel MPI-processes     *
           *              working on a common directory               *
           ************************************************************

------------------------------------------------------------------------------
                              ORCA PROPERTY CALCULATIONS
------------------------------------------------------------------------------

GBWName                                 ... data/geom_opt/13956/13956.gbw
Number of atoms                         ...     43
Number of basis functions               ...    417
Max core memory                         ...   1024 MB

Electric properties:
Dipole moment                           ... YES
Quadrupole moment                       ...  NO
Static polarizability (Dipole/Dipole)   ...  NO
Static polarizability (Dipole/Quad.)    ...  NO
Static polarizability (Quad./Quad.)     ...  NO
Static polarizability (Velocity)        ...  NO

Atomic electric properties:
Dipole moment                           ...  NO
Quadrupole moment                       ...  NO
Static polarizability                   ...  NO

Choice of electric origin               ... Center of mass
Position of electric origin             ...     0.033670    -0.045175    -0.553867

General magnetic properties:
Magnetizability                         ...  NO

EPR properties:
g-Tensor (aka g-matrix)                 ...  NO
Zero-Field splitting spin-orbit         ...  NO
Zero-field splitting spin-spin          ...  NO
Hyperfine couplings                     ...  NO (   0 nuclei)
Quadrupole couplings                    ...  NO (   0 nuclei)
Contact density                         ...  NO (   0 nuclei)

NMR properties:
Chemical shifts                         ...  NO (   0 nuclei)
Spin-rotation constants                 ...  NO (   0 nuclei)
Spin-spin couplings                     ...  NO (   0 nuclei,    0 pairs)

Choice of magnetic origin               ... GIAO
Position of magnetic origin             ...     0.000000     0.000000     0.000000

Properties with geometric perturbations:
SCF Hessian                             ...  NO
IR spectrum                             ...  NO
VCD spectrum                            ...  NO
X-ray spectroscopy properties:
SCF XES/XAS/RIXS spectra                ...  NO


-------------
DIPOLE MOMENT
-------------

Method             : SCF
Type of density    : Electron Density
Multiplicity       :   1
Irrep              :   0
Energy             : -1152.9845974204602044 Eh
Relativity type    : 
Basis              : AO
                                X                 Y                 Z
Electronic contribution:      0.679153035      -0.912724939     -11.189699125
Nuclear contribution   :     -0.721305341       0.967112792      11.862049447
                        -----------------------------------------
Total Dipole Moment    :     -0.042152306       0.054387853       0.672350322
                        -----------------------------------------
Magnitude (a.u.)       :      0.675862272
Magnitude (Debye)      :      1.717905371



--------------------
Rotational spectrum 
--------------------
 
Rotational constants in cm-1:             0.007706             0.007700             0.004462 
Rotational constants in MHz :           231.027560           230.829370           133.753978 

Dipole components along the rotational axes: 
x,y,z [a.u.] :     0.001759     0.000587     0.675860 
x,y,z [Debye]:     0.004471     0.001493     1.717899 

 

Dipole moment calculation done in   0.0 sec 

Maximum memory used throughout the entire PROP-calculation: 23.0 MB

--------------------------------
SUGGESTED CITATIONS FOR THIS RUN
--------------------------------

Below you find a list of papers that are relevant to this ORCA run
We neither can nor want to force you to cite these papers, but we appreciate if you do
You receive ORCA, which is the product of decades of hard work by many enthusiastic individuals, for free
The only thing we kindly ask in return is that you cite our papers,
We deeply appreciate it, if you show your appreciation for ORCA by not just citing the generic ORCA reference.

Please note that relegating all ORCA citations to the supporting information does *not* help us.
SI sections are not indexed - citations you put there will not count into any citation statistics
But we need these citations in order to attract the funding resources that allow us to do what we are doing

Therefore, if you are a happy ORCA user, please consider citing a few of the papers listed below in the main body of your paper

In addition to the list printed below, the program has created the file data/geom_opt/13956/13956.bibtex that contains the list in bibtex format
You can import this file easily into all common literature databanks and citation aid programs


List of essential papers. We consider these as the minimum necessary citations

  1. Neese,F.
     Software update: the ORCA program system, version 5.0
     WIRES Comput. Molec. Sci., 2022 12(1)e1606
     doi.org/10.1002/wcms.1606

List of papers to cite with high priority. The work reported in these papers was absolutely
necessary for this run to complete.
Our perspective: the developers of density functionals and basis sets usually get cited in chemistry papers
Good! But without the algorithms to do something with them, the functionals or basis sets would not do anything.
Hence, in our opinion, the algorithm design and method developments papers are equally worthy of getting cited

  1. Neese,F.
     An improvement of the resolution of the identity approximation for the formation of the Coulomb matrix
     J. Comp. Chem., 2003 24(14)1740-1747
     doi.org/10.1002/jcc.10318
  2. Neese,F.
     The SHARK Integral Generation and Digestion System
     J. Comp. Chem., 2022  1-16
     doi.org/10.1002/jcc.26942
  3. Grimme,S.; Antony,J.; Ehrlich,S.; Krieg,H.
     A consistent and accurate ab initio parametrization of density functional dispersion correction (DFT-D) for the 94 elements H-Pu
     J. Chem. Phys., 2010 132 154104-XXXX
     doi.org/10.1063/1.3382344
  4. Grimme,S.; Ehrlich,S.; Goerigk,L.
     Effect of the damping function in dispersion corrected density functional theory
     J. Comput. Chem., 2011 32(7)1456-1465
     doi.org/10.1002/jcc.21759

List of suggested additional citations. These are papers that are important in the 'surrounding' of 
of this run, or papers that preceded the highly important papers. If you like your results we are grateful for a citation.

  1. Neese,F.
     The ORCA program system
     WIRES Comput. Molec. Sci., 2012 2(1)73-78
     doi.org/10.1002/wcms.81
  2. Neese,F.
     Software update: the ORCA program system, version 4.0
     WIRES Comput. Molec. Sci., 2018 8(1)1-6
     doi.org/10.1002/wcms.1327
  3. Neese,F.; Wennmohs,F.; Becker,U.; Riplinger,C.
     The ORCA quantum chemistry program package
     J. Chem. Phys., 2020 152 Art. No. L224108
     doi.org/10.1063/5.0004608

List of optional additional citations

  1. Neese,F.
     Approximate second-order SCF convergence for spin unrestricted wavefunctions
     Chem. Phys. Lett., 2000 325(1-3)93-98
     doi.org/10.1016/s0009-2614(00)00662-x

Timings for individual modules:

Sum of individual times          ...      440.451 sec (=   7.341 min)
Startup calculation              ...       11.443 sec (=   0.191 min)   2.6 %
SCF iterations                   ...      294.652 sec (=   4.911 min)  66.9 %
Property calculations            ...        0.206 sec (=   0.003 min)   0.0 %
SCF Gradient evaluation          ...      134.013 sec (=   2.234 min)  30.4 %
Geometry relaxation              ...        0.137 sec (=   0.002 min)   0.0 %
                             ****ORCA TERMINATED NORMALLY****
TOTAL RUN TIME: 0 days 0 hours 7 minutes 21 seconds 814 msec
