
                                 *****************
                                 * O   R   C   A *
                                 *****************

                                            #,                                       
                                            ###                                      
                                            ####                                     
                                            #####                                    
                                            ######                                   
                                           ########,                                 
                                     ,,################,,,,,                         
                               ,,#################################,,                 
                          ,,##########################################,,             
                       ,#########################################, ''#####,          
                    ,#############################################,,   '####,        
                  ,##################################################,,,,####,       
                ,###########''''           ''''###############################       
              ,#####''   ,,,,##########,,,,          '''####'''          '####       
            ,##' ,,,,###########################,,,                        '##       
           ' ,,###''''                  '''############,,,                           
         ,,##''                                '''############,,,,        ,,,,,,###''
      ,#''                                            '''#######################'''  
     '                                                          ''''####''''         
             ,#######,   #######,   ,#######,      ##                                
            ,#'     '#,  ##    ##  ,#'     '#,    #''#        ,####,   ,####,        
            ##       ##  ##   ,#'  ##            #'  '#       #'       #'  '#        
            ##       ##  #######   ##           ,######,      #####,   #    #        
            '#,     ,#'  ##    ##  '#,     ,#' ,#      #,     #,   #   #,  ,#        
             '#######'   ##     ##  '#######'  #'      '#     '####' # '####'        



                #########################################################
                #                        -***-                          #
                #          Department of theory and spectroscopy        #
                #                                                       #
                #                      Frank Neese                      #
                #                                                       #
                #     Directorship, Architecture, Infrastructure        #
                #                    SHARK, DRIVERS                     #
                #        Core code/Algorithms in most modules           #
                #                                                       #
                #        Max Planck Institute fuer Kohlenforschung      #
                #                Kaiser Wilhelm Platz 1                 #
                #                 D-45470 Muelheim/Ruhr                 #
                #                      Germany                          #
                #                                                       #
                #                  All rights reserved                  #
                #                        -***-                          #
                #########################################################


                         Program Version 6.0.0  -   RELEASE   -


 With contributions from (in alphabetic order):
   Daniel Aravena         : Magnetic Suceptibility
   Michael Atanasov       : Ab Initio Ligand Field Theory (pilot matlab implementation)
   Alexander A. Auer      : GIAO ZORA, VPT2 properties, NMR spectrum
   Ute Becker             : All parallelization in ORCA, NUMFREQ, NUMCALC
   Giovanni Bistoni       : ED, misc. LED, open-shell LED, HFLD
   Martin Brehm           : Molecular dynamics
   Dmytro Bykov           : pre 5.0 version of the SCF Hessian
   Marcos Casanova-Páez   : Triplet and SCS-CIS(D). UHF-(DLPNO)-IP/EA/STEOM-CCSD. UHF-CVS-IP/STEOM-CCSD
   Vijay G. Chilkuri      : MRCI spin determinant printing, contributions to CSF-ICE
   Pauline Colinet        : FMM embedding
   Dipayan Datta          : RHF DLPNO-CCSD density
   Achintya Kumar Dutta   : EOM-CC, STEOM-CC
   Nicolas Foglia         : Exact transition moments, OPA infrastructure, MCD improvements
   Dmitry Ganyushin       : Spin-Orbit,Spin-Spin,Magnetic field MRCI
   Miquel Garcia          : C-PCM and meta-GGA Hessian, CCSD/C-PCM, Gaussian charge scheme
   Tiago L. C. Gouveia    : GS-ROHF, GS-ROCIS
   Yang Guo               : DLPNO-NEVPT2, F12-NEVPT2, CIM, IAO-localization
   Andreas Hansen         : Spin unrestricted coupled pair/coupled cluster methods
   Ingolf Harden          : AUTO-CI MPn and infrastructure 
   Benjamin Helmich-Paris : MC-RPA, TRAH-(SCF,CASSCF), AVAS, COSX integrals, SCF dyn. polar.
   Lee Huntington         : MR-EOM, pCC
   Robert Izsak           : Overlap fitted RIJCOSX, COSX-SCS-MP3, EOM
   Riya Kayal             : Wick's Theorem for AUTO-CI, AUTO-CI UHF-CCSDT
   Emily Kempfer          : AUTO-CI, RHF CISDT and CCSDT
   Christian Kollmar      : KDIIS, OOCD, Brueckner-CCSD(T), CCSD density, CASPT2, CASPT2-K, improved NEVPT2
   Axel Koslowski         : Symmetry handling
   Simone Kossmann        : Meta GGA functionals, TD-DFT gradient, OOMP2, (MP2 Hessian; deprecated post 5.0)
   Lucas Lang             : DCDCAS
   Marvin Lechner         : AUTO-CI (C++ implementation), FIC-MRCC
   Spencer Leger          : CASSCF response
   Dagmar Lenk            : GEPOL surface, SMD, ORCA-2-JSON
   Dimitrios Liakos       : Extrapolation schemes; Compound Job, initial MDCI parallelization
   Dimitrios Manganas     : Further ROCIS development; embedding schemes. LFT, Crystal Embedding
   Dimitrios Pantazis     : SARC Basis sets
   Anastasios Papadopoulos: AUTO-CI, single reference methods and gradients
   Taras Petrenko         : pre 6.0 DFT Hessian and TD-DFT gradient, (ASA, deprecated), ECA, 1-Electron XAS/XES, NRVS
   Peter Pinski           : DLPNO-MP2, DLPNO-MP2 Gradient
   Christoph Reimann      : Effective Core Potentials
   Marius Retegan         : Local ZFS, SOC
   Christoph Riplinger    : Optimizer, TS searches, QM/MM, DLPNO-CCSD(T), (RO)-DLPNO pert. Triples
   Michael Roemelt        : Original ROCIS implementation
   Masaaki Saitow         : Open-shell DLPNO-CCSD energy and density
   Barbara Sandhoefer     : DKH picture change effects
   Kantharuban Sivalingam : CASSCF convergence/infrastructure, NEVPT2 and variants, FIC-MRCI
   Bernardo de Souza      : ESD, SOC TD-DFT
   Georgi Stoychev        : AutoAux, RI-MP2 NMR, DLPNO-MP2 response, X2C
   Van Anh Tran           : RI-MP2 g-tensors
   Willem Van den Heuvel  : Paramagnetic NMR
   Zikuan Wang            : NOTCH, Electric field optimization 
   Frank Wennmohs         : Technical directorship and infrastructure
   Hang Xu                : AUTO-CI-Response properties 


 We gratefully acknowledge several colleagues who have allowed us to
 interface, adapt or use parts of their codes:
   Stefan Grimme, W. Hujo, H. Kruse, P. Pracht,  : VdW corrections, initial TS optimization,
                  C. Bannwarth, S. Ehlert,         DFT functionals, gCP, sTDA/sTD-DF
                  L. Wittmann, M. Mueller
   Ed Valeev, F. Pavosevic, A. Kumar             : LibInt (2-el integral package), F12 methods
   Garnet Chan, S. Sharma, J. Yang, R. Olivares  : DMRG
   Ulf Ekstrom                                   : XCFun DFT Library
   Mihaly Kallay                                 : mrcc  (arbitrary order and MRCC methods)
   Frank Weinhold                                : gennbo (NPA and NBO analysis)
   Simon Mueller                                 : openCOSMO-RS
   Christopher J. Cramer and Donald G. Truhlar   : smd solvation model
   Lars Goerigk                                  : TD-DFT with DH, B97 family of functionals
   V. Asgeirsson, H. Jonsson                     : NEB implementation
   FAccTs GmbH                                   : IRC, NEB, NEB-TS, DLPNO-Multilevel, CI-OPT
                                                   MM, QMMM, 2- and 3-layer-ONIOM, Crystal-QMMM,
                                                   LR-CPCM, SF, NACMEs, symmetry and pop. for TD-DFT,
                                                   nearIR, NL-DFT gradient (VV10), updates on ESD,
                                                   ML-optimized integration grids, MBIS, APM,
                                                   GOAT, DOCKER, SOLVATOR, interface openCOSMO-RS
   S Lehtola, MJT Oliveira, MAL Marques          : LibXC Library
   Liviu Ungur et al                             : ANISO software


 Your calculation uses the libint2 library for the computation of 2-el integrals
 For citations please refer to: http://libint.valeyev.net

 Your ORCA version has been built with support for libXC version: 6.2.2
 For citations please refer to: https://libxc.gitlab.io

 This ORCA versions uses:
   CBLAS   interface :  Fast vector & matrix operations
   LAPACKE interface :  Fast linear algebra routines
   Shared memory     :  Shared parallel matrices


Your calculation utilizes the atom-pairwise dispersion correction
with the zero-damping scheme (D30)


XCFun DFT library Copyright 2009-2010 Ulf Ekstrom and contributors.
See http://admol.org/xcfun for more information.
This is free software; see the source code for copying conditions.
There is ABSOLUTELY NO WARRANTY; not even for MERCHANTABILITY or FITNESS FOR A PARTICULAR PURPOSE.
For details see the documentation.
Scientific users of this library should cite U. Ekstrom, L. Visscher, R. Bast, A. J. Thorvaldsen and K. Ruud;
J.Chem.Theor.Comp. 2010, DOI: 10.1021/ct100117s
XCFun Version 0.99 

Warning: RI is on but no J-basis has been assigned. Assigning Def2/J (nothing to worry about!)
================================================================================

----- Orbital basis set information -----
Your calculation utilizes the basis: def2-TZVP
   F. Weigend and R. Ahlrichs, Phys. Chem. Chem. Phys. 7, 3297 (2005).

----- AuxJ basis set information -----
Your calculation utilizes the auxiliary basis: def2/J
   F. Weigend, Phys. Chem. Chem. Phys. 8, 1057 (2006).

================================================================================
                                        WARNINGS
                       Please study these warnings very carefully!
================================================================================

WARNING: Functional chosen is sensitive to the integration grid.
         DEFGRID3 seems to be a minimum grid for robust results!

================================================================================
                                       INPUT FILE
================================================================================
NAME = data/single_point_PO_M06-2x/75806/75806.inp
|  1> ! RIJCOSX M062X def2-TZVP D3ZERO NormalSCF
|  2> %pal
|  3> nprocs 6
|  4> end
|  5> 
|  6> * xyz 0 1
|  7>   C           4.50843055542300     -0.75438364063681     -0.23039686077855
|  8>   C           4.03707222851435     -1.03656034467781      1.20506779298565
|  9>   C           2.65639826040114     -0.42005320221175      1.47465270738677
| 10>   C           1.62597159032832     -0.90298777972953      0.43497666215891
| 11>   C           2.09146080316221     -0.61079337116063     -1.00153765830901
| 12>   C           3.47585669625513     -1.22799947457012     -1.26550963741826
| 13>   P          -0.06265202520370     -0.28597354134364      0.89173096830063
| 14>   O          -0.37980270580075     -0.57868867316680      2.35542242654384
| 15>   C          -0.06467457433963      1.54379639288587      0.51496501398185
| 16>   C          -0.44542917130591      1.95041303293701     -0.92210380978961
| 17>   C          -0.32573484254333      3.47281153168007     -1.10890298079219
| 18>   C          -1.15978685926173      4.23714156671854     -0.06910236771109
| 19>   C          -0.79685463749267      3.81557787888612      1.36385643047909
| 20>   C          -0.92287177890019      2.29732206644265      1.55119761696270
| 21>   C          -1.26807247287952     -1.11107211604928     -0.25823100037532
| 22>   C          -1.08313163193604     -2.64255923686690     -0.20636380636592
| 23>   C          -2.16904684196292     -3.38195304661003     -1.00316146636552
| 24>   C          -3.57853226316635     -2.98452161297839     -0.54367798018939
| 25>   C          -3.77311762602793     -1.46475855433130     -0.63070106326400
| 26>   C          -2.69851572575890     -0.71480383886590      0.16984912493368
| 27>   H           4.66645225880504      0.34170413967695     -0.35234520407614
| 28>   H           5.49229573742889     -1.23356754775889     -0.41949667165956
| 29>   H           4.77682364054584     -0.65415526057500      1.93978956805023
| 30>   H           3.97902770085313     -2.13734723265195      1.36233102938584
| 31>   H           2.73870749740157      0.69014249417037      1.42507156521684
| 32>   H           2.28845596820949     -0.66392573637785      2.49130396217868
| 33>   H           1.53026021347961     -2.00617072496718      0.55843473464574
| 34>   H           1.35307373632428     -0.98613247802838     -1.74161503581777
| 35>   H           2.15665920625805      0.49031201370869     -1.14918356541695
| 36>   H           3.81447717380966     -0.98173744383518     -2.29433203927503
| 37>   H           3.39162614019238     -2.33737473878168     -1.21978647364307
| 38>   H           0.99632318011306      1.84476546472015      0.68333755092632
| 39>   H          -1.49546510319504      1.64368383652859     -1.12171670710374
| 40>   H           0.18262817894090      1.42355202394956     -1.66935914215767
| 41>   H          -0.63242832866096      3.75501705562318     -2.13856260473282
| 42>   H           0.74424148410918      3.76571337299915     -1.00930897959997
| 43>   H          -2.23933176954952      4.02739208944907     -0.24630233047315
| 44>   H          -1.02980651793027      5.33241838142788     -0.19958422677659
| 45>   H           0.25071955534676      4.12475072905919      1.58294592613774
| 46>   H          -1.43864150972332      4.34613720218491      2.09876188219312
| 47>   H          -0.63490268857678      1.97706320251439      2.57170990491683
| 48>   H          -1.98787642948262      1.99905895815847      1.42970058404975
| 49>   H          -1.07635567390107     -0.75283458441748     -1.29458268370436
| 50>   H          -0.08086472911825     -2.92399288966275     -0.59140973671321
| 51>   H          -1.11616331904543     -2.95837957176499      0.86007446947952
| 52>   H          -2.02203513854015     -4.47903689817842     -0.91109547834818
| 53>   H          -2.05571671774036     -3.14027916162092     -2.08471959954920
| 54>   H          -4.34747407680735     -3.51229780744368     -1.14669382649852
| 55>   H          -3.72435675410068     -3.31088649413680      0.51072061174476
| 56>   H          -4.78230805968923     -1.17832758935052     -0.26611543345739
| 57>   H          -3.72381806184648     -1.14987054647591     -1.69812868888969
| 58>   H          -2.84147689247953      0.38070776805815      0.06365081373233
| 59>   H          -2.79972087893541     -0.93605706255247      1.25447471286104
| 60> **                         ****END OF INPUT****
================================================================================

                       ****************************
                       * Single Point Calculation *
                       ****************************

---------------------------------
CARTESIAN COORDINATES (ANGSTROEM)
---------------------------------
  C      4.508431   -0.754384   -0.230397
  C      4.037072   -1.036560    1.205068
  C      2.656398   -0.420053    1.474653
  C      1.625972   -0.902988    0.434977
  C      2.091461   -0.610793   -1.001538
  C      3.475857   -1.227999   -1.265510
  P     -0.062652   -0.285974    0.891731
  O     -0.379803   -0.578689    2.355422
  C     -0.064675    1.543796    0.514965
  C     -0.445429    1.950413   -0.922104
  C     -0.325735    3.472812   -1.108903
  C     -1.159787    4.237142   -0.069102
  C     -0.796855    3.815578    1.363856
  C     -0.922872    2.297322    1.551198
  C     -1.268072   -1.111072   -0.258231
  C     -1.083132   -2.642559   -0.206364
  C     -2.169047   -3.381953   -1.003161
  C     -3.578532   -2.984522   -0.543678
  C     -3.773118   -1.464759   -0.630701
  C     -2.698516   -0.714804    0.169849
  H      4.666452    0.341704   -0.352345
  H      5.492296   -1.233568   -0.419497
  H      4.776824   -0.654155    1.939790
  H      3.979028   -2.137347    1.362331
  H      2.738707    0.690142    1.425072
  H      2.288456   -0.663926    2.491304
  H      1.530260   -2.006171    0.558435
  H      1.353074   -0.986132   -1.741615
  H      2.156659    0.490312   -1.149184
  H      3.814477   -0.981737   -2.294332
  H      3.391626   -2.337375   -1.219786
  H      0.996323    1.844765    0.683338
  H     -1.495465    1.643684   -1.121717
  H      0.182628    1.423552   -1.669359
  H     -0.632428    3.755017   -2.138563
  H      0.744241    3.765713   -1.009309
  H     -2.239332    4.027392   -0.246302
  H     -1.029807    5.332418   -0.199584
  H      0.250720    4.124751    1.582946
  H     -1.438642    4.346137    2.098762
  H     -0.634903    1.977063    2.571710
  H     -1.987876    1.999059    1.429701
  H     -1.076356   -0.752835   -1.294583
  H     -0.080865   -2.923993   -0.591410
  H     -1.116163   -2.958380    0.860074
  H     -2.022035   -4.479037   -0.911095
  H     -2.055717   -3.140279   -2.084720
  H     -4.347474   -3.512298   -1.146694
  H     -3.724357   -3.310886    0.510721
  H     -4.782308   -1.178328   -0.266115
  H     -3.723818   -1.149871   -1.698129
  H     -2.841477    0.380708    0.063651
  H     -2.799721   -0.936057    1.254475

----------------------------
CARTESIAN COORDINATES (A.U.)
----------------------------
  NO LB      ZA    FRAG     MASS         X           Y           Z
   0 C     6.0000    0    12.011    8.519699   -1.425578   -0.435387
   1 C     6.0000    0    12.011    7.628961   -1.958815    2.277248
   2 C     6.0000    0    12.011    5.019865   -0.793786    2.786690
   3 C     6.0000    0    12.011    3.072641   -1.706400    0.821987
   4 C     6.0000    0    12.011    3.952288   -1.154232   -1.892632
   5 C     6.0000    0    12.011    6.568417   -2.320583   -2.391467
   6 P    15.0000    0    30.974   -0.118395   -0.540412    1.685127
   7 O     8.0000    0    15.999   -0.717723   -1.093563    4.451103
   8 C     6.0000    0    12.011   -0.122217    2.917352    0.973143
   9 C     6.0000    0    12.011   -0.841739    3.685746   -1.742524
  10 C     6.0000    0    12.011   -0.615550    6.562663   -2.095523
  11 C     6.0000    0    12.011   -2.191680    8.007037   -0.130585
  12 C     6.0000    0    12.011   -1.505837    7.210397    2.577315
  13 C     6.0000    0    12.011   -1.743975    4.341310    2.931339
  14 C     6.0000    0    12.011   -2.396310   -2.099622   -0.487986
  15 C     6.0000    0    12.011   -2.046822   -4.993713   -0.389971
  16 C     6.0000    0    12.011   -4.098905   -6.390965   -1.895700
  17 C     6.0000    0    12.011   -6.762446   -5.639928   -1.027402
  18 C     6.0000    0    12.011   -7.130159   -2.767993   -1.191852
  19 C     6.0000    0    12.011   -5.099456   -1.350783    0.320968
  20 H     1.0000    0     1.008    8.818317    0.645727   -0.665836
  21 H     1.0000    0     1.008   10.378935   -2.331105   -0.792734
  22 H     1.0000    0     1.008    9.026888   -1.236174    3.665671
  23 H     1.0000    0     1.008    7.519273   -4.039001    2.574433
  24 H     1.0000    0     1.008    5.175407    1.304180    2.692995
  25 H     1.0000    0     1.008    4.324555   -1.254638    4.707882
  26 H     1.0000    0     1.008    2.891773   -3.791113    1.055289
  27 H     1.0000    0     1.008    2.556939   -1.863520   -3.291175
  28 H     1.0000    0     1.008    4.075495    0.926555   -2.171642
  29 H     1.0000    0     1.008    7.208317   -1.855215   -4.335659
  30 H     1.0000    0     1.008    6.409245   -4.416998   -2.305062
  31 H     1.0000    0     1.008    1.882778    3.486102    1.291321
  32 H     1.0000    0     1.008   -2.826019    3.106112   -2.119737
  33 H     1.0000    0     1.008    0.345117    2.690123   -3.154632
  34 H     1.0000    0     1.008   -1.195116    7.095954   -4.041298
  35 H     1.0000    0     1.008    1.406413    7.116167   -1.907318
  36 H     1.0000    0     1.008   -4.231724    7.610668   -0.465444
  37 H     1.0000    0     1.008   -1.946052   10.076810   -0.377160
  38 H     1.0000    0     1.008    0.473791    7.794649    2.991334
  39 H     1.0000    0     1.008   -2.718638    8.213009    3.966085
  40 H     1.0000    0     1.008   -1.199792    3.736108    4.859827
  41 H     1.0000    0     1.008   -3.756542    3.777674    2.701743
  42 H     1.0000    0     1.008   -2.034017   -1.422651   -2.446407
  43 H     1.0000    0     1.008   -0.152812   -5.525546   -1.117602
  44 H     1.0000    0     1.008   -2.109243   -5.590527    1.625305
  45 H     1.0000    0     1.008   -3.821093   -8.464153   -1.721721
  46 H     1.0000    0     1.008   -3.884742   -5.934268   -3.939549
  47 H     1.0000    0     1.008   -8.215535   -6.637281   -2.166937
  48 H     1.0000    0     1.008   -7.038014   -6.256669    0.965122
  49 H     1.0000    0     1.008   -9.037253   -2.226716   -0.502885
  50 H     1.0000    0     1.008   -7.036996   -2.172940   -3.208998
  51 H     1.0000    0     1.008   -5.369613    0.719433    0.120283
  52 H     1.0000    0     1.008   -5.290706   -1.768891    2.370614

--------------------------------
INTERNAL COORDINATES (ANGSTROEM)
--------------------------------
 C      0   0   0     0.000000000000     0.00000000     0.00000000
 C      1   0   0     1.536997442046     0.00000000     0.00000000
 C      2   1   0     1.535909401303   111.46380991     0.00000000
 C      3   2   1     1.541405594767   110.90277132    55.05673504
 C      4   3   2     1.538060848137   111.60014397   304.42843250
 C      1   2   3     1.536873187076   111.49410583   304.95506783
 P      4   3   2     1.854934171738   109.77076718   174.05103511
 O      7   4   3     1.525994556850   111.19705952   310.53584727
 C      7   4   3     1.868158100175   106.08861879    73.03361953
 C      9   7   4     1.541258563426   116.53290614    87.28373196
 C     10   9   7     1.538479070901   110.79674702   183.28671302
 C     11  10   9     1.536563856147   111.58211399   304.80878276
 C     12  11  10     1.537142367449   111.48507882    54.62527236
 C     13  12  11     1.534952035765   111.44834363   305.16413014
 C      7   4   3     1.859096189835   106.87685379   188.11076506
 C     15   7   4     1.543485057166   109.99210947    53.87924348
 C     16  15   7     1.536490013061   112.04733612   172.85866897
 C     17  16  15     1.534837441260   111.66465300   305.11382154
 C     18  17  16     1.534638796218   110.84827006    55.74021688
 C     19  18  17     1.535604741831   111.42917672   304.29288454
 H      1   2   3     1.114114302631   109.04699754    65.29963023
 H      1   2   3     1.110570417256   110.57886798   181.80364094
 H      2   1   3     1.110532253788   110.51109324   237.16184552
 H      2   1   3     1.113477734600   109.23175035   120.47865837
 H      3   2   1     1.114346258763   109.00756875   294.59997422
 H      3   2   1     1.108347922439   111.78352152   177.09898946
 H      4   3   2     1.114188123247   107.03169859    63.01783602
 H      5   4   3     1.110769746760   110.91027207   178.56879397
 H      5   4   3     1.112871607258   109.24509860   295.72450187
 H      6   1   2     1.110758457165   110.52959090   177.84528353
 H      6   1   2     1.113507463435   109.28040237   294.58804967
 H      9   7   4     1.115637901988   103.45977755   329.28544984
 H     10   9   7     1.111981819528   109.14031522    63.32712509
 H     10   9   7     1.109247082368   111.28070593   306.17606135
 H     11  10   9     1.110810421874   110.02715712   181.71741729
 H     11  10   9     1.113804198824   108.91152094    65.52538923
 H     12  11  10     1.113917359298   108.94980591   294.29580919
 H     12  11  10     1.110653728899   110.33545842   177.97169469
 H     13  12  11     1.114001682178   109.22353474    65.82011525
 H     13  12  11     1.110616769127   110.45105879   182.39021091
 H     14  13  12     1.107672003245   112.15327674   178.30019384
 H     14  13  12     1.112635302573   109.29363158   295.27649322
 H     15   7   4     1.113155097738   108.74641862   294.25749021
 H     16  15   7     1.109956852264   110.37240572   295.36521347
 H     16  15   7     1.112710282363   108.07568838    51.69890592
 H     17  16  15     1.110712187952   109.80311442   182.00934882
 H     17  16  15     1.114009864946   109.09774968    65.83807975
 H     18  17  16     1.110606741880   110.50063938   178.73444744
 H     18  17  16     1.113344155454   109.14109021   295.54067713
 H     19  18  17     1.110599257408   110.61025809   181.85059075
 H     19  18  17     1.113995799125   109.18682733    65.12477069
 H     20  19  18     1.109892633275   110.00058882   178.14957435
 H     20  19  18     1.111579119095   110.35052785   294.93549360

---------------------------
INTERNAL COORDINATES (A.U.)
---------------------------
 C      0   0   0     0.000000000000     0.00000000     0.00000000
 C      1   0   0     2.904504234004     0.00000000     0.00000000
 C      2   1   0     2.902448134977   111.46380991     0.00000000
 C      3   2   1     2.912834435404   110.90277132    55.05673504
 C      4   3   2     2.906513780286   111.60014397   304.42843250
 C      1   2   3     2.904269426140   111.49410583   304.95506783
 P      4   3   2     3.505317581037   109.77076718   174.05103511
 O      7   4   3     2.883711794301   111.19705952   310.53584727
 C      7   4   3     3.530307184197   106.08861879    73.03361953
 C      9   7   4     2.912556586436   116.53290614    87.28373196
 C     10   9   7     2.907304106772   110.79674702   183.28671302
 C     11  10   9     2.903684875400   111.58211399   304.80878276
 C     12  11  10     2.904778103327   111.48507882    54.62527236
 C     13  12  11     2.900638976301   111.44834363   305.16413014
 C      7   4   3     3.513182655404   106.87685379   188.11076506
 C     15   7   4     2.916764049843   109.99210947    53.87924348
 C     16  15   7     2.903545332190   112.04733612   172.85866897
 C     17  16  15     2.900422424069   111.66465300   305.11382154
 C     18  17  16     2.900047039342   110.84827006    55.74021688
 C     19  18  17     2.901872412011   111.42917672   304.29288454
 H      1   2   3     2.105370913856   109.04699754    65.29963023
 H      1   2   3     2.098673941048   110.57886798   181.80364094
 H      2   1   3     2.098601822546   110.51109324   237.16184552
 H      2   1   3     2.104167974613   109.23175035   120.47865837
 H      3   2   1     2.105809247422   109.00756875   294.59997422
 H      3   2   1     2.094474034509   111.78352152   177.09898946
 H      4   3   2     2.105510414604   107.03169859    63.01783602
 H      5   4   3     2.099050619222   110.91027207   178.56879397
 H      5   4   3     2.103022559934   109.24509860   295.72450187
 H      6   1   2     2.099029284979   110.52959090   177.84528353
 H      6   1   2     2.104224153969   109.28040237   294.58804967
 H      9   7   4     2.108250099379   103.45977755   329.28544984
 H     10   9   7     2.101341104808   109.14031522    63.32712509
 H     10   9   7     2.096173200527   111.28070593   306.17606135
 H     11  10   9     2.099127484048   110.02715712   181.71741729
 H     11  10   9     2.104784902589   108.91152094    65.52538923
 H     12  11  10     2.104998744894   108.94980591   294.29580919
 H     12  11  10     2.098831377238   110.33545842   177.97169469
 H     13  12  11     2.105158092044   109.22353474    65.82011525
 H     13  12  11     2.098761533390   110.45105879   182.39021091
 H     14  13  12     2.093196732344   112.15327674   178.30019384
 H     14  13  12     2.102576008796   109.29363158   295.27649322
 H     15   7   4     2.103558279302   108.74641862   294.25749021
 H     16  15   7     2.097514471248   110.37240572   295.36521347
 H     16  15   7     2.102717700064   108.07568838    51.69890592
 H     17  16  15     2.098941848838   109.80311442   182.00934882
 H     17  16  15     2.105173555235   109.09774968    65.83807975
 H     18  17  16     2.098742584640   110.50063938   178.73444744
 H     18  17  16     2.103915546609   109.14109021   295.54067713
 H     19  18  17     2.098728441037   110.61025809   181.85059075
 H     19  18  17     2.105146974685   109.18682733    65.12477069
 H     20  19  18     2.097393114946   110.00058882   178.14957435
 H     20  19  18     2.100580111275   110.35052785   294.93549360

---------------------
BASIS SET INFORMATION
---------------------
There are 4 groups of distinct atoms

 Group   1 Type C   : 11s6p2d1f contracted to 5s3p2d1f pattern {62111/411/11/1}
 Group   2 Type P   : 14s9p3d1f contracted to 5s5p2d1f pattern {73211/51111/21/1}
 Group   3 Type O   : 11s6p2d1f contracted to 5s3p2d1f pattern {62111/411/11/1}
 Group   4 Type H   : 5s1p contracted to 3s1p pattern {311/1}

Atom   0C    basis set group =>   1
Atom   1C    basis set group =>   1
Atom   2C    basis set group =>   1
Atom   3C    basis set group =>   1
Atom   4C    basis set group =>   1
Atom   5C    basis set group =>   1
Atom   6P    basis set group =>   2
Atom   7O    basis set group =>   3
Atom   8C    basis set group =>   1
Atom   9C    basis set group =>   1
Atom  10C    basis set group =>   1
Atom  11C    basis set group =>   1
Atom  12C    basis set group =>   1
Atom  13C    basis set group =>   1
Atom  14C    basis set group =>   1
Atom  15C    basis set group =>   1
Atom  16C    basis set group =>   1
Atom  17C    basis set group =>   1
Atom  18C    basis set group =>   1
Atom  19C    basis set group =>   1
Atom  20H    basis set group =>   4
Atom  21H    basis set group =>   4
Atom  22H    basis set group =>   4
Atom  23H    basis set group =>   4
Atom  24H    basis set group =>   4
Atom  25H    basis set group =>   4
Atom  26H    basis set group =>   4
Atom  27H    basis set group =>   4
Atom  28H    basis set group =>   4
Atom  29H    basis set group =>   4
Atom  30H    basis set group =>   4
Atom  31H    basis set group =>   4
Atom  32H    basis set group =>   4
Atom  33H    basis set group =>   4
Atom  34H    basis set group =>   4
Atom  35H    basis set group =>   4
Atom  36H    basis set group =>   4
Atom  37H    basis set group =>   4
Atom  38H    basis set group =>   4
Atom  39H    basis set group =>   4
Atom  40H    basis set group =>   4
Atom  41H    basis set group =>   4
Atom  42H    basis set group =>   4
Atom  43H    basis set group =>   4
Atom  44H    basis set group =>   4
Atom  45H    basis set group =>   4
Atom  46H    basis set group =>   4
Atom  47H    basis set group =>   4
Atom  48H    basis set group =>   4
Atom  49H    basis set group =>   4
Atom  50H    basis set group =>   4
Atom  51H    basis set group =>   4
Atom  52H    basis set group =>   4
---------------------------------
AUXILIARY/J BASIS SET INFORMATION
---------------------------------
There are 4 groups of distinct atoms

 Group   1 Type C   : 12s5p4d2f1g contracted to 6s4p3d1f1g pattern {711111/2111/211/2/1}
 Group   2 Type P   : 14s5p5d2f1g contracted to 8s4p3d1f1g pattern {71111111/2111/311/2/1}
 Group   3 Type O   : 12s5p4d2f1g contracted to 6s4p3d1f1g pattern {711111/2111/211/2/1}
 Group   4 Type H   : 5s2p1d contracted to 3s1p1d pattern {311/2/1}

Atom   0C    basis set group =>   1
Atom   1C    basis set group =>   1
Atom   2C    basis set group =>   1
Atom   3C    basis set group =>   1
Atom   4C    basis set group =>   1
Atom   5C    basis set group =>   1
Atom   6P    basis set group =>   2
Atom   7O    basis set group =>   3
Atom   8C    basis set group =>   1
Atom   9C    basis set group =>   1
Atom  10C    basis set group =>   1
Atom  11C    basis set group =>   1
Atom  12C    basis set group =>   1
Atom  13C    basis set group =>   1
Atom  14C    basis set group =>   1
Atom  15C    basis set group =>   1
Atom  16C    basis set group =>   1
Atom  17C    basis set group =>   1
Atom  18C    basis set group =>   1
Atom  19C    basis set group =>   1
Atom  20H    basis set group =>   4
Atom  21H    basis set group =>   4
Atom  22H    basis set group =>   4
Atom  23H    basis set group =>   4
Atom  24H    basis set group =>   4
Atom  25H    basis set group =>   4
Atom  26H    basis set group =>   4
Atom  27H    basis set group =>   4
Atom  28H    basis set group =>   4
Atom  29H    basis set group =>   4
Atom  30H    basis set group =>   4
Atom  31H    basis set group =>   4
Atom  32H    basis set group =>   4
Atom  33H    basis set group =>   4
Atom  34H    basis set group =>   4
Atom  35H    basis set group =>   4
Atom  36H    basis set group =>   4
Atom  37H    basis set group =>   4
Atom  38H    basis set group =>   4
Atom  39H    basis set group =>   4
Atom  40H    basis set group =>   4
Atom  41H    basis set group =>   4
Atom  42H    basis set group =>   4
Atom  43H    basis set group =>   4
Atom  44H    basis set group =>   4
Atom  45H    basis set group =>   4
Atom  46H    basis set group =>   4
Atom  47H    basis set group =>   4
Atom  48H    basis set group =>   4
Atom  49H    basis set group =>   4
Atom  50H    basis set group =>   4
Atom  51H    basis set group =>   4
Atom  52H    basis set group =>   4


           ************************************************************
           *        Program running with 6 parallel MPI-processes     *
           *              working on a common directory               *
           ************************************************************
------------------------------------------------------------------------------
                             ORCA STARTUP CALCULATIONS
                           -- RI-GTO INTEGRALS CHOSEN --
------------------------------------------------------------------------------
------------------------------------------------------------------------------
                   ___                                                        
                  /   \      - P O W E R E D   B Y -                         
                 /     \                                                     
                 |  |  |   _    _      __       _____    __    __             
                 |  |  |  | |  | |    /  \     |  _  \  |  |  /  |          
                  \  \/   | |  | |   /    \    | | | |  |  | /  /          
                 / \  \   | |__| |  /  /\  \   | |_| |  |  |/  /          
                |  |  |   |  __  | /  /__\  \  |    /   |      \           
                |  |  |   | |  | | |   __   |  |    \   |  |\   \          
                \     /   | |  | | |  |  |  |  | |\  \  |  | \   \       
                 \___/    |_|  |_| |__|  |__|  |_| \__\ |__|  \__/        
                                                                              
                      - O R C A' S   B I G   F R I E N D -                    
                                      &                                       
                       - I N T E G R A L  F E E D E R -                       
                                                                              
 v1 FN, 2020, v2 2021, v3 2022-2024                                           
------------------------------------------------------------------------------


----------------------
SHARK INTEGRAL PACKAGE
----------------------

Number of atoms                             ...     53
Number of basis functions                   ...    824
Number of shells                            ...    354
Maximum angular momentum                    ...      3
Integral batch strategy                     ... SHARK/LIBINT Hybrid
RI-J (if used) integral strategy            ... SPLIT-RIJ (Revised 2003 algorithm where possible)
Printlevel                                  ...      1
Contraction scheme used                     ... SEGMENTED contraction
Prescreening option                         ... SCHWARTZ
   Thresh                                   ... 1.000e-10
   Tcut                                     ... 1.000e-11
   Tpresel                                  ... 1.000e-11 
Coulomb Range Separation                    ... NOT USED
Exchange Range Separation                   ... NOT USED
Multipole approximations                    ... NOT USED
Finite Nucleus Model                        ... NOT USED
CABS basis                                  ... NOT available
Auxiliary Coulomb fitting basis             ... AVAILABLE
   # of basis functions in Aux-J            ...   1345
   # of shells in Aux-J                     ...    467
   Maximum angular momentum in Aux-J        ...      4
Auxiliary J/K fitting basis                 ... NOT available
Auxiliary Correlation fitting basis         ... NOT available
Auxiliary 'external' fitting basis          ... NOT available

Checking pre-screening integrals            ... done (  0.0 sec) Dimension = 354
Check shell pair data                       ... done (  0.0 sec)
Shell pair information
Shell pair cut-off parameter TPreSel        ...   1.0e-11
Total number of shell pairs                 ...     62835
Shell pairs after pre-screening             ...     45208
Total number of primitive shell pairs       ...    183868
Primitive shell pairs kept                  ...     89063
          la=0 lb=0:  14270 shell pairs
          la=1 lb=0:  13799 shell pairs
          la=1 lb=1:   3416 shell pairs
          la=2 lb=0:   5677 shell pairs
          la=2 lb=1:   2792 shell pairs
          la=2 lb=2:    611 shell pairs
          la=3 lb=0:   2682 shell pairs
          la=3 lb=1:   1297 shell pairs
          la=3 lb=2:    536 shell pairs
          la=3 lb=3:    128 shell pairs

Calculating one electron integrals          ... done (  0.1 sec)
Calculating RI/J V-Matrix + Cholesky decomp.... done (  0.1 sec)
Calculating Nuclear repulsion               ... done (  0.0 sec) ENN=   1916.251091484997 Eh

Diagonalization of the overlap matrix:
Smallest eigenvalue                        ... 6.745e-05
Time for diagonalization                   ...    0.139 sec
Threshold for overlap eigenvalues          ... 1.000e-07
Number of eigenvalues below threshold      ... 0
Time for construction of square roots      ...    0.065 sec
Total time needed                          ...    0.209 sec

-------------------
DFT GRID GENERATION
-------------------

General Integration Accuracy     IntAcc      ... 4.388
Radial Grid Type                 RadialGrid  ... OptM3 with GC (2021)
Angular Grid (max. ang.)         AngularGrid ... 4 (Lebedev-302)
Angular grid pruning method      GridPruning ... 4 (adaptive)
Weight generation scheme         WeightScheme... mBecke (2022)
Basis function cutoff            BFCut       ... 1.0000e-10
Integration weight cutoff        WCut        ... 1.0000e-14
Partially contracted basis set               ... off
Rotationally invariant grid construction     ... off
Angular grids for H and He will be reduced by one unit

Total number of grid points                  ...   223171
Total number of batches                      ...     3511
Average number of points per batch           ...       63
Average number of grid points per atom       ...     4211

--------------------
COSX GRID GENERATION
--------------------

GRIDX 1
-------
General Integration Accuracy     IntAcc      ... 3.816
Radial Grid Type                 RadialGrid  ... OptM3 with GC (2021)
Angular Grid (max. ang.)         AngularGrid ... 1 (Lebedev-50)
Angular grid pruning method      GridPruning ... 4 (adaptive)
Weight generation scheme         WeightScheme... mBecke (2022)
Basis function cutoff            BFCut       ... 1.0000e-10
Integration weight cutoff        WCut        ... 1.0000e-14
Partially contracted basis set               ... on
Rotationally invariant grid construction     ... off
Angular grids for H and He will be reduced by one unit

Total number of grid points                  ...    29326
Total number of batches                      ...      268
Average number of points per batch           ...      109
Average number of grid points per atom       ...      553
UseSFitting                                  ... on

GRIDX 2
-------
General Integration Accuracy     IntAcc      ... 4.020
Radial Grid Type                 RadialGrid  ... OptM3 with GC (2021)
Angular Grid (max. ang.)         AngularGrid ... 2 (Lebedev-110)
Angular grid pruning method      GridPruning ... 4 (adaptive)
Weight generation scheme         WeightScheme... mBecke (2022)
Basis function cutoff            BFCut       ... 1.0000e-10
Integration weight cutoff        WCut        ... 1.0000e-14
Partially contracted basis set               ... on
Rotationally invariant grid construction     ... off
Angular grids for H and He will be reduced by one unit

Total number of grid points                  ...    58400
Total number of batches                      ...      481
Average number of points per batch           ...      121
Average number of grid points per atom       ...     1102
UseSFitting                                  ... on

GRIDX 3
-------
General Integration Accuracy     IntAcc      ... 4.338
Radial Grid Type                 RadialGrid  ... OptM3 with GC (2021)
Angular Grid (max. ang.)         AngularGrid ... 3 (Lebedev-194)
Angular grid pruning method      GridPruning ... 4 (adaptive)
Weight generation scheme         WeightScheme... mBecke (2022)
Basis function cutoff            BFCut       ... 1.0000e-10
Integration weight cutoff        WCut        ... 1.0000e-14
Partially contracted basis set               ... on
Rotationally invariant grid construction     ... off
Angular grids for H and He will be reduced by one unit

Total number of grid points                  ...   126813
Total number of batches                      ...     1022
Average number of points per batch           ...      124
Average number of grid points per atom       ...     2393
UseSFitting                                  ... on
Initializing property integral containers    ... done (  0.0 sec)

SHARK setup successfully completed in   5.3 seconds

Maximum memory used throughout the entire STARTUP-calculation: 97.2 MB


           ************************************************************
           *        Program running with 6 parallel MPI-processes     *
           *              working on a common directory               *
           ************************************************************
-------------------------------------------------------------------------------
                                 ORCA GUESS
                   Start orbitals & Density for SCF / CASSCF
-------------------------------------------------------------------------------

------------
SCF SETTINGS
------------
Hamiltonian:
 Density Functional     Method          .... DFT(GTOs)
 Exchange Functional    Exchange        .... M062X
 Correlation Functional Correlation     .... M062X
 Gradients option       PostSCFGGA      .... off
 Hybrid DFT is turned on
   Fraction HF Exchange ScalHFX         ....  0.540000
   Scaling of DF-GGA-X  ScalDFX         ....  0.460000
   Scaling of DF-GGA-C  ScalDFC         ....  1.000000
   Scaling of DF-LDA-C  ScalLDAC        ....  1.000000
   Perturbative correction              ....  0.000000
 RI-approximation to the Coulomb term is turned on
   Number of AuxJ basis functions       .... 1345
   RIJ-COSX (HFX calculated with COS-X)).... on


General Settings:
 Integral files         IntName         .... data/single_point_PO_M06-2x/75806/75806
 Hartree-Fock type      HFTyp           .... RHF
 Total Charge           Charge          ....    0
 Multiplicity           Mult            ....    1
 Number of Electrons    NEL             ....  164
 Basis Dimension        Dim             ....  824
 Nuclear Repulsion      ENuc            ....   1916.2510914850 Eh

Convergence Acceleration:
 AO-DIIS                CNVDIIS         .... on
   Start iteration      DIISMaxIt       ....    12
   Startup error        DIISStart       ....  0.200000
   # of expansion vecs  DIISMaxEq       ....     5
   Bias factor          DIISBfac        ....   1.050
   Max. coefficient     DIISMaxC        ....  10.000
 MO-DIIS                CNVKDIIS        .... off
 Trust-Rad. Augm. Hess. CNVTRAH         .... auto
   Auto Start mean grad. ratio tolernc. ....  1.125000
   Auto Start start iteration           ....    50
   Auto Start num. interpolation iter.  ....    10
   Max. Number of Micro iterations      ....    24
   Max. Number of Macro iterations      .... Maxiter - #DIIS iter
   Number of Davidson start vectors     ....     2
   Converg. threshold    (grad. norm)   ....   5.000e-05
   Grad. Scal. Fac. for Micro threshold ....   0.100
   Minimum threshold for Micro iter.    ....   1.000e-02
   NR start threshold (gradient norm)   ....   1.000e-04
   Initial trust radius                 ....   0.400
   Minimum AH scaling param. (alpha)    ....   1.000
   Maximum AH scaling param. (alpha)    .... 1000.000
   Quad. conv. algorithm                .... NR
   White noise on init. David. guess    .... on
   Maximum white noise                  ....   0.010
   Pseudo random numbers                .... off
   Inactive MOs                         .... canonical
   Orbital update algorithm             .... Taylor
   Preconditioner                       .... Diag
   Full preconditioner red. dimension   ....   250
 SOSCF                  CNVSOSCF        .... on
   Start iteration      SOSCFMaxIt      ....   150
   Startup grad/error   SOSCFStart      ....  0.003300
   Hessian update       SOSCFHessUp     .... L-BFGS
 Level Shifting         CNVShift        .... on
   Level shift para.    LevelShift      ....    0.2500
   Turn off err/grad.   ShiftErr        ....    0.0010
 Zerner damping         CNVZerner       .... off
 Static damping         CNVDamp         .... on
   Fraction old density DampFac         ....    0.7000
   Max. Damping (<1)    DampMax         ....    0.9800
   Min. Damping (>=0)   DampMin         ....    0.0000
   Turn off err/grad.   DampErr         ....    0.1000

SCF Procedure:
 Maximum # iterations   MaxIter         ....   125
 SCF integral mode      SCFMode         .... Direct
   Integral package                     .... SHARK and LIBINT hybrid scheme
 Reset frequency        DirectResetFreq ....    20
 Integral Threshold     Thresh          ....  1.000e-10 Eh
 Primitive CutOff       TCut            ....  1.000e-11 Eh

Convergence Tolerance:
 Convergence Check Mode ConvCheckMode   .... Total+1el-Energy
 Convergence forced     ConvForced      .... 0
 Energy Change          TolE            ....  1.000e-06 Eh
 1-El. energy change                    ....  1.000e-03 Eh
 Orbital Gradient       TolG            ....  5.000e-05
 Orbital Rotation angle TolX            ....  5.000e-05
 DIIS Error             TolErr          ....  1.000e-05

------------------------------
INITIAL GUESS: MODEL POTENTIAL
------------------------------
Loading Hartree-Fock densities                     ... done
Calculating cut-offs                               ... done
Initializing the effective Hamiltonian             ... done
Setting up the integral package (SHARK)            ... done
Starting the Coulomb interaction                   ... done (   0.8 sec)
Making the grid                                    ... done (   0.4 sec)
Mapping shells                                     ... done
Starting the XC term evaluation                    ... done (   0.6 sec)
  promolecular density results
     # of electrons  =    163.989968883
     EX              =   -132.523860312
     EC              =     -5.548612251
     EX+EC           =   -138.072472562
Transforming the Hamiltonian                       ... done (   0.1 sec)
Diagonalizing the Hamiltonian                      ... done (   0.1 sec)
Back transforming the eigenvectors                 ... done (   0.1 sec)
Now organizing SCF variables                       ... done
                      ------------------
                      INITIAL GUESS DONE (   2.1 sec)
                      ------------------
             **** ENERGY FILE WAS UPDATED (data/single_point_PO_M06-2x/75806/75806.en.tmp) ****
Finished Guess after   2.4 sec
Maximum memory used throughout the entire GUESS-calculation: 70.6 MB


           ************************************************************
           *        Program running with 6 parallel MPI-processes     *
           *              working on a common directory               *
           ************************************************************

-------------------------------------------------------------------------------------------
                                      ORCA LEAN-SCF
                              memory conserving SCF solver
-------------------------------------------------------------------------------------------

----------------------------------------D-I-I-S--------------------------------------------
Iteration    Energy (Eh)           Delta-E    RMSDP     MaxDP     DIISErr   Damp  Time(sec)
-------------------------------------------------------------------------------------------
               ***  Starting incremental Fock matrix formation  ***
    1    -1121.6370220449398403     0.00e+00  1.24e-03  1.02e-01  3.65e-01  0.700  23.5
    2    -1121.9535946818291450    -3.17e-01  1.02e-03  1.11e-01  1.59e-01  0.700  13.6
                               ***Turning on AO-DIIS***
    3    -1122.0925386173648803    -1.39e-01  5.39e-04  3.54e-02  4.62e-02  0.700  12.9
    4    -1122.1750506040193613    -8.25e-02  1.16e-03  5.78e-02  3.20e-02  0.000  11.6
    5    -1122.3538228794827774    -1.79e-01  1.20e-04  1.31e-02  3.33e-03  0.000  12.7
                              *** Initializing SOSCF ***
---------------------------------------S-O-S-C-F--------------------------------------
Iteration    Energy (Eh)           Delta-E    RMSDP     MaxDP     MaxGrad    Time(sec)
--------------------------------------------------------------------------------------
    6    -1122.3542692897312918    -4.46e-04  4.46e-05  1.91e-03  1.40e-03    11.4
               *** Restarting incremental Fock matrix formation ***
    7    -1122.3543372728718168    -6.80e-05  4.13e-05  3.20e-03  1.58e-04    22.5
    8    -1122.3543391910352511    -1.92e-06  1.12e-05  1.02e-03  2.81e-04    15.6
    9    -1122.3543435840019811    -4.39e-06  6.55e-06  3.26e-04  3.20e-05    13.6
   10    -1122.3543436568315883    -7.28e-08  1.26e-06  1.51e-04  2.69e-05    13.2
                 **** Energy Check signals convergence ****

               *****************************************************
               *                     SUCCESS                       *
               *           SCF CONVERGED AFTER  10 CYCLES          *
               *****************************************************

Recomputing exchange energy using gridx3       ... done (   32.986 sec)
Old exchange energy                            :    -73.443574202 Eh
New exchange energy                            :    -73.443630244 Eh
Exchange energy change after final integration :     -0.000056041 Eh
Total energy after final integration           :  -1122.354399698 Eh
             **** ENERGY FILE WAS UPDATED (data/single_point_PO_M06-2x/75806/75806.en.tmp) ****

----------------
TOTAL SCF ENERGY
----------------

Total Energy       :      -1122.35439969832646 Eh          -30540.81588 eV

Components:
Nuclear Repulsion  :       1916.25109148499678 Eh           52143.84314 eV
Electronic Energy  :      -3038.60543514182837 Eh          -82684.65750 eV
One Electron Energy:      -5338.68458842689779 Eh         -145272.99319 eV
Two Electron Energy:       2300.07915328506942 Eh           62588.33569 eV

Virial components:
Potential Energy   :      -2238.78066851478889 Eh          -60920.31912 eV
Kinetic Energy     :       1116.42626881646243 Eh           30379.50324 eV
Virial Ratio       :          2.00530991705180

DFT components:
N(Alpha)           :       82.000070362713 electrons
N(Beta)            :       82.000070362713 electrons
N(Total)           :      164.000140725425 electrons
E(XC)              :      -68.242065986029 Eh       

---------------
SCF CONVERGENCE
---------------

  Last Energy change         ...    7.2830e-08  Tolerance :   1.0000e-06
  Last MAX-Density change    ...    1.5123e-04  Tolerance :   1.0000e-05
  Last RMS-Density change    ...    1.2568e-06  Tolerance :   1.0000e-06
  Last DIIS Error            ...    1.3965e-03  Tolerance :   1.0000e-05
  Last Orbital Gradient      ...    2.6937e-05  Tolerance :   5.0000e-05
  Last Orbital Rotation      ...    2.3545e-05  Tolerance :   5.0000e-05


----------------
ORBITAL ENERGIES
----------------

  NO   OCC          E(Eh)            E(eV) 
   0   2.0000     -78.074339     -2124.5108 
   1   2.0000     -19.551240      -532.0163 
   2   2.0000     -10.548018      -287.0262 
   3   2.0000     -10.547522      -287.0127 
   4   2.0000     -10.547440      -287.0104 
   5   2.0000     -10.546433      -286.9830 
   6   2.0000     -10.545601      -286.9604 
   7   2.0000     -10.540694      -286.8269 
   8   2.0000     -10.539790      -286.8023 
   9   2.0000     -10.539144      -286.7847 
  10   2.0000     -10.536876      -286.7230 
  11   2.0000     -10.536706      -286.7184 
  12   2.0000     -10.536341      -286.7084 
  13   2.0000     -10.535739      -286.6920 
  14   2.0000     -10.535283      -286.6796 
  15   2.0000     -10.534965      -286.6710 
  16   2.0000     -10.534581      -286.6605 
  17   2.0000     -10.532893      -286.6146 
  18   2.0000     -10.532646      -286.6079 
  19   2.0000     -10.531807      -286.5850 
  20   2.0000      -6.881702      -187.2606 
  21   2.0000      -4.998537      -136.0171 
  22   2.0000      -4.998411      -136.0137 
  23   2.0000      -4.996973      -135.9746 
  24   2.0000      -1.045767       -28.4568 
  25   2.0000      -0.939904       -25.5761 
  26   2.0000      -0.933204       -25.3938 
  27   2.0000      -0.931060       -25.3354 
  28   2.0000      -0.857039       -23.3212 
  29   2.0000      -0.839411       -22.8415 
  30   2.0000      -0.838315       -22.8117 
  31   2.0000      -0.836159       -22.7531 
  32   2.0000      -0.834318       -22.7029 
  33   2.0000      -0.831772       -22.6337 
  34   2.0000      -0.725478       -19.7413 
  35   2.0000      -0.699786       -19.0422 
  36   2.0000      -0.696854       -18.9624 
  37   2.0000      -0.692291       -18.8382 
  38   2.0000      -0.686028       -18.6678 
  39   2.0000      -0.684894       -18.6369 
  40   2.0000      -0.638483       -17.3740 
  41   2.0000      -0.636458       -17.3189 
  42   2.0000      -0.630322       -17.1519 
  43   2.0000      -0.598941       -16.2980 
  44   2.0000      -0.552354       -15.0303 
  45   2.0000      -0.549796       -14.9607 
  46   2.0000      -0.540953       -14.7201 
  47   2.0000      -0.515879       -14.0378 
  48   2.0000      -0.513765       -13.9802 
  49   2.0000      -0.510475       -13.8907 
  50   2.0000      -0.510300       -13.8860 
  51   2.0000      -0.507582       -13.8120 
  52   2.0000      -0.502914       -13.6850 
  53   2.0000      -0.500861       -13.6291 
  54   2.0000      -0.498568       -13.5667 
  55   2.0000      -0.478047       -13.0083 
  56   2.0000      -0.458482       -12.4759 
  57   2.0000      -0.454392       -12.3646 
  58   2.0000      -0.446508       -12.1501 
  59   2.0000      -0.444139       -12.0856 
  60   2.0000      -0.442796       -12.0491 
  61   2.0000      -0.442206       -12.0330 
  62   2.0000      -0.433269       -11.7898 
  63   2.0000      -0.424725       -11.5573 
  64   2.0000      -0.423011       -11.5107 
  65   2.0000      -0.410449       -11.1689 
  66   2.0000      -0.407853       -11.0982 
  67   2.0000      -0.406096       -11.0504 
  68   2.0000      -0.401562       -10.9271 
  69   2.0000      -0.400044       -10.8858 
  70   2.0000      -0.398497       -10.8437 
  71   2.0000      -0.382896       -10.4191 
  72   2.0000      -0.377643       -10.2762 
  73   2.0000      -0.376065       -10.2332 
  74   2.0000      -0.370494       -10.0817 
  75   2.0000      -0.362475        -9.8634 
  76   2.0000      -0.360729        -9.8159 
  77   2.0000      -0.358939        -9.7672 
  78   2.0000      -0.357211        -9.7202 
  79   2.0000      -0.352220        -9.5844 
  80   2.0000      -0.305919        -8.3245 
  81   2.0000      -0.305600        -8.3158 
  82   0.0000       0.045240         1.2310 
  83   0.0000       0.054631         1.4866 
  84   0.0000       0.062456         1.6995 
  85   0.0000       0.072624         1.9762 
  86   0.0000       0.075917         2.0658 
  87   0.0000       0.081292         2.2121 
  88   0.0000       0.085552         2.3280 
  89   0.0000       0.089758         2.4425 
  90   0.0000       0.096683         2.6309 
  91   0.0000       0.100498         2.7347 
  92   0.0000       0.104847         2.8530 
*Only the first 10 virtual orbitals were printed.

                    ********************************
                    * MULLIKEN POPULATION ANALYSIS *
                    ********************************

-----------------------
MULLIKEN ATOMIC CHARGES
-----------------------
   0 C :   -0.271125
   1 C :   -0.274176
   2 C :   -0.356474
   3 C :   -0.239878
   4 C :   -0.363878
   5 C :   -0.275959
   6 P :    0.731765
   7 O :   -0.604172
   8 C :   -0.311178
   9 C :   -0.347454
  10 C :   -0.270651
  11 C :   -0.268822
  12 C :   -0.270138
  13 C :   -0.311008
  14 C :   -0.198671
  15 C :   -0.374992
  16 C :   -0.276292
  17 C :   -0.275504
  18 C :   -0.269296
  19 C :   -0.371389
  20 H :    0.140379
  21 H :    0.146027
  22 H :    0.145311
  23 H :    0.148410
  24 H :    0.155381
  25 H :    0.191952
  26 H :    0.188080
  27 H :    0.172398
  28 H :    0.161513
  29 H :    0.144234
  30 H :    0.149737
  31 H :    0.166542
  32 H :    0.160293
  33 H :    0.172011
  34 H :    0.144168
  35 H :    0.146319
  36 H :    0.140311
  37 H :    0.144997
  38 H :    0.143509
  39 H :    0.146132
  40 H :    0.188657
  41 H :    0.162929
  42 H :    0.185649
  43 H :    0.147172
  44 H :    0.200688
  45 H :    0.145028
  46 H :    0.140931
  47 H :    0.142943
  48 H :    0.149573
  49 H :    0.145025
  50 H :    0.141381
  51 H :    0.134478
  52 H :    0.207135
Sum of atomic charges:   -0.0000000

--------------------------------
MULLIKEN REDUCED ORBITAL CHARGES
--------------------------------
  0 C s       :     3.269499  s :     3.269499
      pz      :     0.890681  p :     2.909431
      px      :     0.982690
      py      :     1.036059
      dz2     :     0.026720  d :     0.087207
      dxz     :     0.017239
      dyz     :     0.013698
      dx2y2   :     0.019576
      dxy     :     0.009974
      f0      :     0.000967  f :     0.004988
      f+1     :     0.001078
      f-1     :     0.000782
      f+2     :     0.000679
      f-2     :     0.000572
      f+3     :     0.000302
      f-3     :     0.000607

  1 C s       :     3.281440  s :     3.281440
      pz      :     0.939199  p :     2.901632
      px      :     0.936526
      py      :     1.025906
      dz2     :     0.016021  d :     0.086127
      dxz     :     0.027816
      dyz     :     0.011537
      dx2y2   :     0.021441
      dxy     :     0.009312
      f0      :     0.000961  f :     0.004977
      f+1     :     0.000861
      f-1     :     0.000730
      f+2     :     0.000535
      f-2     :     0.000533
      f+3     :     0.000671
      f-3     :     0.000686

  2 C s       :     3.332290  s :     3.332290
      pz      :     1.025164  p :     2.932298
      px      :     0.907260
      py      :     0.999874
      dz2     :     0.022646  d :     0.086758
      dxz     :     0.021232
      dyz     :     0.004655
      dx2y2   :     0.025853
      dxy     :     0.012372
      f0      :     0.000669  f :     0.005127
      f+1     :     0.000976
      f-1     :     0.000462
      f+2     :     0.000648
      f-2     :     0.000660
      f+3     :     0.000959
      f-3     :     0.000754

  3 C s       :     3.191137  s :     3.191137
      pz      :     0.909060  p :     2.948075
      px      :     0.972085
      py      :     1.066930
      dz2     :     0.029900  d :     0.095442
      dxz     :     0.017570
      dyz     :     0.014541
      dx2y2   :     0.022732
      dxy     :     0.010698
      f0      :     0.001027  f :     0.005224
      f+1     :     0.001162
      f-1     :     0.000795
      f+2     :     0.000783
      f-2     :     0.000504
      f+3     :     0.000481
      f-3     :     0.000472

  4 C s       :     3.301738  s :     3.301738
      pz      :     0.904673  p :     2.967748
      px      :     1.021612
      py      :     1.041463
      dz2     :     0.015297  d :     0.089303
      dxz     :     0.030066
      dyz     :     0.011079
      dx2y2   :     0.023074
      dxy     :     0.009787
      f0      :     0.000958  f :     0.005087
      f+1     :     0.000881
      f-1     :     0.000739
      f+2     :     0.000579
      f-2     :     0.000566
      f+3     :     0.000707
      f-3     :     0.000659

  5 C s       :     3.290951  s :     3.290951
      pz      :     1.010476  p :     2.893636
      px      :     0.878544
      py      :     1.004617
      dz2     :     0.024652  d :     0.086392
      dxz     :     0.017884
      dyz     :     0.004177
      dx2y2   :     0.026708
      dxy     :     0.012971
      f0      :     0.000686  f :     0.004980
      f+1     :     0.000947
      f-1     :     0.000466
      f+2     :     0.000609
      f-2     :     0.000617
      f+3     :     0.000893
      f-3     :     0.000762

  6 P s       :     5.314243  s :     5.314243
      pz      :     2.611465  p :     8.240097
      px      :     2.806398
      py      :     2.822234
      dz2     :     0.128966  d :     0.648614
      dxz     :     0.183399
      dyz     :     0.162965
      dx2y2   :     0.111249
      dxy     :     0.062035
      f0      :     0.011748  f :     0.065282
      f+1     :     0.014638
      f-1     :     0.014869
      f+2     :     0.007219
      f-2     :     0.007277
      f+3     :     0.006108
      f-3     :     0.003423

  7 O s       :     3.870378  s :     3.870378
      pz      :     1.401668  p :     4.708373
      px      :     1.653640
      py      :     1.653065
      dz2     :     0.009069  d :     0.024196
      dxz     :     0.006878
      dyz     :     0.006903
      dx2y2   :     0.000658
      dxy     :     0.000688
      f0      :     0.000443  f :     0.001225
      f+1     :     0.000322
      f-1     :     0.000317
      f+2     :     0.000067
      f-2     :     0.000069
      f+3     :     0.000004
      f-3     :     0.000004

  8 C s       :     3.213879  s :     3.213879
      pz      :     0.927502  p :     2.996959
      px      :     1.065731
      py      :     1.003726
      dz2     :     0.029330  d :     0.095114
      dxz     :     0.015947
      dyz     :     0.015927
      dx2y2   :     0.025889
      dxy     :     0.008021
      f0      :     0.000995  f :     0.005226
      f+1     :     0.000989
      f-1     :     0.000970
      f+2     :     0.000870
      f-2     :     0.000427
      f+3     :     0.000470
      f-3     :     0.000505

  9 C s       :     3.312164  s :     3.312164
      pz      :     0.892787  p :     2.941657
      px      :     1.063376
      py      :     0.985494
      dz2     :     0.014812  d :     0.088592
      dxz     :     0.014459
      dyz     :     0.026409
      dx2y2   :     0.015238
      dxy     :     0.017674
      f0      :     0.000988  f :     0.005041
      f+1     :     0.000740
      f-1     :     0.000814
      f+2     :     0.000731
      f-2     :     0.000392
      f+3     :     0.000796
      f-3     :     0.000579

 10 C s       :     3.286935  s :     3.286935
      pz      :     1.017160  p :     2.892149
      px      :     1.006679
      py      :     0.868310
      dz2     :     0.024337  d :     0.086589
      dxz     :     0.005101
      dyz     :     0.017430
      dx2y2   :     0.022438
      dxy     :     0.017282
      f0      :     0.000725  f :     0.004977
      f+1     :     0.000681
      f-1     :     0.000679
      f+2     :     0.000897
      f-2     :     0.000322
      f+3     :     0.000993
      f-3     :     0.000681

 11 C s       :     3.269449  s :     3.269449
      pz      :     0.889912  p :     2.907111
      px      :     0.984907
      py      :     1.032293
      dz2     :     0.026748  d :     0.087274
      dxz     :     0.016305
      dyz     :     0.014602
      dx2y2   :     0.026542
      dxy     :     0.003077
      f0      :     0.000967  f :     0.004987
      f+1     :     0.000929
      f-1     :     0.000928
      f+2     :     0.000766
      f-2     :     0.000489
      f+3     :     0.000425
      f-3     :     0.000483

 12 C s       :     3.277528  s :     3.277528
      pz      :     0.938676  p :     2.901539
      px      :     1.063410
      py      :     0.899453
      dz2     :     0.015262  d :     0.086118
      dxz     :     0.014909
      dyz     :     0.025081
      dx2y2   :     0.014609
      dxy     :     0.016257
      f0      :     0.001000  f :     0.004952
      f+1     :     0.000720
      f-1     :     0.000780
      f+2     :     0.000703
      f-2     :     0.000381
      f+3     :     0.000781
      f-3     :     0.000587

 13 C s       :     3.305894  s :     3.305894
      pz      :     1.026660  p :     2.915462
      px      :     0.983392
      py      :     0.905410
      dz2     :     0.021911  d :     0.084600
      dxz     :     0.005291
      dyz     :     0.020028
      dx2y2   :     0.019795
      dxy     :     0.017576
      f0      :     0.000703  f :     0.005051
      f+1     :     0.000655
      f-1     :     0.000706
      f+2     :     0.000947
      f-2     :     0.000329
      f+3     :     0.001013
      f-3     :     0.000699

 14 C s       :     3.147082  s :     3.147082
      pz      :     1.014081  p :     2.949974
      px      :     0.976607
      py      :     0.959286
      dz2     :     0.016537  d :     0.096396
      dxz     :     0.016897
      dyz     :     0.019682
      dx2y2   :     0.017528
      dxy     :     0.025752
      f0      :     0.000698  f :     0.005220
      f+1     :     0.000688
      f-1     :     0.000470
      f+2     :     0.000885
      f-2     :     0.000408
      f+3     :     0.001231
      f-3     :     0.000841

 15 C s       :     3.332946  s :     3.332946
      pz      :     1.066389  p :     2.949097
      px      :     1.025536
      py      :     0.857171
      dz2     :     0.023229  d :     0.087864
      dxz     :     0.007138
      dyz     :     0.017700
      dx2y2   :     0.022873
      dxy     :     0.016925
      f0      :     0.000829  f :     0.005085
      f+1     :     0.000522
      f-1     :     0.000546
      f+2     :     0.000946
      f-2     :     0.000350
      f+3     :     0.001166
      f-3     :     0.000726

 16 C s       :     3.285233  s :     3.285233
      pz      :     0.979479  p :     2.899088
      px      :     0.884783
      py      :     1.034826
      dz2     :     0.027900  d :     0.086979
      dxz     :     0.015296
      dyz     :     0.003025
      dx2y2   :     0.026354
      dxy     :     0.014404
      f0      :     0.000614  f :     0.004992
      f+1     :     0.000926
      f-1     :     0.000479
      f+2     :     0.000647
      f-2     :     0.000507
      f+3     :     0.000884
      f-3     :     0.000934

 17 C s       :     3.275210  s :     3.275210
      pz      :     1.057104  p :     2.908126
      px      :     0.940132
      py      :     0.910891
      dz2     :     0.015337  d :     0.087158
      dxz     :     0.013586
      dyz     :     0.016982
      dx2y2   :     0.016142
      dxy     :     0.025110
      f0      :     0.000723  f :     0.005010
      f+1     :     0.000558
      f-1     :     0.000455
      f+2     :     0.000820
      f-2     :     0.000397
      f+3     :     0.001132
      f-3     :     0.000925

 18 C s       :     3.283209  s :     3.283209
      pz      :     1.008364  p :     2.894311
      px      :     0.989589
      py      :     0.896358
      dz2     :     0.022324  d :     0.086790
      dxz     :     0.005943
      dyz     :     0.018301
      dx2y2   :     0.021514
      dxy     :     0.018708
      f0      :     0.000757  f :     0.004985
      f+1     :     0.000525
      f-1     :     0.000597
      f+2     :     0.000891
      f-2     :     0.000329
      f+3     :     0.001137
      f-3     :     0.000750

 19 C s       :     3.329508  s :     3.329508
      pz      :     1.045305  p :     2.951190
      px      :     0.863898
      py      :     1.041987
      dz2     :     0.028968  d :     0.085651
      dxz     :     0.014881
      dyz     :     0.003864
      dx2y2   :     0.025579
      dxy     :     0.012360
      f0      :     0.000690  f :     0.005040
      f+1     :     0.000889
      f-1     :     0.000462
      f+2     :     0.000679
      f-2     :     0.000513
      f+3     :     0.000907
      f-3     :     0.000901

 20 H s       :     0.841392  s :     0.841392
      pz      :     0.003463  p :     0.018228
      px      :     0.003612
      py      :     0.011153

 21 H s       :     0.835370  s :     0.835370
      pz      :     0.003756  p :     0.018603
      px      :     0.010183
      py      :     0.004664

 22 H s       :     0.836048  s :     0.836048
      pz      :     0.007296  p :     0.018642
      px      :     0.007228
      py      :     0.004118

 23 H s       :     0.833309  s :     0.833309
      pz      :     0.003589  p :     0.018281
      px      :     0.003342
      py      :     0.011350

 24 H s       :     0.826155  s :     0.826155
      pz      :     0.003432  p :     0.018464
      px      :     0.003352
      py      :     0.011680

 25 H s       :     0.788587  s :     0.788587
      pz      :     0.011096  p :     0.019461
      px      :     0.004849
      py      :     0.003515

 26 H s       :     0.791697  s :     0.791697
      pz      :     0.003569  p :     0.020223
      px      :     0.004164
      py      :     0.012490

 27 H s       :     0.809114  s :     0.809114
      pz      :     0.007093  p :     0.018488
      px      :     0.007338
      py      :     0.004057

 28 H s       :     0.819837  s :     0.819837
      pz      :     0.003516  p :     0.018650
      px      :     0.003362
      py      :     0.011772

 29 H s       :     0.837145  s :     0.837145
      pz      :     0.010746  p :     0.018622
      px      :     0.004270
      py      :     0.003605

 30 H s       :     0.831957  s :     0.831957
      pz      :     0.003353  p :     0.018306
      px      :     0.003380
      py      :     0.011573

 31 H s       :     0.813518  s :     0.813518
      pz      :     0.003722  p :     0.019941
      px      :     0.011475
      py      :     0.004744

 32 H s       :     0.820909  s :     0.820909
      pz      :     0.003686  p :     0.018797
      px      :     0.010923
      py      :     0.004189

 33 H s       :     0.809054  s :     0.809054
      pz      :     0.007299  p :     0.018936
      px      :     0.005942
      py      :     0.005695

 34 H s       :     0.837231  s :     0.837231
      pz      :     0.010695  p :     0.018602
      px      :     0.003844
      py      :     0.004063

 35 H s       :     0.835403  s :     0.835403
      pz      :     0.003391  p :     0.018278
      px      :     0.010887
      py      :     0.004000

 36 H s       :     0.841444  s :     0.841444
      pz      :     0.003571  p :     0.018245
      px      :     0.011147
      py      :     0.003527

 37 H s       :     0.836423  s :     0.836423
      pz      :     0.003631  p :     0.018580
      px      :     0.003406
      py      :     0.011543

 38 H s       :     0.838248  s :     0.838248
      pz      :     0.003775  p :     0.018244
      px      :     0.010356
      py      :     0.004113

 39 H s       :     0.835248  s :     0.835248
      pz      :     0.007292  p :     0.018621
      px      :     0.005837
      py      :     0.005492

 40 H s       :     0.791723  s :     0.791723
      pz      :     0.011171  p :     0.019621
      px      :     0.003758
      py      :     0.004691

 41 H s       :     0.818298  s :     0.818298
      pz      :     0.003535  p :     0.018773
      px      :     0.011130
      py      :     0.004108

 42 H s       :     0.794763  s :     0.794763
      pz      :     0.010964  p :     0.019589
      px      :     0.004031
      py      :     0.004594

 43 H s       :     0.834016  s :     0.834016
      pz      :     0.004223  p :     0.018812
      px      :     0.010649
      py      :     0.003940

 44 H s       :     0.780675  s :     0.780675
      pz      :     0.011545  p :     0.018637
      px      :     0.003213
      py      :     0.003879

 45 H s       :     0.836364  s :     0.836364
      pz      :     0.003361  p :     0.018608
      px      :     0.003619
      py      :     0.011629

 46 H s       :     0.840845  s :     0.840845
      pz      :     0.011159  p :     0.018224
      px      :     0.003453
      py      :     0.003612

 47 H s       :     0.838487  s :     0.838487
      pz      :     0.005515  p :     0.018570
      px      :     0.007576
      py      :     0.005479

 48 H s       :     0.832087  s :     0.832087
      pz      :     0.010654  p :     0.018340
      px      :     0.003538
      py      :     0.004148

 49 H s       :     0.836355  s :     0.836355
      pz      :     0.004076  p :     0.018620
      px      :     0.010476
      py      :     0.004068

 50 H s       :     0.840404  s :     0.840404
      pz      :     0.010789  p :     0.018214
      px      :     0.003355
      py      :     0.004070

 51 H s       :     0.846336  s :     0.846336
      pz      :     0.003550  p :     0.019186
      px      :     0.003530
      py      :     0.012106

 52 H s       :     0.773788  s :     0.773788
      pz      :     0.012280  p :     0.019077
      px      :     0.003329
      py      :     0.003467



                     *******************************
                     * LOEWDIN POPULATION ANALYSIS *
                     *******************************

----------------------
LOEWDIN ATOMIC CHARGES
----------------------
   0 C :   -0.271726
   1 C :   -0.269001
   2 C :   -0.261601
   3 C :   -0.345187
   4 C :   -0.269239
   5 C :   -0.266991
   6 P :    0.664308
   7 O :   -0.327804
   8 C :   -0.338994
   9 C :   -0.270385
  10 C :   -0.267595
  11 C :   -0.271920
  12 C :   -0.269697
  13 C :   -0.261200
  14 C :   -0.341041
  15 C :   -0.265131
  16 C :   -0.269572
  17 C :   -0.271302
  18 C :   -0.269147
  19 C :   -0.265496
  20 H :    0.139581
  21 H :    0.138034
  22 H :    0.139076
  23 H :    0.141326
  24 H :    0.138898
  25 H :    0.152045
  26 H :    0.162930
  27 H :    0.139510
  28 H :    0.143653
  29 H :    0.138223
  30 H :    0.141068
  31 H :    0.158082
  32 H :    0.142835
  33 H :    0.137046
  34 H :    0.138261
  35 H :    0.140148
  36 H :    0.139813
  37 H :    0.137487
  38 H :    0.139886
  39 H :    0.139129
  40 H :    0.151097
  41 H :    0.142744
  42 H :    0.152139
  43 H :    0.137687
  44 H :    0.152979
  45 H :    0.138931
  46 H :    0.139247
  47 H :    0.137229
  48 H :    0.142710
  49 H :    0.139260
  50 H :    0.138798
  51 H :    0.134093
  52 H :    0.154778

-------------------------------
LOEWDIN REDUCED ORBITAL CHARGES
-------------------------------
  0 C s       :     2.786308  s :     2.786308
      pz      :     1.020395  p :     3.056961
      px      :     1.009101
      py      :     1.027465
      dz2     :     0.117801  d :     0.391191
      dxz     :     0.084424
      dyz     :     0.061874
      dx2y2   :     0.080090
      dxy     :     0.047002
      f0      :     0.006256  f :     0.037265
      f+1     :     0.007370
      f-1     :     0.006975
      f+2     :     0.005297
      f-2     :     0.005651
      f+3     :     0.001653
      f-3     :     0.004063

  1 C s       :     2.785573  s :     2.785573
      pz      :     1.013408  p :     3.053792
      px      :     1.013231
      py      :     1.027153
      dz2     :     0.080444  d :     0.392252
      dxz     :     0.117833
      dyz     :     0.051339
      dx2y2   :     0.093264
      dxy     :     0.049372
      f0      :     0.006438  f :     0.037384
      f+1     :     0.005700
      f-1     :     0.006187
      f+2     :     0.004003
      f-2     :     0.005638
      f+3     :     0.004609
      f-3     :     0.004808

  2 C s       :     2.783094  s :     2.783094
      pz      :     1.018169  p :     3.047466
      px      :     1.007830
      py      :     1.021467
      dz2     :     0.096270  d :     0.393378
      dxz     :     0.092194
      dyz     :     0.025177
      dx2y2   :     0.116275
      dxy     :     0.063463
      f0      :     0.004105  f :     0.037662
      f+1     :     0.006205
      f-1     :     0.004025
      f+2     :     0.004956
      f-2     :     0.006546
      f+3     :     0.006176
      f-3     :     0.005649

  3 C s       :     2.781952  s :     2.781952
      pz      :     1.020717  p :     3.080366
      px      :     1.039018
      py      :     1.020631
[...]
      pz      :     0.012225  p :     0.054950
      px      :     0.029819
      py      :     0.012906

 39 H s       :     0.805293  s :     0.805293
      pz      :     0.020489  p :     0.055578
      px      :     0.018974
      py      :     0.016115

 40 H s       :     0.790706  s :     0.790706
      pz      :     0.030983  p :     0.058196
      px      :     0.013310
      py      :     0.013904

 41 H s       :     0.801284  s :     0.801284
      pz      :     0.012278  p :     0.055972
      px      :     0.030554
      py      :     0.013139

 42 H s       :     0.789755  s :     0.789755
      pz      :     0.030293  p :     0.058105
      px      :     0.013423
      py      :     0.014389

 43 H s       :     0.805904  s :     0.805904
      pz      :     0.014888  p :     0.056409
      px      :     0.028669
      py      :     0.012851

 44 H s       :     0.790275  s :     0.790275
      pz      :     0.032507  p :     0.056746
      px      :     0.011548
      py      :     0.012691

 45 H s       :     0.805517  s :     0.805517
      pz      :     0.011915  p :     0.055552
      px      :     0.011925
      py      :     0.031712

 46 H s       :     0.805809  s :     0.805809
      pz      :     0.030388  p :     0.054944
      px      :     0.011783
      py      :     0.012773

 47 H s       :     0.807280  s :     0.807280
      pz      :     0.018179  p :     0.055491
      px      :     0.021241
      py      :     0.016071

 48 H s       :     0.802039  s :     0.802039
      pz      :     0.030404  p :     0.055251
      px      :     0.011753
      py      :     0.013094

 49 H s       :     0.805187  s :     0.805187
      pz      :     0.014168  p :     0.055553
      px      :     0.028478
      py      :     0.012907

 50 H s       :     0.806275  s :     0.806275
      pz      :     0.030137  p :     0.054927
      px      :     0.011671
      py      :     0.013119

 51 H s       :     0.809044  s :     0.809044
      pz      :     0.012754  p :     0.056863
      px      :     0.011909
      py      :     0.032200

 52 H s       :     0.787602  s :     0.787602
      pz      :     0.033801  p :     0.057621
      px      :     0.011242
      py      :     0.012578



                      *****************************
                      * MAYER POPULATION ANALYSIS *
                      *****************************

  NA   - Mulliken gross atomic population
  ZA   - Total nuclear charge
  QA   - Mulliken gross atomic charge
  VA   - Mayer's total valence
  BVA  - Mayer's bonded valence
  FA   - Mayer's free valence

  ATOM       NA         ZA         QA         VA         BVA        FA
  0 C      6.2711     6.0000    -0.2711     3.7355     3.7355    -0.0000
  1 C      6.2742     6.0000    -0.2742     3.7503     3.7503    -0.0000
  2 C      6.3565     6.0000    -0.3565     3.7653     3.7653    -0.0000
  3 C      6.2399     6.0000    -0.2399     3.5599     3.5599    -0.0000
  4 C      6.3639     6.0000    -0.3639     3.7231     3.7231    -0.0000
  5 C      6.2760     6.0000    -0.2760     3.7876     3.7876    -0.0000
  6 P     14.2682    15.0000     0.7318     4.6659     4.6659    -0.0000
  7 O      8.6042     8.0000    -0.6042     1.9748     1.9748    -0.0000
  8 C      6.3112     6.0000    -0.3112     3.5511     3.5511    -0.0000
  9 C      6.3475     6.0000    -0.3475     3.7366     3.7366    -0.0000
 10 C      6.2707     6.0000    -0.2707     3.7752     3.7752    -0.0000
 11 C      6.2688     6.0000    -0.2688     3.7362     3.7362    -0.0000
 12 C      6.2701     6.0000    -0.2701     3.7366     3.7366    -0.0000
 13 C      6.3110     6.0000    -0.3110     3.7288     3.7288    -0.0000
 14 C      6.1987     6.0000    -0.1987     3.4599     3.4599    -0.0000
 15 C      6.3750     6.0000    -0.3750     3.7546     3.7546    -0.0000
 16 C      6.2763     6.0000    -0.2763     3.7826     3.7826    -0.0000
 17 C      6.2755     6.0000    -0.2755     3.7566     3.7566     0.0000
 18 C      6.2693     6.0000    -0.2693     3.7700     3.7700    -0.0000
 19 C      6.3714     6.0000    -0.3714     3.7672     3.7672    -0.0000
 20 H      0.8596     1.0000     0.1404     0.9582     0.9582    -0.0000
 21 H      0.8540     1.0000     0.1460     0.9565     0.9565    -0.0000
 22 H      0.8547     1.0000     0.1453     0.9578     0.9578    -0.0000
 23 H      0.8516     1.0000     0.1484     0.9563     0.9563    -0.0000
 24 H      0.8446     1.0000     0.1554     0.9542     0.9542     0.0000
 25 H      0.8080     1.0000     0.1920     0.9721     0.9721     0.0000
 26 H      0.8119     1.0000     0.1881     0.9365     0.9365     0.0000
 27 H      0.8276     1.0000     0.1724     0.9478     0.9478    -0.0000
 28 H      0.8385     1.0000     0.1615     0.9470     0.9470    -0.0000
 29 H      0.8558     1.0000     0.1442     0.9560     0.9560    -0.0000
 30 H      0.8503     1.0000     0.1497     0.9562     0.9562    -0.0000
 31 H      0.8335     1.0000     0.1665     0.9486     0.9486    -0.0000
 32 H      0.8397     1.0000     0.1603     0.9501     0.9501    -0.0000
 33 H      0.8280     1.0000     0.1720     0.9454     0.9454    -0.0000
 34 H      0.8558     1.0000     0.1442     0.9561     0.9561    -0.0000
 35 H      0.8537     1.0000     0.1463     0.9573     0.9573    -0.0000
 36 H      0.8597     1.0000     0.1403     0.9585     0.9585    -0.0000
 37 H      0.8550     1.0000     0.1450     0.9558     0.9558    -0.0000
 38 H      0.8565     1.0000     0.1435     0.9566     0.9566    -0.0000
 39 H      0.8539     1.0000     0.1461     0.9579     0.9579     0.0000
 40 H      0.8113     1.0000     0.1887     0.9759     0.9759    -0.0000
 41 H      0.8371     1.0000     0.1629     0.9525     0.9525    -0.0000
 42 H      0.8144     1.0000     0.1856     0.9297     0.9297    -0.0000
 43 H      0.8528     1.0000     0.1472     0.9551     0.9551    -0.0000
 44 H      0.7993     1.0000     0.2007     0.9543     0.9543     0.0000
 45 H      0.8550     1.0000     0.1450     0.9560     0.9560     0.0000
 46 H      0.8591     1.0000     0.1409     0.9563     0.9563    -0.0000
 47 H      0.8571     1.0000     0.1429     0.9560     0.9560     0.0000
 48 H      0.8504     1.0000     0.1496     0.9569     0.9569     0.0000
 49 H      0.8550     1.0000     0.1450     0.9565     0.9565     0.0000
 50 H      0.8586     1.0000     0.1414     0.9572     0.9572    -0.0000
 51 H      0.8655     1.0000     0.1345     0.9630     0.9630    -0.0000
 52 H      0.7929     1.0000     0.2071     0.9586     0.9586    -0.0000

  Mayer bond orders larger than 0.100000
B(  0-C ,  1-C ) :   0.9140 B(  0-C ,  5-C ) :   0.9197 B(  0-C , 20-H ) :   0.9792 
B(  0-C , 21-H ) :   0.9823 B(  1-C ,  2-C ) :   0.9118 B(  1-C , 22-H ) :   0.9869 
B(  1-C , 23-H ) :   0.9800 B(  2-C ,  3-C ) :   0.9130 B(  2-C , 24-H ) :   0.9806 
B(  2-C , 25-H ) :   0.9748 B(  3-C ,  4-C ) :   0.8493 B(  3-C ,  6-P ) :   0.8873 
B(  3-C , 26-H ) :   0.9420 B(  4-C ,  5-C ) :   0.9295 B(  4-C , 27-H ) :   0.9800 
B(  4-C , 28-H ) :   0.9693 B(  5-C , 29-H ) :   0.9838 B(  5-C , 30-H ) :   0.9839 
B(  6-P ,  7-O ) :   1.9353 B(  6-P ,  8-C ) :   0.8772 B(  6-P , 14-C ) :   0.8733 
B(  8-C ,  9-C ) :   0.8718 B(  8-C , 13-C ) :   0.8925 B(  8-C , 31-H ) :   0.9451 
B(  9-C , 10-C ) :   0.9227 B(  9-C , 32-H ) :   0.9710 B(  9-C , 33-H ) :   0.9828 
B( 10-C , 11-C ) :   0.9233 B( 10-C , 34-H ) :   0.9836 B( 10-C , 35-H ) :   0.9837 
B( 11-C , 12-C ) :   0.9128 B( 11-C , 36-H ) :   0.9791 B( 11-C , 37-H ) :   0.9826 
B( 12-C , 13-C ) :   0.9018 B( 12-C , 38-H ) :   0.9795 B( 12-C , 39-H ) :   0.9881 
B( 13-C , 40-H ) :   0.9780 B( 13-C , 41-H ) :   0.9797 B( 14-C , 15-C ) :   0.8664 
B( 14-C , 19-C ) :   0.8879 B( 14-C , 42-H ) :   0.9269 B( 15-C , 16-C ) :   0.9255 
B( 15-C , 43-H ) :   0.9800 B( 15-C , 44-H ) :   0.9718 B( 16-C , 17-C ) :   0.9242 
B( 16-C , 45-H ) :   0.9852 B( 16-C , 46-H ) :   0.9819 B( 17-C , 18-C ) :   0.9244 
B( 17-C , 47-H ) :   0.9828 B( 17-C , 48-H ) :   0.9783 B( 18-C , 19-C ) :   0.9190 
B( 18-C , 49-H ) :   0.9850 B( 18-C , 50-H ) :   0.9826 B( 19-C , 51-H ) :   0.9830 
B( 19-C , 52-H ) :   0.9674 

-------
TIMINGS
-------

Total SCF time: 0 days 0 hours 3 min 5 sec 

Total time                  ....     185.080 sec
Sum of individual times     ....     185.162 sec  (100.0%)

SCF preparation             ....       0.411 sec  (  0.2%)
Fock matrix formation       ....     178.821 sec  ( 96.6%)
  Startup                   ....       0.178 sec  (  0.1% of F)
  Split-RI-J                ....      13.869 sec  (  7.8% of F)
  Chain of spheres X        ....     128.002 sec  ( 71.6% of F)
  XC integration            ....      36.339 sec  ( 20.3% of F)
    Basis function eval.    ....       5.017 sec  ( 13.8% of XC)
    Density eval.           ....      16.007 sec  ( 44.0% of XC)
    XC-Functional eval.     ....       0.607 sec  (  1.7% of XC)
    XC-Potential eval.      ....      13.385 sec  ( 36.8% of XC)
Diagonalization             ....       0.000 sec  (  0.0%)
Density matrix formation    ....       0.445 sec  (  0.2%)
Total Energy calculation    ....       0.141 sec  (  0.1%)
Population analysis         ....       0.524 sec  (  0.3%)
Orbital Transformation      ....       0.649 sec  (  0.4%)
Orbital Orthonormalization  ....       0.000 sec  (  0.0%)
DIIS solution               ....       3.062 sec  (  1.7%)
SOSCF solution              ....       1.109 sec  (  0.6%)
Finished LeanSCF after 185.2 sec

Maximum memory used throughout the entire LEANSCF-calculation: 140.1 MB


-------------------------------------------------------------------------------
                          DFT DISPERSION CORRECTION                            
                                                                               
                              DFTD3 V3.1  Rev 1                                
                              USING zero damping                               
-------------------------------------------------------------------------------
The M062X functional is recognized
Active option DFTDOPT                   ...         3   

molecular C6(AA) [au] = 22591.687684 


            DFT-D V3
 parameters
 s6 scaling factor         :     1.0000 
 rs6 scaling factor        :     1.6190 
 s8 scaling factor         :     0.0000 
 rs8 scaling factor        :     1.0000 
 Damping factor alpha6     :    14.0000 
 Damping factor alpha8     :    16.0000 
 ad hoc parameters k1-k3   :    16.0000     1.3333    -4.0000 

 Edisp/kcal,au: -2.563944645716  -0.004085905438 
 E6   /kcal   :  -2.563944646 
 E8   /kcal   :  -0.000000000 
 % E8         :   0.000000000 

-------------------------   ----------------
Dispersion correction           -0.004085905
-------------------------   ----------------


-------------------------   --------------------
FINAL SINGLE POINT ENERGY     -1122.358485603764
-------------------------   --------------------



           ************************************************************
           *        Program running with 6 parallel MPI-processes     *
           *              working on a common directory               *
           ************************************************************

------------------------------------------------------------------------------
                              ORCA PROPERTY CALCULATIONS
------------------------------------------------------------------------------

GBWName                                 ... data/single_point_PO_M06-2x/75806/75806.gbw
Number of atoms                         ...     53
Number of basis functions               ...    824
Max core memory                         ...   1024 MB

Electric properties:
Dipole moment                           ... YES
Quadrupole moment                       ...  NO
Static polarizability (Dipole/Dipole)   ...  NO
Static polarizability (Dipole/Quad.)    ...  NO
Static polarizability (Quad./Quad.)     ...  NO
Static polarizability (Velocity)        ...  NO

Atomic electric properties:
Dipole moment                           ...  NO
Quadrupole moment                       ...  NO
Static polarizability                   ...  NO

Choice of electric origin               ... Center of mass
Position of electric origin             ...    -0.040589    -0.105399     0.358609

General magnetic properties:
Magnetizability                         ...  NO

EPR properties:
g-Tensor (aka g-matrix)                 ...  NO
Zero-Field splitting spin-orbit         ...  NO
Zero-field splitting spin-spin          ...  NO
Hyperfine couplings                     ...  NO (   0 nuclei)
Quadrupole couplings                    ...  NO (   0 nuclei)
Contact density                         ...  NO (   0 nuclei)

NMR properties:
Chemical shifts                         ...  NO (   0 nuclei)
Spin-rotation constants                 ...  NO (   0 nuclei)
Spin-spin couplings                     ...  NO (   0 nuclei,    0 pairs)

Choice of magnetic origin               ... GIAO
Position of magnetic origin             ...     0.000000     0.000000     0.000000

Properties with geometric perturbations:
SCF Hessian                             ...  NO
IR spectrum                             ...  NO
VCD spectrum                            ...  NO
X-ray spectroscopy properties:
SCF XES/XAS/RIXS spectra                ...  NO


-------------
DIPOLE MOMENT
-------------

Method             : SCF
Type of density    : Electron Density
Multiplicity       :   1
Irrep              :   0
Energy             : -1122.3543996983264606 Eh
Relativity type    : 
Basis              : AO
                                X                 Y                 Z
Electronic contribution:     -0.665248604      -2.396799107       7.534259990
Nuclear contribution   :      1.008910676       2.675311920      -9.024093669
                        -----------------------------------------
Total Dipole Moment    :      0.343662072       0.278512813      -1.489833679
                        -----------------------------------------
Magnitude (a.u.)       :      1.554116276
Magnitude (Debye)      :      3.950249642



--------------------
Rotational spectrum 
--------------------
 
Rotational constants in cm-1:             0.010116             0.008921             0.005816 
Rotational constants in MHz :           303.283694           267.452588           174.358242 

Dipole components along the rotational axes: 
x,y,z [a.u.] :     0.261676     0.058368    -1.530816 
x,y,z [Debye]:     0.665128     0.148359    -3.891024 

 

Dipole moment calculation done in   0.0 sec 

Maximum memory used throughout the entire PROP-calculation: 73.7 MB

--------------------------------
SUGGESTED CITATIONS FOR THIS RUN
--------------------------------

Below you find a list of papers that are relevant to this ORCA run
We neither can nor want to force you to cite these papers, but we appreciate if you do
You receive ORCA, which is the product of decades of hard work by many enthusiastic individuals, for free
The only thing we kindly ask in return is that you cite our papers,
We deeply appreciate it, if you show your appreciation for ORCA by not just citing the generic ORCA reference.

Please note that relegating all ORCA citations to the supporting information does *not* help us.
SI sections are not indexed - citations you put there will not count into any citation statistics
But we need these citations in order to attract the funding resources that allow us to do what we are doing

Therefore, if you are a happy ORCA user, please consider citing a few of the papers listed below in the main body of your paper

In addition to the list printed below, the program has created the file data/single_point_PO_M06-2x/75806/75806.bibtex that contains the list in bibtex format
You can import this file easily into all common literature databanks and citation aid programs


List of essential papers. We consider these as the minimum necessary citations

  1. Neese,F.
     Software update: the ORCA program system, version 5.0
     WIRES Comput. Molec. Sci., 2022 12(1)e1606
     doi.org/10.1002/wcms.1606

List of papers to cite with high priority. The work reported in these papers was absolutely
necessary for this run to complete.
Our perspective: the developers of density functionals and basis sets usually get cited in chemistry papers
Good! But without the algorithms to do something with them, the functionals or basis sets would not do anything.
Hence, in our opinion, the algorithm design and method developments papers are equally worthy of getting cited

  1. Neese,F.
     An improvement of the resolution of the identity approximation for the formation of the Coulomb matrix
     J. Comp. Chem., 2003 24(14)1740-1747
     doi.org/10.1002/jcc.10318
  2. Neese,F.; Wennmohs,F.; Hansen,A.; Becker,U.
     Efficient, approximate and parallel Hartree-Fock and hybrid DFT calculations. A 'chain-of-spheres' algorithm for the Hartree-Fock exchange
     Chem. Phys., 2009 356(1-3)98-109
     doi.org/10.1016/j.chemphys.2008.10.036
  3. Helmich-Paris,B.; de Souza,B.; Neese,F.; Izsák,R.
     An improved chain of spheres for exchange algorithm
     J. Chem. Phys., 2021 155 104109
     doi.org/doi: 10.1063/5.0058766.
  4. Neese,F.
     The SHARK Integral Generation and Digestion System
     J. Comp. Chem., 2022  1-16
     doi.org/10.1002/jcc.26942
  5. Grimme,S.; Antony,J.; Ehrlich,S.; Krieg,H.
     A consistent and accurate ab initio parametrization of density functional dispersion correction (DFT-D) for the 94 elements H-Pu
     J. Chem. Phys., 2010 132 154104-XXXX
     doi.org/10.1063/1.3382344

List of suggested additional citations. These are papers that are important in the 'surrounding' of 
of this run, or papers that preceded the highly important papers. If you like your results we are grateful for a citation.

  1. Izsak,R.; Neese,F.
     An overlap fitted chain of spheres exchange method
     J. Chem. Phys., 2011 135 144105
     doi.org/10.1063/1.3646921
  2. Izsak,R.; Hansen,A.; Neese,F.
     The resolution of identity and chain of spheres approximations for the LPNO-CCSD singles Fock term
     Molec. Phys., 2012 110 2413-2417
     doi.org/10.1080/00268976.2012.687466
  3. Neese,F.
     The ORCA program system
     WIRES Comput. Molec. Sci., 2012 2(1)73-78
     doi.org/10.1002/wcms.81
  4. Izsak,R.; Neese,F.; Klopper,W.
     Robust fitting techniques in the chain of spheres approximation to the Fock exchange: The role of the complementary space
     J. Chem. Phys., 2013 139 
     doi.org/10.1063/1.4819264
  5. Neese,F.
     Software update: the ORCA program system, version 4.0
     WIRES Comput. Molec. Sci., 2018 8(1)1-6
     doi.org/10.1002/wcms.1327
  6. Neese,F.; Wennmohs,F.; Becker,U.; Riplinger,C.
     The ORCA quantum chemistry program package
     J. Chem. Phys., 2020 152 Art. No. L224108
     doi.org/10.1063/5.0004608

List of optional additional citations

  1. Neese,F.
     Approximate second-order SCF convergence for spin unrestricted wavefunctions
     Chem. Phys. Lett., 2000 325(1-3)93-98
     doi.org/10.1016/s0009-2614(00)00662-x

Timings for individual modules:

Sum of individual times          ...      193.737 sec (=   3.229 min)
Startup calculation              ...        5.495 sec (=   0.092 min)   2.8 %
SCF iterations                   ...      187.826 sec (=   3.130 min)  96.9 %
Property calculations            ...        0.416 sec (=   0.007 min)   0.2 %
                             ****ORCA TERMINATED NORMALLY****
TOTAL RUN TIME: 0 days 0 hours 3 minutes 14 seconds 3 msec
