
                                 *****************
                                 * O   R   C   A *
                                 *****************

                                            #,                                       
                                            ###                                      
                                            ####                                     
                                            #####                                    
                                            ######                                   
                                           ########,                                 
                                     ,,################,,,,,                         
                               ,,#################################,,                 
                          ,,##########################################,,             
                       ,#########################################, ''#####,          
                    ,#############################################,,   '####,        
                  ,##################################################,,,,####,       
                ,###########''''           ''''###############################       
              ,#####''   ,,,,##########,,,,          '''####'''          '####       
            ,##' ,,,,###########################,,,                        '##       
           ' ,,###''''                  '''############,,,                           
         ,,##''                                '''############,,,,        ,,,,,,###''
      ,#''                                            '''#######################'''  
     '                                                          ''''####''''         
             ,#######,   #######,   ,#######,      ##                                
            ,#'     '#,  ##    ##  ,#'     '#,    #''#        ,####,   ,####,        
            ##       ##  ##   ,#'  ##            #'  '#       #'       #'  '#        
            ##       ##  #######   ##           ,######,      #####,   #    #        
            '#,     ,#'  ##    ##  '#,     ,#' ,#      #,     #,   #   #,  ,#        
             '#######'   ##     ##  '#######'  #'      '#     '####' # '####'        



                #########################################################
                #                        -***-                          #
                #          Department of theory and spectroscopy        #
                #                                                       #
                #                      Frank Neese                      #
                #                                                       #
                #     Directorship, Architecture, Infrastructure        #
                #                    SHARK, DRIVERS                     #
                #        Core code/Algorithms in most modules           #
                #                                                       #
                #        Max Planck Institute fuer Kohlenforschung      #
                #                Kaiser Wilhelm Platz 1                 #
                #                 D-45470 Muelheim/Ruhr                 #
                #                      Germany                          #
                #                                                       #
                #                  All rights reserved                  #
                #                        -***-                          #
                #########################################################


                         Program Version 6.0.0  -   RELEASE   -


 With contributions from (in alphabetic order):
   Daniel Aravena         : Magnetic Suceptibility
   Michael Atanasov       : Ab Initio Ligand Field Theory (pilot matlab implementation)
   Alexander A. Auer      : GIAO ZORA, VPT2 properties, NMR spectrum
   Ute Becker             : All parallelization in ORCA, NUMFREQ, NUMCALC
   Giovanni Bistoni       : ED, misc. LED, open-shell LED, HFLD
   Martin Brehm           : Molecular dynamics
   Dmytro Bykov           : pre 5.0 version of the SCF Hessian
   Marcos Casanova-Páez   : Triplet and SCS-CIS(D). UHF-(DLPNO)-IP/EA/STEOM-CCSD. UHF-CVS-IP/STEOM-CCSD
   Vijay G. Chilkuri      : MRCI spin determinant printing, contributions to CSF-ICE
   Pauline Colinet        : FMM embedding
   Dipayan Datta          : RHF DLPNO-CCSD density
   Achintya Kumar Dutta   : EOM-CC, STEOM-CC
   Nicolas Foglia         : Exact transition moments, OPA infrastructure, MCD improvements
   Dmitry Ganyushin       : Spin-Orbit,Spin-Spin,Magnetic field MRCI
   Miquel Garcia          : C-PCM and meta-GGA Hessian, CCSD/C-PCM, Gaussian charge scheme
   Tiago L. C. Gouveia    : GS-ROHF, GS-ROCIS
   Yang Guo               : DLPNO-NEVPT2, F12-NEVPT2, CIM, IAO-localization
   Andreas Hansen         : Spin unrestricted coupled pair/coupled cluster methods
   Ingolf Harden          : AUTO-CI MPn and infrastructure 
   Benjamin Helmich-Paris : MC-RPA, TRAH-(SCF,CASSCF), AVAS, COSX integrals, SCF dyn. polar.
   Lee Huntington         : MR-EOM, pCC
   Robert Izsak           : Overlap fitted RIJCOSX, COSX-SCS-MP3, EOM
   Riya Kayal             : Wick's Theorem for AUTO-CI, AUTO-CI UHF-CCSDT
   Emily Kempfer          : AUTO-CI, RHF CISDT and CCSDT
   Christian Kollmar      : KDIIS, OOCD, Brueckner-CCSD(T), CCSD density, CASPT2, CASPT2-K, improved NEVPT2
   Axel Koslowski         : Symmetry handling
   Simone Kossmann        : Meta GGA functionals, TD-DFT gradient, OOMP2, (MP2 Hessian; deprecated post 5.0)
   Lucas Lang             : DCDCAS
   Marvin Lechner         : AUTO-CI (C++ implementation), FIC-MRCC
   Spencer Leger          : CASSCF response
   Dagmar Lenk            : GEPOL surface, SMD, ORCA-2-JSON
   Dimitrios Liakos       : Extrapolation schemes; Compound Job, initial MDCI parallelization
   Dimitrios Manganas     : Further ROCIS development; embedding schemes. LFT, Crystal Embedding
   Dimitrios Pantazis     : SARC Basis sets
   Anastasios Papadopoulos: AUTO-CI, single reference methods and gradients
   Taras Petrenko         : pre 6.0 DFT Hessian and TD-DFT gradient, (ASA, deprecated), ECA, 1-Electron XAS/XES, NRVS
   Peter Pinski           : DLPNO-MP2, DLPNO-MP2 Gradient
   Christoph Reimann      : Effective Core Potentials
   Marius Retegan         : Local ZFS, SOC
   Christoph Riplinger    : Optimizer, TS searches, QM/MM, DLPNO-CCSD(T), (RO)-DLPNO pert. Triples
   Michael Roemelt        : Original ROCIS implementation
   Masaaki Saitow         : Open-shell DLPNO-CCSD energy and density
   Barbara Sandhoefer     : DKH picture change effects
   Kantharuban Sivalingam : CASSCF convergence/infrastructure, NEVPT2 and variants, FIC-MRCI
   Bernardo de Souza      : ESD, SOC TD-DFT
   Georgi Stoychev        : AutoAux, RI-MP2 NMR, DLPNO-MP2 response, X2C
   Van Anh Tran           : RI-MP2 g-tensors
   Willem Van den Heuvel  : Paramagnetic NMR
   Zikuan Wang            : NOTCH, Electric field optimization 
   Frank Wennmohs         : Technical directorship and infrastructure
   Hang Xu                : AUTO-CI-Response properties 


 We gratefully acknowledge several colleagues who have allowed us to
 interface, adapt or use parts of their codes:
   Stefan Grimme, W. Hujo, H. Kruse, P. Pracht,  : VdW corrections, initial TS optimization,
                  C. Bannwarth, S. Ehlert,         DFT functionals, gCP, sTDA/sTD-DF
                  L. Wittmann, M. Mueller
   Ed Valeev, F. Pavosevic, A. Kumar             : LibInt (2-el integral package), F12 methods
   Garnet Chan, S. Sharma, J. Yang, R. Olivares  : DMRG
   Ulf Ekstrom                                   : XCFun DFT Library
   Mihaly Kallay                                 : mrcc  (arbitrary order and MRCC methods)
   Frank Weinhold                                : gennbo (NPA and NBO analysis)
   Simon Mueller                                 : openCOSMO-RS
   Christopher J. Cramer and Donald G. Truhlar   : smd solvation model
   Lars Goerigk                                  : TD-DFT with DH, B97 family of functionals
   V. Asgeirsson, H. Jonsson                     : NEB implementation
   FAccTs GmbH                                   : IRC, NEB, NEB-TS, DLPNO-Multilevel, CI-OPT
                                                   MM, QMMM, 2- and 3-layer-ONIOM, Crystal-QMMM,
                                                   LR-CPCM, SF, NACMEs, symmetry and pop. for TD-DFT,
                                                   nearIR, NL-DFT gradient (VV10), updates on ESD,
                                                   ML-optimized integration grids, MBIS, APM,
                                                   GOAT, DOCKER, SOLVATOR, interface openCOSMO-RS
   S Lehtola, MJT Oliveira, MAL Marques          : LibXC Library
   Liviu Ungur et al                             : ANISO software


 Your calculation uses the libint2 library for the computation of 2-el integrals
 For citations please refer to: http://libint.valeyev.net

 Your ORCA version has been built with support for libXC version: 6.2.2
 For citations please refer to: https://libxc.gitlab.io

 This ORCA versions uses:
   CBLAS   interface :  Fast vector & matrix operations
   LAPACKE interface :  Fast linear algebra routines
   Shared memory     :  Shared parallel matrices


Your calculation utilizes the atom-pairwise dispersion correction
with the zero-damping scheme (D30)


XCFun DFT library Copyright 2009-2010 Ulf Ekstrom and contributors.
See http://admol.org/xcfun for more information.
This is free software; see the source code for copying conditions.
There is ABSOLUTELY NO WARRANTY; not even for MERCHANTABILITY or FITNESS FOR A PARTICULAR PURPOSE.
For details see the documentation.
Scientific users of this library should cite U. Ekstrom, L. Visscher, R. Bast, A. J. Thorvaldsen and K. Ruud;
J.Chem.Theor.Comp. 2010, DOI: 10.1021/ct100117s
XCFun Version 0.99 

Warning: RI is on but no J-basis has been assigned. Assigning Def2/J (nothing to worry about!)
================================================================================

----- Orbital basis set information -----
Your calculation utilizes the basis: def2-TZVP
   F. Weigend and R. Ahlrichs, Phys. Chem. Chem. Phys. 7, 3297 (2005).

----- AuxJ basis set information -----
Your calculation utilizes the auxiliary basis: def2/J
   F. Weigend, Phys. Chem. Chem. Phys. 8, 1057 (2006).

================================================================================
                                        WARNINGS
                       Please study these warnings very carefully!
================================================================================

WARNING: Functional chosen is sensitive to the integration grid.
         DEFGRID3 seems to be a minimum grid for robust results!

================================================================================
                                       INPUT FILE
================================================================================
NAME = data/single_point_PO_M06-2x/69597/69597.inp
|  1> ! RIJCOSX M062X def2-TZVP D3ZERO NormalSCF
|  2> %pal
|  3> nprocs 6
|  4> end
|  5> 
|  6> * xyz 0 1
|  7>   C          -2.18837707726764      1.36444911980876      0.41126687893542
|  8>   P          -1.38782559221037      0.22254842561184     -0.78430394364221
|  9>   O          -1.47580964439995      0.66907126900666     -2.23028215805712
| 10>   C          -2.14683055045112     -1.41618196099247     -0.44905432475037
| 11>   C           0.34889682491938      0.06943712411980     -0.20622185999743
| 12>   C           0.71037754458216     -0.32646081791191      1.09799103468491
| 13>   C           2.06510404922163     -0.41768369031467      1.45425620003945
| 14>   C           3.06223025404656     -0.11395326538415      0.51009624856629
| 15>   C           2.70439118621117      0.28123204992007     -0.78997507920007
| 16>   C           1.35005029894250      0.37334226131423     -1.14942418118403
| 17>   H          -3.26335119128842      1.45001884428959      0.15625719087904
| 18>   H          -2.08112582203371      1.01917113120427      1.45867324532667
| 19>   H          -1.71649905108146      2.36016762164471      0.30159295937905
| 20>   H          -1.65253877645644     -2.16178109486166     -1.10167817792157
| 21>   H          -2.03464205610674     -1.72147409691256      0.61010682720525
| 22>   H          -3.22242946918373     -1.37079394723645     -0.71155852556358
| 23>   H          -0.06283395713139     -0.56680041092899      1.84590169167804
| 24>   H           2.34583884878327     -0.72695272528973      2.47292502878687
| 25>   H           4.12413146737110     -0.18623091396934      0.79159626702371
| 26>   H           3.48560694094470      0.51907822205106     -1.52842221259103
| 27>   H           1.03563477258852      0.67979685483093     -2.15974110959729
| 28> **                         ****END OF INPUT****
================================================================================

                       ****************************
                       * Single Point Calculation *
                       ****************************

---------------------------------
CARTESIAN COORDINATES (ANGSTROEM)
---------------------------------
  C     -2.188377    1.364449    0.411267
  P     -1.387826    0.222548   -0.784304
  O     -1.475810    0.669071   -2.230282
  C     -2.146831   -1.416182   -0.449054
  C      0.348897    0.069437   -0.206222
  C      0.710378   -0.326461    1.097991
  C      2.065104   -0.417684    1.454256
  C      3.062230   -0.113953    0.510096
  C      2.704391    0.281232   -0.789975
  C      1.350050    0.373342   -1.149424
  H     -3.263351    1.450019    0.156257
  H     -2.081126    1.019171    1.458673
  H     -1.716499    2.360168    0.301593
  H     -1.652539   -2.161781   -1.101678
  H     -2.034642   -1.721474    0.610107
  H     -3.222429   -1.370794   -0.711559
  H     -0.062834   -0.566800    1.845902
  H      2.345839   -0.726953    2.472925
  H      4.124131   -0.186231    0.791596
  H      3.485607    0.519078   -1.528422
  H      1.035635    0.679797   -2.159741

----------------------------
CARTESIAN COORDINATES (A.U.)
----------------------------
  NO LB      ZA    FRAG     MASS         X           Y           Z
   0 C     6.0000    0    12.011   -4.135433    2.578435    0.777182
   1 P    15.0000    0    30.974   -2.622610    0.420556   -1.482120
   2 O     8.0000    0    15.999   -2.788876    1.264361   -4.214622
   3 C     6.0000    0    12.011   -4.056922   -2.676196   -0.848590
   4 C     6.0000    0    12.011    0.659319    0.131217   -0.389703
   5 C     6.0000    0    12.011    1.342419   -0.616922    2.074902
   6 C     6.0000    0    12.011    3.902481   -0.789308    2.748146
   7 C     6.0000    0    12.011    5.786777   -0.215340    0.963942
   8 C     6.0000    0    12.011    5.110559    0.531452   -1.492837
   9 C     6.0000    0    12.011    2.551225    0.705515   -2.172097
  10 H     1.0000    0     1.008   -6.166840    2.740139    0.295283
  11 H     1.0000    0     1.008   -3.932758    1.925954    2.756493
  12 H     1.0000    0     1.008   -3.243713    4.460070    0.569928
  13 H     1.0000    0     1.008   -3.122846   -4.085174   -2.081870
  14 H     1.0000    0     1.008   -3.844916   -3.253115    1.152935
  15 H     1.0000    0     1.008   -6.089509   -2.590425   -1.344651
  16 H     1.0000    0     1.008   -0.118739   -1.071098    3.488249
  17 H     1.0000    0     1.008    4.432993   -1.373742    4.673151
  18 H     1.0000    0     1.008    7.793479   -0.351925    1.495900
  19 H     1.0000    0     1.008    6.586843    0.980916   -2.888299
  20 H     1.0000    0     1.008    1.957066    1.284630   -4.081319

--------------------------------
INTERNAL COORDINATES (ANGSTROEM)
--------------------------------
 C      0   0   0     0.000000000000     0.00000000     0.00000000
 P      1   0   0     1.836902138774     0.00000000     0.00000000
 O      2   1   0     1.515907925857   114.35772862     0.00000000
 C      2   1   3     1.836822831299   104.81650855   233.94268350
 C      2   1   3     1.836797953025   105.01363235   123.56500550
 C      5   2   1     1.410097431332   123.84017837    55.01338511
 C      6   5   2     1.403755813120   120.02513256   179.95957041
 C      7   6   5     1.406396406901   119.98781162     0.00000000
 C      8   7   6     1.405135470046   120.08727119     0.00000000
 C      9   8   7     1.404253248844   120.05913469     0.00000000
 H      1   2   3     1.108116178280   108.72359851    60.03317871
 H      1   2   3     1.108052262992   112.29319495   181.48761823
 H      1   2   3     1.107317739010   107.98740926   302.22018562
 H      4   2   1     1.107321236134   107.98069313   183.54335715
 H      4   2   1     1.107976485459   112.23826077   304.24458923
 H      4   2   1     1.108098173095   108.74257705    65.71761880
 H      6   5   2     1.102265620074   120.59484267   359.96523055
 H      7   6   5     1.100974816397   119.94426287   180.00156667
 H      8   7   6     1.100954361332   119.86875858   180.00478766
 H      9   8   7     1.100987295955   120.04104571   179.98423362
 H     10   9   8     1.101595132950   121.88952356   180.00919831

---------------------------
INTERNAL COORDINATES (A.U.)
---------------------------
 C      0   0   0     0.000000000000     0.00000000     0.00000000
 P      1   0   0     3.471241977098     0.00000000     0.00000000
 O      2   1   0     2.864650824110   114.35772862     0.00000000
 C      2   1   3     3.471092107689   104.81650855   233.94268350
 C      2   1   3     3.471045094564   105.01363235   123.56500550
 C      5   2   1     2.664697967363   123.84017837    55.01338511
 C      6   5   2     2.652714045696   120.02513256   179.95957041
 C      7   6   5     2.657704044773   119.98781162     0.00000000
 C      8   7   6     2.655321219446   120.08727119     0.00000000
 C      9   8   7     2.653654062984   120.05913469     0.00000000
 H      1   2   3     2.094036101516   108.72359851    60.03317871
 H      1   2   3     2.093915319126   112.29319495   181.48761823
 H      1   2   3     2.092527269962   107.98740926   302.22018562
 H      4   2   1     2.092533878568   107.98069313   183.54335715
 H      4   2   1     2.093772120342   112.23826077   304.24458923
 H      4   2   1     2.094002076648   108.74257705    65.71761880
 H      6   5   2     2.082980148777   120.59484267   359.96523055
 H      7   6   5     2.080540883335   119.94426287   180.00156667
 H      8   7   6     2.080502228864   119.86875858   180.00478766
 H      9   8   7     2.080564466282   120.04104571   179.98423362
 H     10   9   8     2.081713111735   121.88952356   180.00919831

---------------------
BASIS SET INFORMATION
---------------------
There are 4 groups of distinct atoms

 Group   1 Type C   : 11s6p2d1f contracted to 5s3p2d1f pattern {62111/411/11/1}
 Group   2 Type P   : 14s9p3d1f contracted to 5s5p2d1f pattern {73211/51111/21/1}
 Group   3 Type O   : 11s6p2d1f contracted to 5s3p2d1f pattern {62111/411/11/1}
 Group   4 Type H   : 5s1p contracted to 3s1p pattern {311/1}

Atom   0C    basis set group =>   1
Atom   1P    basis set group =>   2
Atom   2O    basis set group =>   3
Atom   3C    basis set group =>   1
Atom   4C    basis set group =>   1
Atom   5C    basis set group =>   1
Atom   6C    basis set group =>   1
Atom   7C    basis set group =>   1
Atom   8C    basis set group =>   1
Atom   9C    basis set group =>   1
Atom  10H    basis set group =>   4
Atom  11H    basis set group =>   4
Atom  12H    basis set group =>   4
Atom  13H    basis set group =>   4
Atom  14H    basis set group =>   4
Atom  15H    basis set group =>   4
Atom  16H    basis set group =>   4
Atom  17H    basis set group =>   4
Atom  18H    basis set group =>   4
Atom  19H    basis set group =>   4
Atom  20H    basis set group =>   4
---------------------------------
AUXILIARY/J BASIS SET INFORMATION
---------------------------------
There are 4 groups of distinct atoms

 Group   1 Type C   : 12s5p4d2f1g contracted to 6s4p3d1f1g pattern {711111/2111/211/2/1}
 Group   2 Type P   : 14s5p5d2f1g contracted to 8s4p3d1f1g pattern {71111111/2111/311/2/1}
 Group   3 Type O   : 12s5p4d2f1g contracted to 6s4p3d1f1g pattern {711111/2111/211/2/1}
 Group   4 Type H   : 5s2p1d contracted to 3s1p1d pattern {311/2/1}

Atom   0C    basis set group =>   1
Atom   1P    basis set group =>   2
Atom   2O    basis set group =>   3
Atom   3C    basis set group =>   1
Atom   4C    basis set group =>   1
Atom   5C    basis set group =>   1
Atom   6C    basis set group =>   1
Atom   7C    basis set group =>   1
Atom   8C    basis set group =>   1
Atom   9C    basis set group =>   1
Atom  10H    basis set group =>   4
Atom  11H    basis set group =>   4
Atom  12H    basis set group =>   4
Atom  13H    basis set group =>   4
Atom  14H    basis set group =>   4
Atom  15H    basis set group =>   4
Atom  16H    basis set group =>   4
Atom  17H    basis set group =>   4
Atom  18H    basis set group =>   4
Atom  19H    basis set group =>   4
Atom  20H    basis set group =>   4


           ************************************************************
           *        Program running with 6 parallel MPI-processes     *
           *              working on a common directory               *
           ************************************************************
------------------------------------------------------------------------------
                             ORCA STARTUP CALCULATIONS
                           -- RI-GTO INTEGRALS CHOSEN --
------------------------------------------------------------------------------
------------------------------------------------------------------------------
                   ___                                                        
                  /   \      - P O W E R E D   B Y -                         
                 /     \                                                     
                 |  |  |   _    _      __       _____    __    __             
                 |  |  |  | |  | |    /  \     |  _  \  |  |  /  |          
                  \  \/   | |  | |   /    \    | | | |  |  | /  /          
                 / \  \   | |__| |  /  /\  \   | |_| |  |  |/  /          
                |  |  |   |  __  | /  /__\  \  |    /   |      \           
                |  |  |   | |  | | |   __   |  |    \   |  |\   \          
                \     /   | |  | | |  |  |  |  | |\  \  |  | \   \       
                 \___/    |_|  |_| |__|  |__|  |_| \__\ |__|  \__/        
                                                                              
                      - O R C A' S   B I G   F R I E N D -                    
                                      &                                       
                       - I N T E G R A L  F E E D E R -                       
                                                                              
 v1 FN, 2020, v2 2021, v3 2022-2024                                           
------------------------------------------------------------------------------


----------------------
SHARK INTEGRAL PACKAGE
----------------------

Number of atoms                             ...     21
Number of basis functions                   ...    382
Number of shells                            ...    156
Maximum angular momentum                    ...      3
Integral batch strategy                     ... SHARK/LIBINT Hybrid
RI-J (if used) integral strategy            ... SPLIT-RIJ (Revised 2003 algorithm where possible)
Printlevel                                  ...      1
Contraction scheme used                     ... SEGMENTED contraction
Prescreening option                         ... SCHWARTZ
   Thresh                                   ... 1.000e-10
   Tcut                                     ... 1.000e-11
   Tpresel                                  ... 1.000e-11 
Coulomb Range Separation                    ... NOT USED
Exchange Range Separation                   ... NOT USED
Multipole approximations                    ... NOT USED
Finite Nucleus Model                        ... NOT USED
CABS basis                                  ... NOT available
Auxiliary Coulomb fitting basis             ... AVAILABLE
   # of basis functions in Aux-J            ...    613
   # of shells in Aux-J                     ...    207
   Maximum angular momentum in Aux-J        ...      4
Auxiliary J/K fitting basis                 ... NOT available
Auxiliary Correlation fitting basis         ... NOT available
Auxiliary 'external' fitting basis          ... NOT available

Checking pre-screening integrals            ... done (  0.0 sec) Dimension = 156
Check shell pair data                       ... done (  0.0 sec)
Shell pair information
Shell pair cut-off parameter TPreSel        ...   1.0e-11
Total number of shell pairs                 ...     12246
Shell pairs after pre-screening             ...     10522
Total number of primitive shell pairs       ...     37668
Primitive shell pairs kept                  ...     23171
          la=0 lb=0:   2871 shell pairs
          la=1 lb=0:   3072 shell pairs
          la=1 lb=1:    860 shell pairs
          la=2 lb=0:   1434 shell pairs
          la=2 lb=1:    783 shell pairs
          la=2 lb=2:    198 shell pairs
          la=3 lb=0:    701 shell pairs
          la=3 lb=1:    377 shell pairs
          la=3 lb=2:    178 shell pairs
          la=3 lb=3:     48 shell pairs

Calculating one electron integrals          ... done (  0.0 sec)
Calculating RI/J V-Matrix + Cholesky decomp.... done (  0.0 sec)
Calculating Nuclear repulsion               ... done (  0.0 sec) ENN=    602.705013235796 Eh

Diagonalization of the overlap matrix:
Smallest eigenvalue                        ... 9.313e-06
Time for diagonalization                   ...    0.034 sec
Threshold for overlap eigenvalues          ... 1.000e-07
Number of eigenvalues below threshold      ... 0
Time for construction of square roots      ...    0.010 sec
Total time needed                          ...    0.046 sec

-------------------
DFT GRID GENERATION
-------------------

General Integration Accuracy     IntAcc      ... 4.388
Radial Grid Type                 RadialGrid  ... OptM3 with GC (2021)
Angular Grid (max. ang.)         AngularGrid ... 4 (Lebedev-302)
Angular grid pruning method      GridPruning ... 4 (adaptive)
Weight generation scheme         WeightScheme... mBecke (2022)
Basis function cutoff            BFCut       ... 1.0000e-10
Integration weight cutoff        WCut        ... 1.0000e-14
Partially contracted basis set               ... off
Rotationally invariant grid construction     ... off
Angular grids for H and He will be reduced by one unit

Total number of grid points                  ...    96712
Total number of batches                      ...     1522
Average number of points per batch           ...       63
Average number of grid points per atom       ...     4605

--------------------
COSX GRID GENERATION
--------------------

GRIDX 1
-------
General Integration Accuracy     IntAcc      ... 3.816
Radial Grid Type                 RadialGrid  ... OptM3 with GC (2021)
Angular Grid (max. ang.)         AngularGrid ... 1 (Lebedev-50)
Angular grid pruning method      GridPruning ... 4 (adaptive)
Weight generation scheme         WeightScheme... mBecke (2022)
Basis function cutoff            BFCut       ... 1.0000e-10
Integration weight cutoff        WCut        ... 1.0000e-14
Partially contracted basis set               ... on
Rotationally invariant grid construction     ... off
Angular grids for H and He will be reduced by one unit

Total number of grid points                  ...    13358
Total number of batches                      ...      115
Average number of points per batch           ...      116
Average number of grid points per atom       ...      636
UseSFitting                                  ... on

GRIDX 2
-------
General Integration Accuracy     IntAcc      ... 4.020
Radial Grid Type                 RadialGrid  ... OptM3 with GC (2021)
Angular Grid (max. ang.)         AngularGrid ... 2 (Lebedev-110)
Angular grid pruning method      GridPruning ... 4 (adaptive)
Weight generation scheme         WeightScheme... mBecke (2022)
Basis function cutoff            BFCut       ... 1.0000e-10
Integration weight cutoff        WCut        ... 1.0000e-14
Partially contracted basis set               ... on
Rotationally invariant grid construction     ... off
Angular grids for H and He will be reduced by one unit

Total number of grid points                  ...    26349
Total number of batches                      ...      215
Average number of points per batch           ...      122
Average number of grid points per atom       ...     1255
UseSFitting                                  ... on

GRIDX 3
-------
General Integration Accuracy     IntAcc      ... 4.338
Radial Grid Type                 RadialGrid  ... OptM3 with GC (2021)
Angular Grid (max. ang.)         AngularGrid ... 3 (Lebedev-194)
Angular grid pruning method      GridPruning ... 4 (adaptive)
Weight generation scheme         WeightScheme... mBecke (2022)
Basis function cutoff            BFCut       ... 1.0000e-10
Integration weight cutoff        WCut        ... 1.0000e-14
Partially contracted basis set               ... on
Rotationally invariant grid construction     ... off
Angular grids for H and He will be reduced by one unit

Total number of grid points                  ...    58207
Total number of batches                      ...      462
Average number of points per batch           ...      125
Average number of grid points per atom       ...     2772
UseSFitting                                  ... on
Initializing property integral containers    ... done (  0.0 sec)

SHARK setup successfully completed in   1.5 seconds

Maximum memory used throughout the entire STARTUP-calculation: 34.7 MB


           ************************************************************
           *        Program running with 6 parallel MPI-processes     *
           *              working on a common directory               *
           ************************************************************
-------------------------------------------------------------------------------
                                 ORCA GUESS
                   Start orbitals & Density for SCF / CASSCF
-------------------------------------------------------------------------------

------------
SCF SETTINGS
------------
Hamiltonian:
 Density Functional     Method          .... DFT(GTOs)
 Exchange Functional    Exchange        .... M062X
 Correlation Functional Correlation     .... M062X
 Gradients option       PostSCFGGA      .... off
 Hybrid DFT is turned on
   Fraction HF Exchange ScalHFX         ....  0.540000
   Scaling of DF-GGA-X  ScalDFX         ....  0.460000
   Scaling of DF-GGA-C  ScalDFC         ....  1.000000
   Scaling of DF-LDA-C  ScalLDAC        ....  1.000000
   Perturbative correction              ....  0.000000
 RI-approximation to the Coulomb term is turned on
   Number of AuxJ basis functions       .... 613
   RIJ-COSX (HFX calculated with COS-X)).... on


General Settings:
 Integral files         IntName         .... data/single_point_PO_M06-2x/69597/69597
 Hartree-Fock type      HFTyp           .... RHF
 Total Charge           Charge          ....    0
 Multiplicity           Mult            ....    1
 Number of Electrons    NEL             ....   82
 Basis Dimension        Dim             ....  382
 Nuclear Repulsion      ENuc            ....    602.7050132358 Eh

Convergence Acceleration:
 AO-DIIS                CNVDIIS         .... on
   Start iteration      DIISMaxIt       ....    12
   Startup error        DIISStart       ....  0.200000
   # of expansion vecs  DIISMaxEq       ....     5
   Bias factor          DIISBfac        ....   1.050
   Max. coefficient     DIISMaxC        ....  10.000
 MO-DIIS                CNVKDIIS        .... off
 Trust-Rad. Augm. Hess. CNVTRAH         .... auto
   Auto Start mean grad. ratio tolernc. ....  1.125000
   Auto Start start iteration           ....    50
   Auto Start num. interpolation iter.  ....    10
   Max. Number of Micro iterations      ....    24
   Max. Number of Macro iterations      .... Maxiter - #DIIS iter
   Number of Davidson start vectors     ....     2
   Converg. threshold    (grad. norm)   ....   5.000e-05
   Grad. Scal. Fac. for Micro threshold ....   0.100
   Minimum threshold for Micro iter.    ....   1.000e-02
   NR start threshold (gradient norm)   ....   1.000e-04
   Initial trust radius                 ....   0.400
   Minimum AH scaling param. (alpha)    ....   1.000
   Maximum AH scaling param. (alpha)    .... 1000.000
   Quad. conv. algorithm                .... NR
   White noise on init. David. guess    .... on
   Maximum white noise                  ....   0.010
   Pseudo random numbers                .... off
   Inactive MOs                         .... canonical
   Orbital update algorithm             .... Taylor
   Preconditioner                       .... Diag
   Full preconditioner red. dimension   ....   250
 SOSCF                  CNVSOSCF        .... on
   Start iteration      SOSCFMaxIt      ....   150
   Startup grad/error   SOSCFStart      ....  0.003300
   Hessian update       SOSCFHessUp     .... L-BFGS
 Level Shifting         CNVShift        .... on
   Level shift para.    LevelShift      ....    0.2500
   Turn off err/grad.   ShiftErr        ....    0.0010
 Zerner damping         CNVZerner       .... off
 Static damping         CNVDamp         .... on
   Fraction old density DampFac         ....    0.7000
   Max. Damping (<1)    DampMax         ....    0.9800
   Min. Damping (>=0)   DampMin         ....    0.0000
   Turn off err/grad.   DampErr         ....    0.1000

SCF Procedure:
 Maximum # iterations   MaxIter         ....   125
 SCF integral mode      SCFMode         .... Direct
   Integral package                     .... SHARK and LIBINT hybrid scheme
 Reset frequency        DirectResetFreq ....    20
 Integral Threshold     Thresh          ....  1.000e-10 Eh
 Primitive CutOff       TCut            ....  1.000e-11 Eh

Convergence Tolerance:
 Convergence Check Mode ConvCheckMode   .... Total+1el-Energy
 Convergence forced     ConvForced      .... 0
 Energy Change          TolE            ....  1.000e-06 Eh
 1-El. energy change                    ....  1.000e-03 Eh
 Orbital Gradient       TolG            ....  5.000e-05
 Orbital Rotation angle TolX            ....  5.000e-05
 DIIS Error             TolErr          ....  1.000e-05

------------------------------
INITIAL GUESS: MODEL POTENTIAL
------------------------------
Loading Hartree-Fock densities                     ... done
Calculating cut-offs                               ... done
Initializing the effective Hamiltonian             ... done
Setting up the integral package (SHARK)            ... done
Starting the Coulomb interaction                   ... done (   0.2 sec)
Making the grid                                    ... done (   0.1 sec)
Mapping shells                                     ... done
Starting the XC term evaluation                    ... done (   0.1 sec)
  promolecular density results
     # of electrons  =     81.990144844
     EX              =    -74.791472842
     EC              =     -2.777665081
     EX+EC           =    -77.569137922
Transforming the Hamiltonian                       ... done (   0.0 sec)
Diagonalizing the Hamiltonian                      ... done (   0.0 sec)
Back transforming the eigenvectors                 ... done (   0.0 sec)
Now organizing SCF variables                       ... done
                      ------------------
                      INITIAL GUESS DONE (   0.5 sec)
                      ------------------
             **** ENERGY FILE WAS UPDATED (data/single_point_PO_M06-2x/69597/69597.en.tmp) ****
Finished Guess after   0.6 sec
Maximum memory used throughout the entire GUESS-calculation: 23.1 MB


           ************************************************************
           *        Program running with 6 parallel MPI-processes     *
           *              working on a common directory               *
           ************************************************************

-------------------------------------------------------------------------------------------
                                      ORCA LEAN-SCF
                              memory conserving SCF solver
-------------------------------------------------------------------------------------------

----------------------------------------D-I-I-S--------------------------------------------
Iteration    Energy (Eh)           Delta-E    RMSDP     MaxDP     DIISErr   Damp  Time(sec)
-------------------------------------------------------------------------------------------
               ***  Starting incremental Fock matrix formation  ***
    1    -727.6878257933266241     0.00e+00  1.86e-03  8.55e-02  3.69e-01  0.700   4.1
    2    -727.8538030118976394    -1.66e-01  1.49e-03  7.92e-02  1.60e-01  0.700   2.6
                               ***Turning on AO-DIIS***
    3    -727.9261010840383506    -7.23e-02  7.89e-04  1.84e-02  5.11e-02  0.700   2.6
    4    -727.9692847394372848    -4.32e-02  1.76e-03  5.53e-02  3.20e-02  0.000   2.5
    5    -728.0628083706834559    -9.35e-02  1.79e-04  1.05e-02  6.84e-03  0.000   2.5
                              *** Initializing SOSCF ***
---------------------------------------S-O-S-C-F--------------------------------------
Iteration    Energy (Eh)           Delta-E    RMSDP     MaxDP     MaxGrad    Time(sec)
--------------------------------------------------------------------------------------
    6    -728.0630981504685906    -2.90e-04  7.16e-05  4.38e-03  2.86e-03     2.3
               *** Restarting incremental Fock matrix formation ***
    7    -728.0631689999744367    -7.08e-05  5.52e-05  2.27e-03  1.44e-04     4.0
    8    -728.0631707322444299    -1.73e-06  2.97e-05  1.92e-03  2.14e-04     3.1
    9    -728.0631717817260551    -1.05e-06  1.90e-05  1.03e-03  5.98e-05     2.9
   10    -728.0631719104109152    -1.29e-07  1.84e-06  8.62e-05  1.27e-05     2.8
                 **** Energy Check signals convergence ****

               *****************************************************
               *                     SUCCESS                       *
               *           SCF CONVERGED AFTER  10 CYCLES          *
               *****************************************************

Recomputing exchange energy using gridx3       ... done (    5.846 sec)
Old exchange energy                            :    -41.163805288 Eh
New exchange energy                            :    -41.163843704 Eh
Exchange energy change after final integration :     -0.000038417 Eh
Total energy after final integration           :   -728.063210327 Eh
             **** ENERGY FILE WAS UPDATED (data/single_point_PO_M06-2x/69597/69597.en.tmp) ****

----------------
TOTAL SCF ENERGY
----------------

Total Energy       :       -728.06321032725168 Eh          -19811.60716 eV

Components:
Nuclear Repulsion  :        602.70501323579572 Eh           16400.43719 eV
Electronic Energy  :      -1330.76818514620663 Eh          -36212.04330 eV
One Electron Energy:      -2191.40252841884603 Eh          -59631.09438 eV
Two Electron Energy:        860.63434327263940 Eh           23419.05108 eV

Virial components:
Potential Energy   :      -1452.91942037347690 Eh          -39535.94740 eV
Kinetic Energy     :        724.85621004622510 Eh           19724.34024 eV
Virial Ratio       :          2.00442432614438

DFT components:
N(Alpha)           :       40.999942417399 electrons
N(Beta)            :       40.999942417399 electrons
N(Total)           :       81.999884834798 electrons
E(XC)              :      -38.026219145569 Eh       

---------------
SCF CONVERGENCE
---------------

  Last Energy change         ...    1.2868e-07  Tolerance :   1.0000e-06
  Last MAX-Density change    ...    8.6239e-05  Tolerance :   1.0000e-05
  Last RMS-Density change    ...    1.8426e-06  Tolerance :   1.0000e-06
  Last DIIS Error            ...    2.8555e-03  Tolerance :   1.0000e-05
  Last Orbital Gradient      ...    1.2707e-05  Tolerance :   5.0000e-05
  Last Orbital Rotation      ...    1.4698e-05  Tolerance :   5.0000e-05


----------------
ORBITAL ENERGIES
----------------

  NO   OCC          E(Eh)            E(eV) 
   0   2.0000     -78.094522     -2125.0600 
   1   2.0000     -19.562505      -532.3228 
   2   2.0000     -10.566851      -287.5386 
   3   2.0000     -10.561394      -287.3902 
   4   2.0000     -10.560623      -287.3692 
   5   2.0000     -10.559459      -287.3375 
   6   2.0000     -10.557666      -287.2887 
   7   2.0000     -10.556822      -287.2657 
   8   2.0000     -10.549855      -287.0761 
   9   2.0000     -10.549845      -287.0759 
  10   2.0000      -6.900477      -187.7715 
  11   2.0000      -5.017786      -136.5409 
  12   2.0000      -5.017421      -136.5310 
  13   2.0000      -5.015844      -136.4880 
  14   2.0000      -1.059270       -28.8242 
  15   2.0000      -0.965027       -26.2597 
  16   2.0000      -0.865259       -23.5449 
  17   2.0000      -0.850025       -23.1304 
  18   2.0000      -0.830550       -22.6004 
  19   2.0000      -0.797399       -21.6983 
  20   2.0000      -0.701096       -19.0778 
  21   2.0000      -0.694363       -18.8946 
  22   2.0000      -0.627158       -17.0658 
  23   2.0000      -0.585165       -15.9232 
  24   2.0000      -0.530352       -14.4316 
  25   2.0000      -0.527865       -14.3639 
  26   2.0000      -0.513967       -13.9858 
  27   2.0000      -0.502179       -13.6650 
  28   2.0000      -0.498440       -13.5632 
  29   2.0000      -0.494084       -13.4447 
  30   2.0000      -0.483195       -13.1484 
  31   2.0000      -0.461779       -12.5657 
  32   2.0000      -0.449803       -12.2398 
  33   2.0000      -0.429891       -11.6979 
  34   2.0000      -0.428542       -11.6612 
  35   2.0000      -0.409288       -11.1373 
  36   2.0000      -0.402025       -10.9396 
  37   2.0000      -0.333665        -9.0795 
  38   2.0000      -0.333540        -9.0761 
  39   2.0000      -0.318460        -8.6657 
  40   2.0000      -0.318076        -8.6553 
  41   0.0000      -0.006423        -0.1748 
  42   0.0000       0.007307         0.1988 
  43   0.0000       0.050080         1.3628 
  44   0.0000       0.079461         2.1622 
  45   0.0000       0.091157         2.4805 
  46   0.0000       0.100963         2.7473 
  47   0.0000       0.101987         2.7752 
  48   0.0000       0.111930         3.0458 
  49   0.0000       0.114591         3.1182 
  50   0.0000       0.125625         3.4184 
  51   0.0000       0.132819         3.6142 
*Only the first 10 virtual orbitals were printed.

                    ********************************
                    * MULLIKEN POPULATION ANALYSIS *
                    ********************************

-----------------------
MULLIKEN ATOMIC CHARGES
-----------------------
   0 C :   -0.500842
   1 P :    0.662793
   2 O :   -0.602842
   3 C :   -0.501317
   4 C :   -0.088455
   5 C :   -0.178675
   6 C :   -0.158987
   7 C :   -0.136317
   8 C :   -0.137645
   9 C :   -0.150039
  10 H :    0.167710
  11 H :    0.153139
  12 H :    0.176550
  13 H :    0.176749
  14 H :    0.153252
  15 H :    0.167584
  16 H :    0.153761
  17 H :    0.146499
  18 H :    0.149310
  19 H :    0.150878
  20 H :    0.196894
Sum of atomic charges:   -0.0000000

--------------------------------
MULLIKEN REDUCED ORBITAL CHARGES
--------------------------------
  0 C s       :     3.274525  s :     3.274525
      pz      :     1.027980  p :     3.192172
      px      :     1.088931
      py      :     1.075260
      dz2     :     0.009667  d :     0.032224
      dxz     :     0.003373
      dyz     :     0.005381
      dx2y2   :     0.008557
      dxy     :     0.005246
      f0      :     0.000378  f :     0.001921
      f+1     :     0.000144
      f-1     :     0.000421
      f+2     :     0.000170
      f-2     :     0.000195
      f+3     :     0.000488
      f-3     :     0.000125

  1 P s       :     5.301762  s :     5.301762
      pz      :     2.632183  p :     8.268286
      px      :     2.818923
      py      :     2.817180
      dz2     :     0.140858  d :     0.701174
      dxz     :     0.189266
      dyz     :     0.178779
      dx2y2   :     0.103192
      dxy     :     0.089080
      f0      :     0.012505  f :     0.065986
      f+1     :     0.015567
      f-1     :     0.012077
      f+2     :     0.008197
      f-2     :     0.007854
      f+3     :     0.003275
      f-3     :     0.006511

  2 O s       :     3.867801  s :     3.867801
      pz      :     1.400452  p :     4.708766
      px      :     1.662669
      py      :     1.645646
      dz2     :     0.009270  d :     0.025006
      dxz     :     0.006819
      dyz     :     0.007417
      dx2y2   :     0.000746
      dxy     :     0.000755
      f0      :     0.000446  f :     0.001269
      f+1     :     0.000287
      f-1     :     0.000372
      f+2     :     0.000079
      f-2     :     0.000079
      f+3     :     0.000004
      f-3     :     0.000003

  3 C s       :     3.274815  s :     3.274815
      pz      :     1.063068  p :     3.192285
      px      :     1.090551
      py      :     1.038666
      dz2     :     0.008567  d :     0.032300
      dxz     :     0.002938
      dyz     :     0.006263
      dx2y2   :     0.008741
      dxy     :     0.005792
      f0      :     0.000439  f :     0.001918
      f+1     :     0.000171
      f-1     :     0.000325
      f+2     :     0.000128
      f-2     :     0.000183
      f+3     :     0.000465
      f-3     :     0.000206

  4 C s       :     3.217499  s :     3.217499
      pz      :     0.874601  p :     2.792582
      px      :     0.946774
      py      :     0.971207
      dz2     :     0.020117  d :     0.071395
      dxz     :     0.012212
      dyz     :     0.017184
      dx2y2   :     0.011919
      dxy     :     0.009963
      f0      :     0.001251  f :     0.006978
      f+1     :     0.001333
      f-1     :     0.000947
      f+2     :     0.001152
      f-2     :     0.000843
      f+3     :     0.000752
      f-3     :     0.000700

  5 C s       :     3.170559  s :     3.170559
      pz      :     0.928986  p :     2.933509
      px      :     1.037752
      py      :     0.966771
      dz2     :     0.012293  d :     0.068075
      dxz     :     0.022125
      dyz     :     0.011757
      dx2y2   :     0.007187
      dxy     :     0.014713
      f0      :     0.001076  f :     0.006532
      f+1     :     0.001200
      f-1     :     0.000806
      f+2     :     0.001170
      f-2     :     0.000497
      f+3     :     0.000676
      f-3     :     0.001107

  6 C s       :     3.235668  s :     3.235668
      pz      :     0.987538  p :     2.856800
      px      :     0.900756
      py      :     0.968506
      dz2     :     0.011984  d :     0.060186
      dxz     :     0.014901
      dyz     :     0.006373
      dx2y2   :     0.007420
      dxy     :     0.019508
      f0      :     0.000764  f :     0.006333
      f+1     :     0.001148
      f-1     :     0.000531
      f+2     :     0.001106
      f-2     :     0.000716
      f+3     :     0.000803
      f-3     :     0.001265

  7 C s       :     3.226258  s :     3.226258
      pz      :     0.896177  p :     2.842337
      px      :     1.000783
      py      :     0.945377
      dz2     :     0.014867  d :     0.061445
      dxz     :     0.014432
      dyz     :     0.015997
      dx2y2   :     0.009390
      dxy     :     0.006759
      f0      :     0.001180  f :     0.006278
      f+1     :     0.001200
      f-1     :     0.000874
      f+2     :     0.001015
      f-2     :     0.000796
      f+3     :     0.000763
      f-3     :     0.000449

  8 C s       :     3.224973  s :     3.224973
      pz      :     0.935670  p :     2.846528
      px      :     0.949973
      py      :     0.960886
      dz2     :     0.012677  d :     0.059885
      dxz     :     0.015036
      dyz     :     0.010997
      dx2y2   :     0.008418
      dxy     :     0.012757
      f0      :     0.001069  f :     0.006258
      f+1     :     0.001102
      f-1     :     0.000832
      f+2     :     0.001123
      f-2     :     0.000439
      f+3     :     0.000640
      f-3     :     0.001053

  9 C s       :     3.209014  s :     3.209014
      pz      :     1.032479  p :     2.870873
      px      :     0.906111
      py      :     0.932283
      dz2     :     0.012878  d :     0.063684
      dxz     :     0.016965
      dyz     :     0.006622
      dx2y2   :     0.006821
      dxy     :     0.020399
      f0      :     0.000707  f :     0.006468
      f+1     :     0.001337
      f-1     :     0.000470
      f+2     :     0.001081
      f-2     :     0.000740
      f+3     :     0.000899
      f-3     :     0.001233

 10 H s       :     0.812666  s :     0.812666
      pz      :     0.004172  p :     0.019624
      px      :     0.011434
      py      :     0.004018

 11 H s       :     0.827441  s :     0.827441
      pz      :     0.011309  p :     0.019419
      px      :     0.003708
      py      :     0.004402

 12 H s       :     0.803611  s :     0.803611
      pz      :     0.003871  p :     0.019838
      px      :     0.005031
      py      :     0.010937

 13 H s       :     0.803412  s :     0.803412
      pz      :     0.006482  p :     0.019838
      px      :     0.005167
      py      :     0.008190

 14 H s       :     0.827323  s :     0.827323
      pz      :     0.010701  p :     0.019425
      px      :     0.003703
      py      :     0.005020

 15 H s       :     0.812795  s :     0.812795
      pz      :     0.004042  p :     0.019621
      px      :     0.011414
      py      :     0.004164

 16 H s       :     0.826728  s :     0.826728
      pz      :     0.007595  p :     0.019511
      px      :     0.007691
      py      :     0.004225

 17 H s       :     0.833791  s :     0.833791
      pz      :     0.011783  p :     0.019710
      px      :     0.003362
      py      :     0.004566

 18 H s       :     0.831050  s :     0.831050
      pz      :     0.003436  p :     0.019640
      px      :     0.012513
      py      :     0.003691

 19 H s       :     0.829393  s :     0.829393
      pz      :     0.007556  p :     0.019729
      px      :     0.007986
      py      :     0.004188

 20 H s       :     0.782343  s :     0.782343
      pz      :     0.012308  p :     0.020762
      px      :     0.004197
      py      :     0.004258



                     *******************************
                     * LOEWDIN POPULATION ANALYSIS *
                     *******************************

----------------------
LOEWDIN ATOMIC CHARGES
----------------------
   0 C :   -0.426799
   1 P :    0.550888
   2 O :   -0.322321
   3 C :   -0.426774
   4 C :   -0.240756
   5 C :   -0.139901
   6 C :   -0.141987
   7 C :   -0.133214
   8 C :   -0.136087
   9 C :   -0.117897
  10 H :    0.131038
  11 H :    0.123734
  12 H :    0.135078
  13 H :    0.135088
  14 H :    0.123747
  15 H :    0.131007
  16 H :    0.146012
  17 H :    0.148418
  18 H :    0.148757
  19 H :    0.149679
  20 H :    0.162291

-------------------------------
LOEWDIN REDUCED ORBITAL CHARGES
-------------------------------
  0 C s       :     2.906756  s :     2.906756
      pz      :     1.109943  p :     3.334449
      px      :     1.107145
      py      :     1.117361
      dz2     :     0.048492  d :     0.171973
      dxz     :     0.019564
      dyz     :     0.033261
      dx2y2   :     0.043247
      dxy     :     0.027410
      f0      :     0.001812  f :     0.013621
      f+1     :     0.001629
      f-1     :     0.002395
      f+2     :     0.001871
      f-2     :     0.002224
      f+3     :     0.002891
      f-3     :     0.000800

  1 P s       :     4.665304  s :     4.665304
      pz      :     2.741326  p :     8.330234
      px      :     2.781752
      py      :     2.807156
      dz2     :     0.276554  d :     1.227766
      dxz     :     0.292042
      dyz     :     0.303992
      dx2y2   :     0.189306
      dxy     :     0.165872
      f0      :     0.046864  f :     0.225809
      f+1     :     0.048315
      f-1     :     0.043434
      f+2     :     0.027209
      f-2     :     0.025870
      f+3     :     0.012910
      f-3     :     0.021207

  2 O s       :     3.543059  s :     3.543059
      pz      :     1.538242  p :     4.735232
      px      :     1.597134
      py      :     1.599857
      dz2     :     0.020905  d :     0.041916
      dxz     :     0.007623
      dyz     :     0.011550
      dx2y2   :     0.000965
      dxy     :     0.000873
      f0      :     0.000843  f :     0.002113
      f+1     :     0.000356
      f-1     :     0.000674
      f+2     :     0.000125
      f-2     :     0.000100
      f+3     :     0.000007
      f-3     :     0.000008

  3 C s       :     2.906743  s :     2.906743
      pz      :     1.093317  p :     3.334431
      px      :     1.106464
      py      :     1.134651
      dz2     :     0.041958  d :     0.171984
      dxz     :     0.013719
      dyz     :     0.035151
      dx2y2   :     0.047885
      dxy     :     0.033271
      f0      :     0.002013  f :     0.013616
      f+1     :     0.001277
      f-1     :     0.001778
      f+2     :     0.001750
      f-2     :     0.002637
      f+3     :     0.002843
      f-3     :     0.001318

  4 C s       :     2.774515  s :     2.774515
      pz      :     1.048439  p :     2.992411
      px      :     1.042841
      py      :     0.901131
      dz2     :     0.123029  d :     0.430261
      dxz     :     0.125443
      dyz     :     0.072597
      dx2y2   :     0.067480
      dxy     :     0.041712
      f0      :     0.008057  f :     0.043569
      f+1     :     0.011187
      f-1     :     0.005053
      f+2     :     0.006650
      f-2     :     0.006290
      f+3     :     0.003466
      f-3     :     0.002866

  5 C s       :     2.774751  s :     2.774751
      pz      :     1.010408  p :     2.941131
      px      :     1.032122
      py      :     0.898600
      dz2     :     0.076575  d :     0.383125
      dxz     :     0.158200
      dyz     :     0.045055
      dx2y2   :     0.048308
      dxy     :     0.054986
      f0      :     0.008114  f :     0.040895
      f+1     :     0.009092
      f-1     :     0.005377
      f+2     :     0.006166
      f-2     :     0.002761
      f+3     :     0.004392
      f-3     :     0.004992

  6 C s       :     2.778158  s :     2.778158
      pz      :     0.989297  p :     2.949810
      px      :     1.060967
      py      :     0.899546
      dz2     :     0.094489  d :     0.373483
      dxz     :     0.111162
      dyz     :     0.025560
      dx2y2   :     0.067759
      dxy     :     0.074513
      f0      :     0.005385  f :     0.040536
      f+1     :     0.009655
      f-1     :     0.002442
      f+2     :     0.007036
      f-2     :     0.005624
      f+3     :     0.005670
      f-3     :     0.004724

  7 C s       :     2.779592  s :     2.779592
      pz      :     1.048618  p :     2.939199
      px      :     0.999226
      py      :     0.891356
      dz2     :     0.116068  d :     0.373989
      dxz     :     0.108178
      dyz     :     0.068341
      dx2y2   :     0.056872
      dxy     :     0.024530
      f0      :     0.007776  f :     0.040435
      f+1     :     0.010160
      f-1     :     0.005022
      f+2     :     0.005985
      f-2     :     0.006139
      f+3     :     0.003552
      f-3     :     0.001800

  8 C s       :     2.778425  s :     2.778425
      pz      :     1.018578  p :     2.945170
      px      :     1.030937
      py      :     0.895655
      dz2     :     0.076445  d :     0.372112
      dxz     :     0.153314
      dyz     :     0.042877
      dx2y2   :     0.047937
      dxy     :     0.051540
      f0      :     0.008069  f :     0.040380
      f+1     :     0.009000
      f-1     :     0.005281
      f+2     :     0.006165
      f-2     :     0.002742
      f+3     :     0.004389
      f-3     :     0.004734

  9 C s       :     2.777230  s :     2.777230
      pz      :     0.996941  p :     2.920490
      px      :     1.054013
      py      :     0.869535
      dz2     :     0.093853  d :     0.379233
      dxz     :     0.114132
      dyz     :     0.025511
      dx2y2   :     0.070296
      dxy     :     0.075441
      f0      :     0.005292  f :     0.040945
      f+1     :     0.009941
      f-1     :     0.002260
      f+2     :     0.007198
      f-2     :     0.005842
      f+3     :     0.005650
      f-3     :     0.004762

 10 H s       :     0.807174  s :     0.807174
      pz      :     0.013724  p :     0.061788
      px      :     0.034950
      py      :     0.013114

 11 H s       :     0.814671  s :     0.814671
      pz      :     0.033801  p :     0.061595
      px      :     0.012713
      py      :     0.015080

 12 H s       :     0.802928  s :     0.802928
      pz      :     0.012580  p :     0.061993
      px      :     0.016775
      py      :     0.032639

 13 H s       :     0.802905  s :     0.802905
      pz      :     0.020617  p :     0.062007
      px      :     0.017183
      py      :     0.024207

 14 H s       :     0.814637  s :     0.814637
      pz      :     0.033493  p :     0.061616
      px      :     0.012709
      py      :     0.015414

 15 H s       :     0.807210  s :     0.807210
      pz      :     0.013433  p :     0.061783
      px      :     0.034943
      py      :     0.013408

 16 H s       :     0.798194  s :     0.798194
      pz      :     0.021220  p :     0.055794
      px      :     0.021427
      py      :     0.013147

 17 H s       :     0.795678  s :     0.795678
      pz      :     0.030749  p :     0.055905
      px      :     0.011396
      py      :     0.013760

 18 H s       :     0.795450  s :     0.795450
      pz      :     0.011606  p :     0.055793
      px      :     0.032537
      py      :     0.011650

 19 H s       :     0.794416  s :     0.794416
      pz      :     0.021058  p :     0.055905
      px      :     0.022034
      py      :     0.012814

 20 H s       :     0.778829  s :     0.778829
      pz      :     0.032911  p :     0.058880
      px      :     0.012847
      py      :     0.013122



                      *****************************
                      * MAYER POPULATION ANALYSIS *
                      *****************************

  NA   - Mulliken gross atomic population
  ZA   - Total nuclear charge
  QA   - Mulliken gross atomic charge
  VA   - Mayer's total valence
  BVA  - Mayer's bonded valence
  FA   - Mayer's free valence

  ATOM       NA         ZA         QA         VA         BVA        FA
  0 C      6.5008     6.0000    -0.5008     3.7597     3.7597     0.0000
  1 P     14.3372    15.0000     0.6628     4.8796     4.8796    -0.0000
  2 O      8.6028     8.0000    -0.6028     1.9773     1.9773     0.0000
  3 C      6.5013     6.0000    -0.5013     3.7594     3.7594     0.0000
  4 C      6.0885     6.0000    -0.0885     3.7267     3.7267     0.0000
  5 C      6.1787     6.0000    -0.1787     3.9575     3.9575    -0.0000
  6 C      6.1590     6.0000    -0.1590     4.0246     4.0246     0.0000
  7 C      6.1363     6.0000    -0.1363     3.9409     3.9409     0.0000
  8 C      6.1376     6.0000    -0.1376     3.9145     3.9145    -0.0000
  9 C      6.1500     6.0000    -0.1500     3.9373     3.9373    -0.0000
 10 H      0.8323     1.0000     0.1677     0.9616     0.9616     0.0000
 11 H      0.8469     1.0000     0.1531     0.9566     0.9566     0.0000
 12 H      0.8234     1.0000     0.1766     0.9629     0.9629    -0.0000
 13 H      0.8233     1.0000     0.1767     0.9629     0.9629     0.0000
 14 H      0.8467     1.0000     0.1533     0.9564     0.9564     0.0000
 15 H      0.8324     1.0000     0.1676     0.9615     0.9615     0.0000
 16 H      0.8462     1.0000     0.1538     0.9623     0.9623    -0.0000
 17 H      0.8535     1.0000     0.1465     0.9661     0.9661    -0.0000
 18 H      0.8507     1.0000     0.1493     0.9632     0.9632     0.0000
 19 H      0.8491     1.0000     0.1509     0.9656     0.9656    -0.0000
 20 H      0.8031     1.0000     0.1969     0.9728     0.9728    -0.0000

  Mayer bond orders larger than 0.100000
B(  0-C ,  1-P ) :   0.9422 B(  0-C , 10-H ) :   0.9430 B(  0-C , 11-H ) :   0.9366 
B(  0-C , 12-H ) :   0.9441 B(  1-P ,  2-O ) :   1.9373 B(  1-P ,  3-C ) :   0.9424 
B(  1-P ,  4-C ) :   0.8984 B(  3-C , 13-H ) :   0.9442 B(  3-C , 14-H ) :   0.9365 
B(  3-C , 15-H ) :   0.9429 B(  4-C ,  5-C ) :   1.3774 B(  4-C ,  9-C ) :   1.4207 
B(  5-C ,  6-C ) :   1.5075 B(  5-C , 16-H ) :   0.9100 B(  6-C ,  7-C ) :   1.4380 
B(  6-C , 17-H ) :   0.9463 B(  7-C ,  8-C ) :   1.4396 B(  7-C , 18-H ) :   0.9452 
B(  8-C ,  9-C ) :   1.4286 B(  8-C , 19-H ) :   0.9479 B(  9-C , 20-H ) :   0.9082 


-------
TIMINGS
-------

Total SCF time: 0 days 0 hours 0 min 35 sec 

Total time                  ....      35.594 sec
Sum of individual times     ....      35.579 sec  (100.0%)

SCF preparation             ....       0.145 sec  (  0.4%)
Fock matrix formation       ....      34.478 sec  ( 96.9%)
  Startup                   ....       0.041 sec  (  0.1% of F)
  Split-RI-J                ....       2.263 sec  (  6.6% of F)
  Chain of spheres X        ....      23.133 sec  ( 67.1% of F)
  XC integration            ....       8.903 sec  ( 25.8% of F)
    Basis function eval.    ....       1.234 sec  ( 13.9% of XC)
    Density eval.           ....       3.357 sec  ( 37.7% of XC)
    XC-Functional eval.     ....       0.265 sec  (  3.0% of XC)
    XC-Potential eval.      ....       3.325 sec  ( 37.3% of XC)
Diagonalization             ....       0.000 sec  (  0.0%)
Density matrix formation    ....       0.097 sec  (  0.3%)
Total Energy calculation    ....       0.044 sec  (  0.1%)
Population analysis         ....       0.073 sec  (  0.2%)
Orbital Transformation      ....       0.105 sec  (  0.3%)
Orbital Orthonormalization  ....       0.000 sec  (  0.0%)
DIIS solution               ....       0.429 sec  (  1.2%)
SOSCF solution              ....       0.208 sec  (  0.6%)
Finished LeanSCF after  35.6 sec

Maximum memory used throughout the entire LEANSCF-calculation: 41.0 MB


-------------------------------------------------------------------------------
                          DFT DISPERSION CORRECTION                            
                                                                               
                              DFTD3 V3.1  Rev 1                                
                              USING zero damping                               
-------------------------------------------------------------------------------
The M062X functional is recognized
Active option DFTDOPT                   ...         3   

molecular C6(AA) [au] = 5421.105205 


            DFT-D V3
 parameters
 s6 scaling factor         :     1.0000 
 rs6 scaling factor        :     1.6190 
 s8 scaling factor         :     0.0000 
 rs8 scaling factor        :     1.0000 
 Damping factor alpha6     :    14.0000 
 Damping factor alpha8     :    16.0000 
 ad hoc parameters k1-k3   :    16.0000     1.3333    -4.0000 

 Edisp/kcal,au: -0.479000048043  -0.000763335084 
 E6   /kcal   :  -0.479000048 
 E8   /kcal   :  -0.000000000 
 % E8         :   0.000000000 

-------------------------   ----------------
Dispersion correction           -0.000763335
-------------------------   ----------------


-------------------------   --------------------
FINAL SINGLE POINT ENERGY      -728.063973662335
-------------------------   --------------------



           ************************************************************
           *        Program running with 6 parallel MPI-processes     *
           *              working on a common directory               *
           ************************************************************

------------------------------------------------------------------------------
                              ORCA PROPERTY CALCULATIONS
------------------------------------------------------------------------------

GBWName                                 ... data/single_point_PO_M06-2x/69597/69597.gbw
Number of atoms                         ...     21
Number of basis functions               ...    382
Max core memory                         ...   1024 MB

Electric properties:
Dipole moment                           ... YES
Quadrupole moment                       ...  NO
Static polarizability (Dipole/Dipole)   ...  NO
Static polarizability (Dipole/Quad.)    ...  NO
Static polarizability (Quad./Quad.)     ...  NO
Static polarizability (Velocity)        ...  NO

Atomic electric properties:
Dipole moment                           ...  NO
Quadrupole moment                       ...  NO
Static polarizability                   ...  NO

Choice of electric origin               ... Center of mass
Position of electric origin             ...     0.015576     0.179649    -0.579434

General magnetic properties:
Magnetizability                         ...  NO

EPR properties:
g-Tensor (aka g-matrix)                 ...  NO
Zero-Field splitting spin-orbit         ...  NO
Zero-field splitting spin-spin          ...  NO
Hyperfine couplings                     ...  NO (   0 nuclei)
Quadrupole couplings                    ...  NO (   0 nuclei)
Contact density                         ...  NO (   0 nuclei)

NMR properties:
Chemical shifts                         ...  NO (   0 nuclei)
Spin-rotation constants                 ...  NO (   0 nuclei)
Spin-spin couplings                     ...  NO (   0 nuclei,    0 pairs)

Choice of magnetic origin               ... GIAO
Position of magnetic origin             ...     0.000000     0.000000     0.000000

Properties with geometric perturbations:
SCF Hessian                             ...  NO
IR spectrum                             ...  NO
VCD spectrum                            ...  NO
X-ray spectroscopy properties:
SCF XES/XAS/RIXS spectra                ...  NO


-------------
DIPOLE MOMENT
-------------

Method             : SCF
Type of density    : Electron Density
Multiplicity       :   1
Irrep              :   0
Energy             :  -728.0632103272516815 Eh
Relativity type    : 
Basis              : AO
                                X                 Y                 Z
Electronic contribution:      1.982110294       1.252387811      -3.952013680
Nuclear contribution   :     -1.713757998      -1.748658719       5.566309691
                        -----------------------------------------
Total Dipole Moment    :      0.268352296      -0.496270908       1.614296011
                        -----------------------------------------
Magnitude (a.u.)       :      1.710043678
Magnitude (Debye)      :      4.346585601



--------------------
Rotational spectrum 
--------------------
 
Rotational constants in cm-1:             0.074199             0.025518             0.022587 
Rotational constants in MHz :          2224.436892           765.019547           677.139902 

Dipole components along the rotational axes: 
x,y,z [a.u.] :     0.701943     1.559331    -0.003542 
x,y,z [Debye]:     1.784198     3.963504    -0.009003 

 

Dipole moment calculation done in   0.0 sec 

Maximum memory used throughout the entire PROP-calculation: 20.6 MB

--------------------------------
SUGGESTED CITATIONS FOR THIS RUN
--------------------------------

Below you find a list of papers that are relevant to this ORCA run
We neither can nor want to force you to cite these papers, but we appreciate if you do
You receive ORCA, which is the product of decades of hard work by many enthusiastic individuals, for free
The only thing we kindly ask in return is that you cite our papers,
We deeply appreciate it, if you show your appreciation for ORCA by not just citing the generic ORCA reference.

Please note that relegating all ORCA citations to the supporting information does *not* help us.
SI sections are not indexed - citations you put there will not count into any citation statistics
But we need these citations in order to attract the funding resources that allow us to do what we are doing

Therefore, if you are a happy ORCA user, please consider citing a few of the papers listed below in the main body of your paper

In addition to the list printed below, the program has created the file data/single_point_PO_M06-2x/69597/69597.bibtex that contains the list in bibtex format
You can import this file easily into all common literature databanks and citation aid programs


List of essential papers. We consider these as the minimum necessary citations

  1. Neese,F.
     Software update: the ORCA program system, version 5.0
     WIRES Comput. Molec. Sci., 2022 12(1)e1606
     doi.org/10.1002/wcms.1606

List of papers to cite with high priority. The work reported in these papers was absolutely
necessary for this run to complete.
Our perspective: the developers of density functionals and basis sets usually get cited in chemistry papers
Good! But without the algorithms to do something with them, the functionals or basis sets would not do anything.
Hence, in our opinion, the algorithm design and method developments papers are equally worthy of getting cited

  1. Neese,F.
     An improvement of the resolution of the identity approximation for the formation of the Coulomb matrix
     J. Comp. Chem., 2003 24(14)1740-1747
     doi.org/10.1002/jcc.10318
  2. Neese,F.; Wennmohs,F.; Hansen,A.; Becker,U.
     Efficient, approximate and parallel Hartree-Fock and hybrid DFT calculations. A 'chain-of-spheres' algorithm for the Hartree-Fock exchange
     Chem. Phys., 2009 356(1-3)98-109
     doi.org/10.1016/j.chemphys.2008.10.036
  3. Helmich-Paris,B.; de Souza,B.; Neese,F.; Izsák,R.
     An improved chain of spheres for exchange algorithm
     J. Chem. Phys., 2021 155 104109
     doi.org/doi: 10.1063/5.0058766.
  4. Neese,F.
     The SHARK Integral Generation and Digestion System
     J. Comp. Chem., 2022  1-16
     doi.org/10.1002/jcc.26942
  5. Grimme,S.; Antony,J.; Ehrlich,S.; Krieg,H.
     A consistent and accurate ab initio parametrization of density functional dispersion correction (DFT-D) for the 94 elements H-Pu
     J. Chem. Phys., 2010 132 154104-XXXX
     doi.org/10.1063/1.3382344

List of suggested additional citations. These are papers that are important in the 'surrounding' of 
of this run, or papers that preceded the highly important papers. If you like your results we are grateful for a citation.

  1. Izsak,R.; Neese,F.
     An overlap fitted chain of spheres exchange method
     J. Chem. Phys., 2011 135 144105
     doi.org/10.1063/1.3646921
  2. Izsak,R.; Hansen,A.; Neese,F.
     The resolution of identity and chain of spheres approximations for the LPNO-CCSD singles Fock term
     Molec. Phys., 2012 110 2413-2417
     doi.org/10.1080/00268976.2012.687466
  3. Neese,F.
     The ORCA program system
     WIRES Comput. Molec. Sci., 2012 2(1)73-78
     doi.org/10.1002/wcms.81
  4. Izsak,R.; Neese,F.; Klopper,W.
     Robust fitting techniques in the chain of spheres approximation to the Fock exchange: The role of the complementary space
     J. Chem. Phys., 2013 139 
     doi.org/10.1063/1.4819264
  5. Neese,F.
     Software update: the ORCA program system, version 4.0
     WIRES Comput. Molec. Sci., 2018 8(1)1-6
     doi.org/10.1002/wcms.1327
  6. Neese,F.; Wennmohs,F.; Becker,U.; Riplinger,C.
     The ORCA quantum chemistry program package
     J. Chem. Phys., 2020 152 Art. No. L224108
     doi.org/10.1063/5.0004608

List of optional additional citations

  1. Neese,F.
     Approximate second-order SCF convergence for spin unrestricted wavefunctions
     Chem. Phys. Lett., 2000 325(1-3)93-98
     doi.org/10.1016/s0009-2614(00)00662-x

Timings for individual modules:

Sum of individual times          ...       38.288 sec (=   0.638 min)
Startup calculation              ...        1.664 sec (=   0.028 min)   4.3 %
SCF iterations                   ...       36.424 sec (=   0.607 min)  95.1 %
Property calculations            ...        0.200 sec (=   0.003 min)   0.5 %
                             ****ORCA TERMINATED NORMALLY****
TOTAL RUN TIME: 0 days 0 hours 0 minutes 38 seconds 529 msec
