
                                 *****************
                                 * O   R   C   A *
                                 *****************

                                            #,                                       
                                            ###                                      
                                            ####                                     
                                            #####                                    
                                            ######                                   
                                           ########,                                 
                                     ,,################,,,,,                         
                               ,,#################################,,                 
                          ,,##########################################,,             
                       ,#########################################, ''#####,          
                    ,#############################################,,   '####,        
                  ,##################################################,,,,####,       
                ,###########''''           ''''###############################       
              ,#####''   ,,,,##########,,,,          '''####'''          '####       
            ,##' ,,,,###########################,,,                        '##       
           ' ,,###''''                  '''############,,,                           
         ,,##''                                '''############,,,,        ,,,,,,###''
      ,#''                                            '''#######################'''  
     '                                                          ''''####''''         
             ,#######,   #######,   ,#######,      ##                                
            ,#'     '#,  ##    ##  ,#'     '#,    #''#        ,####,   ,####,        
            ##       ##  ##   ,#'  ##            #'  '#       #'       #'  '#        
            ##       ##  #######   ##           ,######,      #####,   #    #        
            '#,     ,#'  ##    ##  '#,     ,#' ,#      #,     #,   #   #,  ,#        
             '#######'   ##     ##  '#######'  #'      '#     '####' # '####'        



                #########################################################
                #                        -***-                          #
                #          Department of theory and spectroscopy        #
                #                                                       #
                #                      Frank Neese                      #
                #                                                       #
                #     Directorship, Architecture, Infrastructure        #
                #                    SHARK, DRIVERS                     #
                #        Core code/Algorithms in most modules           #
                #                                                       #
                #        Max Planck Institute fuer Kohlenforschung      #
                #                Kaiser Wilhelm Platz 1                 #
                #                 D-45470 Muelheim/Ruhr                 #
                #                      Germany                          #
                #                                                       #
                #                  All rights reserved                  #
                #                        -***-                          #
                #########################################################


                         Program Version 6.0.0  -   RELEASE   -


 With contributions from (in alphabetic order):
   Daniel Aravena         : Magnetic Suceptibility
   Michael Atanasov       : Ab Initio Ligand Field Theory (pilot matlab implementation)
   Alexander A. Auer      : GIAO ZORA, VPT2 properties, NMR spectrum
   Ute Becker             : All parallelization in ORCA, NUMFREQ, NUMCALC
   Giovanni Bistoni       : ED, misc. LED, open-shell LED, HFLD
   Martin Brehm           : Molecular dynamics
   Dmytro Bykov           : pre 5.0 version of the SCF Hessian
   Marcos Casanova-Páez   : Triplet and SCS-CIS(D). UHF-(DLPNO)-IP/EA/STEOM-CCSD. UHF-CVS-IP/STEOM-CCSD
   Vijay G. Chilkuri      : MRCI spin determinant printing, contributions to CSF-ICE
   Pauline Colinet        : FMM embedding
   Dipayan Datta          : RHF DLPNO-CCSD density
   Achintya Kumar Dutta   : EOM-CC, STEOM-CC
   Nicolas Foglia         : Exact transition moments, OPA infrastructure, MCD improvements
   Dmitry Ganyushin       : Spin-Orbit,Spin-Spin,Magnetic field MRCI
   Miquel Garcia          : C-PCM and meta-GGA Hessian, CCSD/C-PCM, Gaussian charge scheme
   Tiago L. C. Gouveia    : GS-ROHF, GS-ROCIS
   Yang Guo               : DLPNO-NEVPT2, F12-NEVPT2, CIM, IAO-localization
   Andreas Hansen         : Spin unrestricted coupled pair/coupled cluster methods
   Ingolf Harden          : AUTO-CI MPn and infrastructure 
   Benjamin Helmich-Paris : MC-RPA, TRAH-(SCF,CASSCF), AVAS, COSX integrals, SCF dyn. polar.
   Lee Huntington         : MR-EOM, pCC
   Robert Izsak           : Overlap fitted RIJCOSX, COSX-SCS-MP3, EOM
   Riya Kayal             : Wick's Theorem for AUTO-CI, AUTO-CI UHF-CCSDT
   Emily Kempfer          : AUTO-CI, RHF CISDT and CCSDT
   Christian Kollmar      : KDIIS, OOCD, Brueckner-CCSD(T), CCSD density, CASPT2, CASPT2-K, improved NEVPT2
   Axel Koslowski         : Symmetry handling
   Simone Kossmann        : Meta GGA functionals, TD-DFT gradient, OOMP2, (MP2 Hessian; deprecated post 5.0)
   Lucas Lang             : DCDCAS
   Marvin Lechner         : AUTO-CI (C++ implementation), FIC-MRCC
   Spencer Leger          : CASSCF response
   Dagmar Lenk            : GEPOL surface, SMD, ORCA-2-JSON
   Dimitrios Liakos       : Extrapolation schemes; Compound Job, initial MDCI parallelization
   Dimitrios Manganas     : Further ROCIS development; embedding schemes. LFT, Crystal Embedding
   Dimitrios Pantazis     : SARC Basis sets
   Anastasios Papadopoulos: AUTO-CI, single reference methods and gradients
   Taras Petrenko         : pre 6.0 DFT Hessian and TD-DFT gradient, (ASA, deprecated), ECA, 1-Electron XAS/XES, NRVS
   Peter Pinski           : DLPNO-MP2, DLPNO-MP2 Gradient
   Christoph Reimann      : Effective Core Potentials
   Marius Retegan         : Local ZFS, SOC
   Christoph Riplinger    : Optimizer, TS searches, QM/MM, DLPNO-CCSD(T), (RO)-DLPNO pert. Triples
   Michael Roemelt        : Original ROCIS implementation
   Masaaki Saitow         : Open-shell DLPNO-CCSD energy and density
   Barbara Sandhoefer     : DKH picture change effects
   Kantharuban Sivalingam : CASSCF convergence/infrastructure, NEVPT2 and variants, FIC-MRCI
   Bernardo de Souza      : ESD, SOC TD-DFT
   Georgi Stoychev        : AutoAux, RI-MP2 NMR, DLPNO-MP2 response, X2C
   Van Anh Tran           : RI-MP2 g-tensors
   Willem Van den Heuvel  : Paramagnetic NMR
   Zikuan Wang            : NOTCH, Electric field optimization 
   Frank Wennmohs         : Technical directorship and infrastructure
   Hang Xu                : AUTO-CI-Response properties 


 We gratefully acknowledge several colleagues who have allowed us to
 interface, adapt or use parts of their codes:
   Stefan Grimme, W. Hujo, H. Kruse, P. Pracht,  : VdW corrections, initial TS optimization,
                  C. Bannwarth, S. Ehlert,         DFT functionals, gCP, sTDA/sTD-DF
                  L. Wittmann, M. Mueller
   Ed Valeev, F. Pavosevic, A. Kumar             : LibInt (2-el integral package), F12 methods
   Garnet Chan, S. Sharma, J. Yang, R. Olivares  : DMRG
   Ulf Ekstrom                                   : XCFun DFT Library
   Mihaly Kallay                                 : mrcc  (arbitrary order and MRCC methods)
   Frank Weinhold                                : gennbo (NPA and NBO analysis)
   Simon Mueller                                 : openCOSMO-RS
   Christopher J. Cramer and Donald G. Truhlar   : smd solvation model
   Lars Goerigk                                  : TD-DFT with DH, B97 family of functionals
   V. Asgeirsson, H. Jonsson                     : NEB implementation
   FAccTs GmbH                                   : IRC, NEB, NEB-TS, DLPNO-Multilevel, CI-OPT
                                                   MM, QMMM, 2- and 3-layer-ONIOM, Crystal-QMMM,
                                                   LR-CPCM, SF, NACMEs, symmetry and pop. for TD-DFT,
                                                   nearIR, NL-DFT gradient (VV10), updates on ESD,
                                                   ML-optimized integration grids, MBIS, APM,
                                                   GOAT, DOCKER, SOLVATOR, interface openCOSMO-RS
   S Lehtola, MJT Oliveira, MAL Marques          : LibXC Library
   Liviu Ungur et al                             : ANISO software


 Your calculation uses the libint2 library for the computation of 2-el integrals
 For citations please refer to: http://libint.valeyev.net

 Your ORCA version has been built with support for libXC version: 6.2.2
 For citations please refer to: https://libxc.gitlab.io

 This ORCA versions uses:
   CBLAS   interface :  Fast vector & matrix operations
   LAPACKE interface :  Fast linear algebra routines
   Shared memory     :  Shared parallel matrices


Your calculation utilizes the atom-pairwise dispersion correction
with the zero-damping scheme (D30)


XCFun DFT library Copyright 2009-2010 Ulf Ekstrom and contributors.
See http://admol.org/xcfun for more information.
This is free software; see the source code for copying conditions.
There is ABSOLUTELY NO WARRANTY; not even for MERCHANTABILITY or FITNESS FOR A PARTICULAR PURPOSE.
For details see the documentation.
Scientific users of this library should cite U. Ekstrom, L. Visscher, R. Bast, A. J. Thorvaldsen and K. Ruud;
J.Chem.Theor.Comp. 2010, DOI: 10.1021/ct100117s
XCFun Version 0.99 

Warning: RI is on but no J-basis has been assigned. Assigning Def2/J (nothing to worry about!)
================================================================================

----- Orbital basis set information -----
Your calculation utilizes the basis: def2-TZVP
   F. Weigend and R. Ahlrichs, Phys. Chem. Chem. Phys. 7, 3297 (2005).

----- AuxJ basis set information -----
Your calculation utilizes the auxiliary basis: def2/J
   F. Weigend, Phys. Chem. Chem. Phys. 8, 1057 (2006).

================================================================================
                                        WARNINGS
                       Please study these warnings very carefully!
================================================================================

WARNING: Functional chosen is sensitive to the integration grid.
         DEFGRID3 seems to be a minimum grid for robust results!

================================================================================
                                       INPUT FILE
================================================================================
NAME = data/single_point_P_M06-2x/68983/68983.inp
|  1> ! RIJCOSX M062X def2-TZVP D3ZERO NormalSCF
|  2> %pal
|  3> nprocs 6
|  4> end
|  5> 
|  6> * xyz 0 1
|  7>   C          -1.25897397875734     -1.04603504610228     -0.12070875649392
|  8>   P          -0.06959626290546      0.14699174979208     -0.93002134543000
|  9>   C          -0.28435532506973      1.60069824466719      0.22482861689963
| 10>   C           1.53261412527309     -0.53193751015508     -0.24784305358946
| 11>   H          -1.08961779958016     -1.14364405025842      0.97320698480184
| 12>   H          -2.29959274909047     -0.70306548618536     -0.29170785495396
| 13>   H          -1.15456505379581     -2.04592776829049     -0.58876879550288
| 14>   H          -1.28549964526639      2.05148895737085      0.06899226161401
| 15>   H           0.47259849998754      2.37561984404034     -0.01239597320644
| 16>   H          -0.18239726835033      1.31651362349096      1.29426149911230
| 17>   H           2.36385717501035      0.15619611735702     -0.50333818412407
| 18>   H           1.50519392161601     -0.66613862748115      0.85489627448290
| 19>   H           1.75033336092870     -1.51076004824565     -0.72140267360994
| 20> **                         ****END OF INPUT****
================================================================================

                       ****************************
                       * Single Point Calculation *
                       ****************************

---------------------------------
CARTESIAN COORDINATES (ANGSTROEM)
---------------------------------
  C     -1.258974   -1.046035   -0.120709
  P     -0.069596    0.146992   -0.930021
  C     -0.284355    1.600698    0.224829
  C      1.532614   -0.531938   -0.247843
  H     -1.089618   -1.143644    0.973207
  H     -2.299593   -0.703065   -0.291708
  H     -1.154565   -2.045928   -0.588769
  H     -1.285500    2.051489    0.068992
  H      0.472598    2.375620   -0.012396
  H     -0.182397    1.316514    1.294261
  H      2.363857    0.156196   -0.503338
  H      1.505194   -0.666139    0.854896
  H      1.750333   -1.510760   -0.721403

----------------------------
CARTESIAN COORDINATES (A.U.)
----------------------------
  NO LB      ZA    FRAG     MASS         X           Y           Z
   0 C     6.0000    0    12.011   -2.379116   -1.976720   -0.228106
   1 P    15.0000    0    30.974   -0.131518    0.277774   -1.757486
   2 C     6.0000    0    12.011   -0.537354    3.024881    0.424865
   3 C     6.0000    0    12.011    2.896221   -1.005216   -0.468355
   4 H     1.0000    0     1.008   -2.059079   -2.161174    1.839095
   5 H     1.0000    0     1.008   -4.345601   -1.328601   -0.551248
   6 H     1.0000    0     1.008   -2.181812   -3.866243   -1.112612
   7 H     1.0000    0     1.008   -2.429242    3.876752    0.130376
   8 H     1.0000    0     1.008    0.893082    4.489271   -0.023425
   9 H     1.0000    0     1.008   -0.344681    2.487850    2.445800
  10 H     1.0000    0     1.008    4.467043    0.295168   -0.951171
  11 H     1.0000    0     1.008    2.844404   -1.258820    1.615520
  12 H     1.0000    0     1.008    3.307651   -2.854923   -1.363253

--------------------------------
INTERNAL COORDINATES (ANGSTROEM)
--------------------------------
 C      0   0   0     0.000000000000     0.00000000     0.00000000
 P      1   0   0     1.868935299388     0.00000000     0.00000000
 C      2   1   0     1.868973639064    98.96383719     0.00000000
 C      2   1   3     1.869061339244    98.95196421   100.61589264
 H      1   2   3     1.111242854723   112.66639106   309.72032766
 H      1   2   3     1.108943747840   109.45002623    70.88625194
 H      1   2   3     1.108948546874   109.44363838   188.56107315
 H      3   2   1     1.108957702598   109.45608251   289.18575928
 H      3   2   1     1.108944581390   109.44554672   171.50769621
 H      3   2   1     1.111234913869   112.65637323    50.35339793
 H      4   2   1     1.108950250812   109.45481059   188.54588782
 H      4   2   1     1.111213675734   112.63860662   309.70437009
 H      4   2   1     1.108942712841   109.45472026    70.85908414

---------------------------
INTERNAL COORDINATES (A.U.)
---------------------------
 C      0   0   0     0.000000000000     0.00000000     0.00000000
 P      1   0   0     3.531775877861     0.00000000     0.00000000
 C      2   1   0     3.531848329349    98.96383719     0.00000000
 C      2   1   3     3.532014058672    98.95196421   100.61589264
 H      1   2   3     2.099944663703   112.66639106   309.72032766
 H      1   2   3     2.095599981342   109.45002623    70.88625194
 H      1   2   3     2.095609050202   109.44363838   188.56107315
 H      3   2   1     2.095626352012   109.45608251   289.18575928
 H      3   2   1     2.095601556524   109.44554672   171.50769621
 H      3   2   1     2.099929657663   112.65637323    50.35339793
 H      4   2   1     2.095612270178   109.45481059   188.54588782
 H      4   2   1     2.099889523405   112.63860662   309.70437009
 H      4   2   1     2.095598025477   109.45472026    70.85908414

---------------------
BASIS SET INFORMATION
---------------------
There are 3 groups of distinct atoms

 Group   1 Type C   : 11s6p2d1f contracted to 5s3p2d1f pattern {62111/411/11/1}
 Group   2 Type P   : 14s9p3d1f contracted to 5s5p2d1f pattern {73211/51111/21/1}
 Group   3 Type H   : 5s1p contracted to 3s1p pattern {311/1}

Atom   0C    basis set group =>   1
Atom   1P    basis set group =>   2
Atom   2C    basis set group =>   1
Atom   3C    basis set group =>   1
Atom   4H    basis set group =>   3
Atom   5H    basis set group =>   3
Atom   6H    basis set group =>   3
Atom   7H    basis set group =>   3
Atom   8H    basis set group =>   3
Atom   9H    basis set group =>   3
Atom  10H    basis set group =>   3
Atom  11H    basis set group =>   3
Atom  12H    basis set group =>   3
---------------------------------
AUXILIARY/J BASIS SET INFORMATION
---------------------------------
There are 3 groups of distinct atoms

 Group   1 Type C   : 12s5p4d2f1g contracted to 6s4p3d1f1g pattern {711111/2111/211/2/1}
 Group   2 Type P   : 14s5p5d2f1g contracted to 8s4p3d1f1g pattern {71111111/2111/311/2/1}
 Group   3 Type H   : 5s2p1d contracted to 3s1p1d pattern {311/2/1}

Atom   0C    basis set group =>   1
Atom   1P    basis set group =>   2
Atom   2C    basis set group =>   1
Atom   3C    basis set group =>   1
Atom   4H    basis set group =>   3
Atom   5H    basis set group =>   3
Atom   6H    basis set group =>   3
Atom   7H    basis set group =>   3
Atom   8H    basis set group =>   3
Atom   9H    basis set group =>   3
Atom  10H    basis set group =>   3
Atom  11H    basis set group =>   3
Atom  12H    basis set group =>   3


           ************************************************************
           *        Program running with 6 parallel MPI-processes     *
           *              working on a common directory               *
           ************************************************************
------------------------------------------------------------------------------
                             ORCA STARTUP CALCULATIONS
                           -- RI-GTO INTEGRALS CHOSEN --
------------------------------------------------------------------------------
------------------------------------------------------------------------------
                   ___                                                        
                  /   \      - P O W E R E D   B Y -                         
                 /     \                                                     
                 |  |  |   _    _      __       _____    __    __             
                 |  |  |  | |  | |    /  \     |  _  \  |  |  /  |          
                  \  \/   | |  | |   /    \    | | | |  |  | /  /          
                 / \  \   | |__| |  /  /\  \   | |_| |  |  |/  /          
                |  |  |   |  __  | /  /__\  \  |    /   |      \           
                |  |  |   | |  | | |   __   |  |    \   |  |\   \          
                \     /   | |  | | |  |  |  |  | |\  \  |  | \   \       
                 \___/    |_|  |_| |__|  |__|  |_| \__\ |__|  \__/        
                                                                              
                      - O R C A' S   B I G   F R I E N D -                    
                                      &                                       
                       - I N T E G R A L  F E E D E R -                       
                                                                              
 v1 FN, 2020, v2 2021, v3 2022-2024                                           
------------------------------------------------------------------------------


----------------------
SHARK INTEGRAL PACKAGE
----------------------

Number of atoms                             ...     13
Number of basis functions                   ...    184
Number of shells                            ...     82
Maximum angular momentum                    ...      3
Integral batch strategy                     ... SHARK/LIBINT Hybrid
RI-J (if used) integral strategy            ... SPLIT-RIJ (Revised 2003 algorithm where possible)
Printlevel                                  ...      1
Contraction scheme used                     ... SEGMENTED contraction
Prescreening option                         ... SCHWARTZ
   Thresh                                   ... 1.000e-10
   Tcut                                     ... 1.000e-11
   Tpresel                                  ... 1.000e-11 
Coulomb Range Separation                    ... NOT USED
Exchange Range Separation                   ... NOT USED
Multipole approximations                    ... NOT USED
Finite Nucleus Model                        ... NOT USED
CABS basis                                  ... NOT available
Auxiliary Coulomb fitting basis             ... AVAILABLE
   # of basis functions in Aux-J            ...    297
   # of shells in Aux-J                     ...    107
   Maximum angular momentum in Aux-J        ...      4
Auxiliary J/K fitting basis                 ... NOT available
Auxiliary Correlation fitting basis         ... NOT available
Auxiliary 'external' fitting basis          ... NOT available

Checking pre-screening integrals            ... done (  0.0 sec) Dimension = 82
Check shell pair data                       ... done (  0.0 sec)
Shell pair information
Shell pair cut-off parameter TPreSel        ...   1.0e-11
Total number of shell pairs                 ...      3403
Shell pairs after pre-screening             ...      3274
Total number of primitive shell pairs       ...     10140
Primitive shell pairs kept                  ...      7674
          la=0 lb=0:   1047 shell pairs
          la=1 lb=0:   1048 shell pairs
          la=1 lb=1:    273 shell pairs
          la=2 lb=0:    364 shell pairs
          la=2 lb=1:    184 shell pairs
          la=2 lb=2:     36 shell pairs
          la=3 lb=0:    188 shell pairs
          la=3 lb=1:     92 shell pairs
          la=3 lb=2:     32 shell pairs
          la=3 lb=3:     10 shell pairs

Calculating one electron integrals          ... done (  0.0 sec)
Calculating RI/J V-Matrix + Cholesky decomp.... done (  0.0 sec)
Calculating Nuclear repulsion               ... done (  0.0 sec) ENN=    175.240120293895 Eh

Diagonalization of the overlap matrix:
Smallest eigenvalue                        ... 1.070e-03
Time for diagonalization                   ...    0.003 sec
Threshold for overlap eigenvalues          ... 1.000e-07
Number of eigenvalues below threshold      ... 0
Time for construction of square roots      ...    0.002 sec
Total time needed                          ...    0.007 sec

-------------------
DFT GRID GENERATION
-------------------

General Integration Accuracy     IntAcc      ... 4.388
Radial Grid Type                 RadialGrid  ... OptM3 with GC (2021)
Angular Grid (max. ang.)         AngularGrid ... 4 (Lebedev-302)
Angular grid pruning method      GridPruning ... 4 (adaptive)
Weight generation scheme         WeightScheme... mBecke (2022)
Basis function cutoff            BFCut       ... 1.0000e-10
Integration weight cutoff        WCut        ... 1.0000e-14
Partially contracted basis set               ... off
Rotationally invariant grid construction     ... off
Angular grids for H and He will be reduced by one unit

Total number of grid points                  ...    54595
Total number of batches                      ...      860
Average number of points per batch           ...       63
Average number of grid points per atom       ...     4200

--------------------
COSX GRID GENERATION
--------------------

GRIDX 1
-------
General Integration Accuracy     IntAcc      ... 3.816
Radial Grid Type                 RadialGrid  ... OptM3 with GC (2021)
Angular Grid (max. ang.)         AngularGrid ... 1 (Lebedev-50)
Angular grid pruning method      GridPruning ... 4 (adaptive)
Weight generation scheme         WeightScheme... mBecke (2022)
Basis function cutoff            BFCut       ... 1.0000e-10
Integration weight cutoff        WCut        ... 1.0000e-14
Partially contracted basis set               ... on
Rotationally invariant grid construction     ... off
Angular grids for H and He will be reduced by one unit

Total number of grid points                  ...     8062
Total number of batches                      ...       71
Average number of points per batch           ...      113
Average number of grid points per atom       ...      620
UseSFitting                                  ... on

GRIDX 2
-------
General Integration Accuracy     IntAcc      ... 4.020
Radial Grid Type                 RadialGrid  ... OptM3 with GC (2021)
Angular Grid (max. ang.)         AngularGrid ... 2 (Lebedev-110)
Angular grid pruning method      GridPruning ... 4 (adaptive)
Weight generation scheme         WeightScheme... mBecke (2022)
Basis function cutoff            BFCut       ... 1.0000e-10
Integration weight cutoff        WCut        ... 1.0000e-14
Partially contracted basis set               ... on
Rotationally invariant grid construction     ... off
Angular grids for H and He will be reduced by one unit

Total number of grid points                  ...    14397
Total number of batches                      ...      118
Average number of points per batch           ...      122
Average number of grid points per atom       ...     1107
UseSFitting                                  ... on

GRIDX 3
-------
General Integration Accuracy     IntAcc      ... 4.338
Radial Grid Type                 RadialGrid  ... OptM3 with GC (2021)
Angular Grid (max. ang.)         AngularGrid ... 3 (Lebedev-194)
Angular grid pruning method      GridPruning ... 4 (adaptive)
Weight generation scheme         WeightScheme... mBecke (2022)
Basis function cutoff            BFCut       ... 1.0000e-10
Integration weight cutoff        WCut        ... 1.0000e-14
Partially contracted basis set               ... on
Rotationally invariant grid construction     ... off
Angular grids for H and He will be reduced by one unit

Total number of grid points                  ...    31965
Total number of batches                      ...      256
Average number of points per batch           ...      124
Average number of grid points per atom       ...     2459
UseSFitting                                  ... on
Initializing property integral containers    ... done (  0.0 sec)

SHARK setup successfully completed in   0.7 seconds

Maximum memory used throughout the entire STARTUP-calculation: 18.0 MB


           ************************************************************
           *        Program running with 6 parallel MPI-processes     *
           *              working on a common directory               *
           ************************************************************
-------------------------------------------------------------------------------
                                 ORCA GUESS
                   Start orbitals & Density for SCF / CASSCF
-------------------------------------------------------------------------------

------------
SCF SETTINGS
------------
Hamiltonian:
 Density Functional     Method          .... DFT(GTOs)
 Exchange Functional    Exchange        .... M062X
 Correlation Functional Correlation     .... M062X
 Gradients option       PostSCFGGA      .... off
 Hybrid DFT is turned on
   Fraction HF Exchange ScalHFX         ....  0.540000
   Scaling of DF-GGA-X  ScalDFX         ....  0.460000
   Scaling of DF-GGA-C  ScalDFC         ....  1.000000
   Scaling of DF-LDA-C  ScalLDAC        ....  1.000000
   Perturbative correction              ....  0.000000
 RI-approximation to the Coulomb term is turned on
   Number of AuxJ basis functions       .... 297
   RIJ-COSX (HFX calculated with COS-X)).... on


General Settings:
 Integral files         IntName         .... data/single_point_P_M06-2x/68983/68983
 Hartree-Fock type      HFTyp           .... RHF
 Total Charge           Charge          ....    0
 Multiplicity           Mult            ....    1
 Number of Electrons    NEL             ....   42
 Basis Dimension        Dim             ....  184
 Nuclear Repulsion      ENuc            ....    175.2401202939 Eh

Convergence Acceleration:
 AO-DIIS                CNVDIIS         .... on
   Start iteration      DIISMaxIt       ....    12
   Startup error        DIISStart       ....  0.200000
   # of expansion vecs  DIISMaxEq       ....     5
   Bias factor          DIISBfac        ....   1.050
   Max. coefficient     DIISMaxC        ....  10.000
 MO-DIIS                CNVKDIIS        .... off
 Trust-Rad. Augm. Hess. CNVTRAH         .... auto
   Auto Start mean grad. ratio tolernc. ....  1.125000
   Auto Start start iteration           ....    50
   Auto Start num. interpolation iter.  ....    10
   Max. Number of Micro iterations      ....    24
   Max. Number of Macro iterations      .... Maxiter - #DIIS iter
   Number of Davidson start vectors     ....     2
   Converg. threshold    (grad. norm)   ....   5.000e-05
   Grad. Scal. Fac. for Micro threshold ....   0.100
   Minimum threshold for Micro iter.    ....   1.000e-02
   NR start threshold (gradient norm)   ....   1.000e-04
   Initial trust radius                 ....   0.400
   Minimum AH scaling param. (alpha)    ....   1.000
   Maximum AH scaling param. (alpha)    .... 1000.000
   Quad. conv. algorithm                .... NR
   White noise on init. David. guess    .... on
   Maximum white noise                  ....   0.010
   Pseudo random numbers                .... off
   Inactive MOs                         .... canonical
   Orbital update algorithm             .... Taylor
   Preconditioner                       .... Diag
   Full preconditioner red. dimension   ....   250
 SOSCF                  CNVSOSCF        .... on
   Start iteration      SOSCFMaxIt      ....   150
   Startup grad/error   SOSCFStart      ....  0.003300
   Hessian update       SOSCFHessUp     .... L-BFGS
 Level Shifting         CNVShift        .... on
   Level shift para.    LevelShift      ....    0.2500
   Turn off err/grad.   ShiftErr        ....    0.0010
 Zerner damping         CNVZerner       .... off
 Static damping         CNVDamp         .... on
   Fraction old density DampFac         ....    0.7000
   Max. Damping (<1)    DampMax         ....    0.9800
   Min. Damping (>=0)   DampMin         ....    0.0000
   Turn off err/grad.   DampErr         ....    0.1000

SCF Procedure:
 Maximum # iterations   MaxIter         ....   125
 SCF integral mode      SCFMode         .... Direct
   Integral package                     .... SHARK and LIBINT hybrid scheme
 Reset frequency        DirectResetFreq ....    20
 Integral Threshold     Thresh          ....  1.000e-10 Eh
 Primitive CutOff       TCut            ....  1.000e-11 Eh

Convergence Tolerance:
 Convergence Check Mode ConvCheckMode   .... Total+1el-Energy
 Convergence forced     ConvForced      .... 0
 Energy Change          TolE            ....  1.000e-06 Eh
 1-El. energy change                    ....  1.000e-03 Eh
 Orbital Gradient       TolG            ....  5.000e-05
 Orbital Rotation angle TolX            ....  5.000e-05
 DIIS Error             TolErr          ....  1.000e-05

------------------------------
INITIAL GUESS: MODEL POTENTIAL
------------------------------
Loading Hartree-Fock densities                     ... done
Calculating cut-offs                               ... done
Initializing the effective Hamiltonian             ... done
Setting up the integral package (SHARK)            ... done
Starting the Coulomb interaction                   ... done (   0.0 sec)
Making the grid                                    ... done (   0.1 sec)
Mapping shells                                     ... done
Starting the XC term evaluation                    ... done (   0.0 sec)
  promolecular density results
     # of electrons  =     41.995065071
     EX              =    -40.462124366
     EC              =     -1.419754369
     EX+EC           =    -41.881878735
Transforming the Hamiltonian                       ... done (   0.0 sec)
Diagonalizing the Hamiltonian                      ... done (   0.0 sec)
Back transforming the eigenvectors                 ... done (   0.0 sec)
Now organizing SCF variables                       ... done
                      ------------------
                      INITIAL GUESS DONE (   0.1 sec)
                      ------------------
             **** ENERGY FILE WAS UPDATED (data/single_point_P_M06-2x/68983/68983.en.tmp) ****
Finished Guess after   0.2 sec
Maximum memory used throughout the entire GUESS-calculation: 10.9 MB


           ************************************************************
           *        Program running with 6 parallel MPI-processes     *
           *              working on a common directory               *
           ************************************************************

-------------------------------------------------------------------------------------------
                                      ORCA LEAN-SCF
                              memory conserving SCF solver
-------------------------------------------------------------------------------------------

----------------------------------------D-I-I-S--------------------------------------------
Iteration    Energy (Eh)           Delta-E    RMSDP     MaxDP     DIISErr   Damp  Time(sec)
-------------------------------------------------------------------------------------------
               ***  Starting incremental Fock matrix formation  ***
    1    -460.8667637237099370     0.00e+00  1.54e-03  3.35e-02  1.97e-01  0.700   0.9
    2    -460.9522918578657027    -8.55e-02  1.22e-03  2.84e-02  1.09e-01  0.700   0.6
                               ***Turning on AO-DIIS***
    3    -460.9915093744911019    -3.92e-02  6.21e-04  1.87e-02  4.73e-02  0.700   0.6
    4    -461.0138092521741555    -2.23e-02  1.24e-03  4.15e-02  2.68e-02  0.000   0.6
    5    -461.0608393689791455    -4.70e-02  1.69e-04  1.01e-02  4.38e-03  0.000   0.5
                              *** Initializing SOSCF ***
---------------------------------------S-O-S-C-F--------------------------------------
Iteration    Energy (Eh)           Delta-E    RMSDP     MaxDP     MaxGrad    Time(sec)
--------------------------------------------------------------------------------------
    6    -461.0609581689921015    -1.19e-04  6.97e-05  4.13e-03  8.98e-04     0.6
               *** Restarting incremental Fock matrix formation ***
    7    -461.0609675879896940    -9.42e-06  5.81e-05  3.84e-03  3.59e-04     0.8
    8    -461.0609693276996950    -1.74e-06  2.73e-05  1.74e-03  1.13e-04     0.7
    9    -461.0609694503017408    -1.23e-07  6.70e-06  4.23e-04  4.12e-05     0.6
                 **** Energy Check signals convergence ****

               *****************************************************
               *                     SUCCESS                       *
               *           SCF CONVERGED AFTER   9 CYCLES          *
               *****************************************************

Recomputing exchange energy using gridx3       ... done (    0.990 sec)
Old exchange energy                            :    -22.314868529 Eh
New exchange energy                            :    -22.314866429 Eh
Exchange energy change after final integration :      0.000002100 Eh
Total energy after final integration           :   -461.060967350 Eh
             **** ENERGY FILE WAS UPDATED (data/single_point_P_M06-2x/68983/68983.en.tmp) ****

----------------
TOTAL SCF ENERGY
----------------

Total Energy       :       -461.06096735024545 Eh          -12546.10675 eV

Components:
Nuclear Repulsion  :        175.24012029389476 Eh            4768.52610 eV
Electronic Energy  :       -636.30108974419636 Eh          -17314.63291 eV
One Electron Energy:       -979.67542497319130 Eh          -26658.32360 eV
Two Electron Energy:        343.37433522899488 Eh            9343.69069 eV

Virial components:
Potential Energy   :       -920.58278658857284 Eh          -25050.33116 eV
Kinetic Energy     :        459.52181923832745 Eh           12504.22440 eV
Virial Ratio       :          2.00334945599421

DFT components:
N(Alpha)           :       21.000017856008 electrons
N(Beta)            :       21.000017856008 electrons
N(Total)           :       42.000035712016 electrons
E(XC)              :      -20.452667849930 Eh       

---------------
SCF CONVERGENCE
---------------

  Last Energy change         ...    1.2260e-07  Tolerance :   1.0000e-06
  Last MAX-Density change    ...    4.2341e-04  Tolerance :   1.0000e-05
  Last RMS-Density change    ...    6.7047e-06  Tolerance :   1.0000e-06
  Last DIIS Error            ...    8.9755e-04  Tolerance :   1.0000e-05
  Last Orbital Gradient      ...    4.1225e-05  Tolerance :   5.0000e-05
  Last Orbital Rotation      ...    9.4900e-05  Tolerance :   5.0000e-05


----------------
ORBITAL ENERGIES
----------------

  NO   OCC          E(Eh)            E(eV) 
   0   2.0000     -78.018340     -2122.9870 
   1   2.0000     -10.533798      -286.6392 
   2   2.0000     -10.533778      -286.6387 
   3   2.0000     -10.533722      -286.6372 
   4   2.0000      -6.833658      -185.9533 
   5   2.0000      -4.948220      -134.6479 
   6   2.0000      -4.947833      -134.6374 
   7   2.0000      -4.947825      -134.6372 
   8   2.0000      -0.844536       -22.9810 
   9   2.0000      -0.770986       -20.9796 
  10   2.0000      -0.770951       -20.9786 
  11   2.0000      -0.598124       -16.2758 
  12   2.0000      -0.498439       -13.5632 
  13   2.0000      -0.484787       -13.1917 
  14   2.0000      -0.484760       -13.1910 
  15   2.0000      -0.457142       -12.4395 
  16   2.0000      -0.457115       -12.4387 
  17   2.0000      -0.443515       -12.0686 
  18   2.0000      -0.374831       -10.1997 
  19   2.0000      -0.374798       -10.1988 
  20   2.0000      -0.276384        -7.5208 
  21   0.0000       0.063945         1.7400 
  22   0.0000       0.073313         1.9950 
  23   0.0000       0.073324         1.9953 
  24   0.0000       0.111288         3.0283 
  25   0.0000       0.128958         3.5091 
  26   0.0000       0.129387         3.5208 
  27   0.0000       0.129414         3.5215 
  28   0.0000       0.141726         3.8566 
  29   0.0000       0.141741         3.8570 
  30   0.0000       0.173897         4.7320 
  31   0.0000       0.173984         4.7344 
*Only the first 10 virtual orbitals were printed.

                    ********************************
                    * MULLIKEN POPULATION ANALYSIS *
                    ********************************

-----------------------
MULLIKEN ATOMIC CHARGES
-----------------------
   0 C :   -0.518529
   1 P :    0.192829
   2 C :   -0.518957
   3 C :   -0.517834
   4 H :    0.143643
   5 H :    0.155315
   6 H :    0.155139
   7 H :    0.155090
   8 H :    0.155337
   9 H :    0.143732
  10 H :    0.155150
  11 H :    0.143722
  12 H :    0.155364
Sum of atomic charges:    0.0000000

--------------------------------
MULLIKEN REDUCED ORBITAL CHARGES
--------------------------------
  0 C s       :     3.296054  s :     3.296054
      pz      :     1.051554  p :     3.180944
      px      :     1.065413
      py      :     1.063978
      dz2     :     0.013683  d :     0.039520
      dxz     :     0.003326
      dyz     :     0.007319
      dx2y2   :     0.010423
      dxy     :     0.004769
      f0      :     0.000587  f :     0.002011
      f+1     :     0.000269
      f-1     :     0.000164
      f+2     :     0.000125
      f-2     :     0.000163
      f+3     :     0.000259
      f-3     :     0.000443

  1 P s       :     5.689496  s :     5.689496
      pz      :     3.351910  p :     8.845926
      px      :     2.741432
      py      :     2.752583
      dz2     :     0.032075  d :     0.244972
      dxz     :     0.040386
      dyz     :     0.054204
      dx2y2   :     0.054884
      dxy     :     0.063422
      f0      :     0.002910  f :     0.026777
      f+1     :     0.002754
      f-1     :     0.003972
      f+2     :     0.004383
      f-2     :     0.005238
      f+3     :     0.004428
      f-3     :     0.003091

  2 C s       :     3.296341  s :     3.296341
      pz      :     1.038181  p :     3.181128
      px      :     1.090707
      py      :     1.052241
      dz2     :     0.016583  d :     0.039479
      dxz     :     0.002350
      dyz     :     0.005091
      dx2y2   :     0.004609
      dxy     :     0.010845
      f0      :     0.000469  f :     0.002009
      f+1     :     0.000077
      f-1     :     0.000512
      f+2     :     0.000138
      f-2     :     0.000121
      f+3     :     0.000260
      f-3     :     0.000432

  3 C s       :     3.295757  s :     3.295757
      pz      :     1.055391  p :     3.180552
      px      :     1.043024
      py      :     1.082136
      dz2     :     0.012787  d :     0.039517
      dxz     :     0.005690
      dyz     :     0.005928
      dx2y2   :     0.006352
      dxy     :     0.008761
      f0      :     0.000663  f :     0.002009
      f+1     :     0.000243
      f-1     :     0.000109
      f+2     :     0.000162
      f-2     :     0.000124
      f+3     :     0.000287
      f-3     :     0.000419

  4 H s       :     0.837330  s :     0.837330
      pz      :     0.011186  p :     0.019027
      px      :     0.003924
      py      :     0.003916

  5 H s       :     0.825518  s :     0.825518
      pz      :     0.003853  p :     0.019167
      px      :     0.010792
      py      :     0.004522

  6 H s       :     0.825686  s :     0.825686
      pz      :     0.004926  p :     0.019175
      px      :     0.003998
      py      :     0.010252

  7 H s       :     0.825747  s :     0.825747
      pz      :     0.003903  p :     0.019163
      px      :     0.009701
      py      :     0.005559

  8 H s       :     0.825510  s :     0.825510
      pz      :     0.004077  p :     0.019153
      px      :     0.007019
      py      :     0.008058

  9 H s       :     0.837245  s :     0.837245
      pz      :     0.011126  p :     0.019023
      px      :     0.003557
      py      :     0.004341

 10 H s       :     0.825666  s :     0.825666
      pz      :     0.004035  p :     0.019184
      px      :     0.008715
      py      :     0.006435

 11 H s       :     0.837245  s :     0.837245
      pz      :     0.011221  p :     0.019034
      px      :     0.004077
      py      :     0.003735

 12 H s       :     0.825469  s :     0.825469
      pz      :     0.004945  p :     0.019168
      px      :     0.004596
      py      :     0.009627



                     *******************************
                     * LOEWDIN POPULATION ANALYSIS *
                     *******************************

----------------------
LOEWDIN ATOMIC CHARGES
----------------------
   0 C :   -0.496637
   1 P :    0.449529
   2 C :   -0.496766
   3 C :   -0.496556
   4 H :    0.109374
   5 H :    0.118719
   6 H :    0.118729
   7 H :    0.118709
   8 H :    0.118709
   9 H :    0.109379
  10 H :    0.118696
  11 H :    0.109401
  12 H :    0.118714

-------------------------------
LOEWDIN REDUCED ORBITAL CHARGES
-------------------------------
  0 C s       :     2.922091  s :     2.922091
      pz      :     1.116045  p :     3.355176
      px      :     1.118574
      py      :     1.120556
      dz2     :     0.060352  d :     0.204553
      dxz     :     0.022452
      dyz     :     0.040116
      dx2y2   :     0.051669
      dxy     :     0.029964
      f0      :     0.002821  f :     0.014817
      f+1     :     0.002057
      f-1     :     0.000959
      f+2     :     0.002428
      f-2     :     0.002549
      f+3     :     0.001454
      f-3     :     0.002549

  1 P s       :     5.002363  s :     5.002363
      pz      :     3.351497  p :     8.929555
      px      :     2.783558
      py      :     2.794500
      dz2     :     0.081211  d :     0.515835
      dxz     :     0.079570
      dyz     :     0.105320
      dx2y2   :     0.117270
      dxy     :     0.132464
      f0      :     0.009077  f :     0.102718
      f+1     :     0.009418
      f-1     :     0.014598
      f+2     :     0.017502
      f-2     :     0.020821
      f+3     :     0.016331
      f-3     :     0.014970

  2 C s       :     2.922140  s :     2.922140
      pz      :     1.127431  p :     3.355262
      px      :     1.100799
      py      :     1.127032
      dz2     :     0.075529  d :     0.204549
      dxz     :     0.008673
      dyz     :     0.043274
      dx2y2   :     0.024597
      dxy     :     0.052475
      f0      :     0.002005  f :     0.014816
      f+1     :     0.001696
      f-1     :     0.003221
      f+2     :     0.002133
      f-2     :     0.001741
      f+3     :     0.001512
      f-3     :     0.002508

  3 C s       :     2.922099  s :     2.922099
      pz      :     1.112680  p :     3.355076
      px      :     1.135237
      py      :     1.107160
      dz2     :     0.056949  d :     0.204566
      dxz     :     0.038533
      dyz     :     0.025880
      dx2y2   :     0.035163
      dxy     :     0.048041
      f0      :     0.003214  f :     0.014815
      f+1     :     0.001608
      f-1     :     0.000648
      f+2     :     0.002967
      f-2     :     0.002419
      f+3     :     0.001615
      f-3     :     0.002344

  4 H s       :     0.829439  s :     0.829439
      pz      :     0.035362  p :     0.061187
      px      :     0.013034
      py      :     0.012791

  5 H s       :     0.820105  s :     0.820105
      pz      :     0.012733  p :     0.061176
      px      :     0.033273
      py      :     0.015170

  6 H s       :     0.820106  s :     0.820106
      pz      :     0.016292  p :     0.061165
      px      :     0.013289
      py      :     0.031584

  7 H s       :     0.820124  s :     0.820124
      pz      :     0.012837  p :     0.061167
      px      :     0.031023
      py      :     0.017307

  8 H s       :     0.820119  s :     0.820119
      pz      :     0.013447  p :     0.061172
      px      :     0.023008
      py      :     0.024717

  9 H s       :     0.829430  s :     0.829430
      pz      :     0.034794  p :     0.061191
      px      :     0.012122
      py      :     0.014274

 10 H s       :     0.820129  s :     0.820129
      pz      :     0.013365  p :     0.061175
      px      :     0.026469
      py      :     0.021341

 11 H s       :     0.829406  s :     0.829406
      pz      :     0.035604  p :     0.061193
      px      :     0.013093
      py      :     0.012496

 12 H s       :     0.820113  s :     0.820113
      pz      :     0.016347  p :     0.061173
      px      :     0.014492
      py      :     0.030334



                      *****************************
                      * MAYER POPULATION ANALYSIS *
                      *****************************

  NA   - Mulliken gross atomic population
  ZA   - Total nuclear charge
  QA   - Mulliken gross atomic charge
  VA   - Mayer's total valence
  BVA  - Mayer's bonded valence
  FA   - Mayer's free valence

  ATOM       NA         ZA         QA         VA         BVA        FA
  0 C      6.5185     6.0000    -0.5185     3.8161     3.8161     0.0000
  1 P     14.8072    15.0000     0.1928     3.0175     3.0175    -0.0000
  2 C      6.5190     6.0000    -0.5190     3.8156     3.8156     0.0000
  3 C      6.5178     6.0000    -0.5178     3.8163     3.8163    -0.0000
  4 H      0.8564     1.0000     0.1436     0.9564     0.9564     0.0000
  5 H      0.8447     1.0000     0.1553     0.9598     0.9598     0.0000
  6 H      0.8449     1.0000     0.1551     0.9598     0.9598     0.0000
  7 H      0.8449     1.0000     0.1551     0.9598     0.9598     0.0000
  8 H      0.8447     1.0000     0.1553     0.9597     0.9597     0.0000
  9 H      0.8563     1.0000     0.1437     0.9565     0.9565     0.0000
 10 H      0.8448     1.0000     0.1552     0.9598     0.9598     0.0000
 11 H      0.8563     1.0000     0.1437     0.9564     0.9564    -0.0000
 12 H      0.8446     1.0000     0.1554     0.9598     0.9598    -0.0000

  Mayer bond orders larger than 0.100000
B(  0-C ,  1-P ) :   0.9795 B(  0-C ,  4-H ) :   0.9512 B(  0-C ,  5-H ) :   0.9538 
B(  0-C ,  6-H ) :   0.9538 B(  1-P ,  2-C ) :   0.9787 B(  1-P ,  3-C ) :   0.9794 
B(  2-C ,  7-H ) :   0.9539 B(  2-C ,  8-H ) :   0.9537 B(  2-C ,  9-H ) :   0.9512 
B(  3-C , 10-H ) :   0.9538 B(  3-C , 11-H ) :   0.9512 B(  3-C , 12-H ) :   0.9539 


-------
TIMINGS
-------

Total SCF time: 0 days 0 hours 0 min 7 sec 

Total time                  ....       7.062 sec
Sum of individual times     ....       7.044 sec  ( 99.7%)

SCF preparation             ....       0.084 sec  (  1.2%)
Fock matrix formation       ....       6.708 sec  ( 95.0%)
  Startup                   ....       0.019 sec  (  0.3% of F)
  Split-RI-J                ....       0.380 sec  (  5.7% of F)
  Chain of spheres X        ....       4.018 sec  ( 59.9% of F)
  XC integration            ....       2.224 sec  ( 33.2% of F)
    Basis function eval.    ....       0.326 sec  ( 14.7% of XC)
    Density eval.           ....       0.740 sec  ( 33.3% of XC)
    XC-Functional eval.     ....       0.102 sec  (  4.6% of XC)
    XC-Potential eval.      ....       0.808 sec  ( 36.3% of XC)
Diagonalization             ....       0.000 sec  (  0.0%)
Density matrix formation    ....       0.040 sec  (  0.6%)
Total Energy calculation    ....       0.021 sec  (  0.3%)
Population analysis         ....       0.025 sec  (  0.4%)
Orbital Transformation      ....       0.021 sec  (  0.3%)
Orbital Orthonormalization  ....       0.000 sec  (  0.0%)
DIIS solution               ....       0.107 sec  (  1.5%)
SOSCF solution              ....       0.038 sec  (  0.5%)
Finished LeanSCF after   7.1 sec

Maximum memory used throughout the entire LEANSCF-calculation: 16.9 MB


-------------------------------------------------------------------------------
                          DFT DISPERSION CORRECTION                            
                                                                               
                              DFTD3 V3.1  Rev 1                                
                              USING zero damping                               
-------------------------------------------------------------------------------
The M062X functional is recognized
Active option DFTDOPT                   ...         3   

molecular C6(AA) [au] = 1663.834654 


            DFT-D V3
 parameters
 s6 scaling factor         :     1.0000 
 rs6 scaling factor        :     1.6190 
 s8 scaling factor         :     0.0000 
 rs8 scaling factor        :     1.0000 
 Damping factor alpha6     :    14.0000 
 Damping factor alpha8     :    16.0000 
 ad hoc parameters k1-k3   :    16.0000     1.3333    -4.0000 

 Edisp/kcal,au: -0.112388857393  -0.000179103026 
 E6   /kcal   :  -0.112388857 
 E8   /kcal   :  -0.000000000 
 % E8         :   0.000000000 

-------------------------   ----------------
Dispersion correction           -0.000179103
-------------------------   ----------------


-------------------------   --------------------
FINAL SINGLE POINT ENERGY      -461.061146453271
-------------------------   --------------------



           ************************************************************
           *        Program running with 6 parallel MPI-processes     *
           *              working on a common directory               *
           ************************************************************

------------------------------------------------------------------------------
                              ORCA PROPERTY CALCULATIONS
------------------------------------------------------------------------------

GBWName                                 ... data/single_point_P_M06-2x/68983/68983.gbw
Number of atoms                         ...     13
Number of basis functions               ...    184
Max core memory                         ...   1024 MB

Electric properties:
Dipole moment                           ... YES
Quadrupole moment                       ...  NO
Static polarizability (Dipole/Dipole)   ...  NO
Static polarizability (Dipole/Quad.)    ...  NO
Static polarizability (Quad./Quad.)     ...  NO
Static polarizability (Velocity)        ...  NO

Atomic electric properties:
Dipole moment                           ...  NO
Quadrupole moment                       ...  NO
Static polarizability                   ...  NO

Choice of electric origin               ... Center of mass
Position of electric origin             ...    -0.054731     0.115621    -0.731519

General magnetic properties:
Magnetizability                         ...  NO

EPR properties:
g-Tensor (aka g-matrix)                 ...  NO
Zero-Field splitting spin-orbit         ...  NO
Zero-field splitting spin-spin          ...  NO
Hyperfine couplings                     ...  NO (   0 nuclei)
Quadrupole couplings                    ...  NO (   0 nuclei)
Contact density                         ...  NO (   0 nuclei)

NMR properties:
Chemical shifts                         ...  NO (   0 nuclei)
Spin-rotation constants                 ...  NO (   0 nuclei)
Spin-spin couplings                     ...  NO (   0 nuclei,    0 pairs)

Choice of magnetic origin               ... GIAO
Position of magnetic origin             ...     0.000000     0.000000     0.000000

Properties with geometric perturbations:
SCF Hessian                             ...  NO
IR spectrum                             ...  NO
VCD spectrum                            ...  NO
X-ray spectroscopy properties:
SCF XES/XAS/RIXS spectra                ...  NO


-------------
DIPOLE MOMENT
-------------

Method             : SCF
Type of density    : Electron Density
Multiplicity       :   1
Irrep              :   0
Energy             :  -461.0609673502454484 Eh
Relativity type    : 
Basis              : AO
                                X                 Y                 Z
Electronic contribution:     -0.323636579       0.683108702      -4.325355488
Nuclear contribution   :      0.356197172      -0.752504876       4.760993001
                        -----------------------------------------
Total Dipole Moment    :      0.032560592      -0.069396174       0.435637513
                        -----------------------------------------
Magnitude (a.u.)       :      0.442330266
Magnitude (Debye)      :      1.124314184



--------------------
Rotational spectrum 
--------------------
 
Rotational constants in cm-1:             0.188525             0.188491             0.121491 
Rotational constants in MHz :          5651.840042          5650.830708          3642.214491 

Dipole components along the rotational axes: 
x,y,z [a.u.] :    -0.000447    -0.000313     0.442330 
x,y,z [Debye]:    -0.001137    -0.000797     1.124313 

 

Dipole moment calculation done in   0.0 sec 

Maximum memory used throughout the entire PROP-calculation: 8.1 MB

--------------------------------
SUGGESTED CITATIONS FOR THIS RUN
--------------------------------

Below you find a list of papers that are relevant to this ORCA run
We neither can nor want to force you to cite these papers, but we appreciate if you do
You receive ORCA, which is the product of decades of hard work by many enthusiastic individuals, for free
The only thing we kindly ask in return is that you cite our papers,
We deeply appreciate it, if you show your appreciation for ORCA by not just citing the generic ORCA reference.

Please note that relegating all ORCA citations to the supporting information does *not* help us.
SI sections are not indexed - citations you put there will not count into any citation statistics
But we need these citations in order to attract the funding resources that allow us to do what we are doing

Therefore, if you are a happy ORCA user, please consider citing a few of the papers listed below in the main body of your paper

In addition to the list printed below, the program has created the file data/single_point_P_M06-2x/68983/68983.bibtex that contains the list in bibtex format
You can import this file easily into all common literature databanks and citation aid programs


List of essential papers. We consider these as the minimum necessary citations

  1. Neese,F.
     Software update: the ORCA program system, version 5.0
     WIRES Comput. Molec. Sci., 2022 12(1)e1606
     doi.org/10.1002/wcms.1606

List of papers to cite with high priority. The work reported in these papers was absolutely
necessary for this run to complete.
Our perspective: the developers of density functionals and basis sets usually get cited in chemistry papers
Good! But without the algorithms to do something with them, the functionals or basis sets would not do anything.
Hence, in our opinion, the algorithm design and method developments papers are equally worthy of getting cited

  1. Neese,F.
     An improvement of the resolution of the identity approximation for the formation of the Coulomb matrix
     J. Comp. Chem., 2003 24(14)1740-1747
     doi.org/10.1002/jcc.10318
  2. Neese,F.; Wennmohs,F.; Hansen,A.; Becker,U.
     Efficient, approximate and parallel Hartree-Fock and hybrid DFT calculations. A 'chain-of-spheres' algorithm for the Hartree-Fock exchange
     Chem. Phys., 2009 356(1-3)98-109
     doi.org/10.1016/j.chemphys.2008.10.036
  3. Helmich-Paris,B.; de Souza,B.; Neese,F.; Izsák,R.
     An improved chain of spheres for exchange algorithm
     J. Chem. Phys., 2021 155 104109
     doi.org/doi: 10.1063/5.0058766.
  4. Neese,F.
     The SHARK Integral Generation and Digestion System
     J. Comp. Chem., 2022  1-16
     doi.org/10.1002/jcc.26942
  5. Grimme,S.; Antony,J.; Ehrlich,S.; Krieg,H.
     A consistent and accurate ab initio parametrization of density functional dispersion correction (DFT-D) for the 94 elements H-Pu
     J. Chem. Phys., 2010 132 154104-XXXX
     doi.org/10.1063/1.3382344

List of suggested additional citations. These are papers that are important in the 'surrounding' of 
of this run, or papers that preceded the highly important papers. If you like your results we are grateful for a citation.

  1. Izsak,R.; Neese,F.
     An overlap fitted chain of spheres exchange method
     J. Chem. Phys., 2011 135 144105
     doi.org/10.1063/1.3646921
  2. Izsak,R.; Hansen,A.; Neese,F.
     The resolution of identity and chain of spheres approximations for the LPNO-CCSD singles Fock term
     Molec. Phys., 2012 110 2413-2417
     doi.org/10.1080/00268976.2012.687466
  3. Neese,F.
     The ORCA program system
     WIRES Comput. Molec. Sci., 2012 2(1)73-78
     doi.org/10.1002/wcms.81
  4. Izsak,R.; Neese,F.; Klopper,W.
     Robust fitting techniques in the chain of spheres approximation to the Fock exchange: The role of the complementary space
     J. Chem. Phys., 2013 139 
     doi.org/10.1063/1.4819264
  5. Neese,F.
     Software update: the ORCA program system, version 4.0
     WIRES Comput. Molec. Sci., 2018 8(1)1-6
     doi.org/10.1002/wcms.1327
  6. Neese,F.; Wennmohs,F.; Becker,U.; Riplinger,C.
     The ORCA quantum chemistry program package
     J. Chem. Phys., 2020 152 Art. No. L224108
     doi.org/10.1063/5.0004608

List of optional additional citations

  1. Neese,F.
     Approximate second-order SCF convergence for spin unrestricted wavefunctions
     Chem. Phys. Lett., 2000 325(1-3)93-98
     doi.org/10.1016/s0009-2614(00)00662-x

Timings for individual modules:

Sum of individual times          ...        8.315 sec (=   0.139 min)
Startup calculation              ...        0.755 sec (=   0.013 min)   9.1 %
SCF iterations                   ...        7.433 sec (=   0.124 min)  89.4 %
Property calculations            ...        0.127 sec (=   0.002 min)   1.5 %
                             ****ORCA TERMINATED NORMALLY****
TOTAL RUN TIME: 0 days 0 hours 0 minutes 8 seconds 543 msec
