
                                 *****************
                                 * O   R   C   A *
                                 *****************

                                            #,                                       
                                            ###                                      
                                            ####                                     
                                            #####                                    
                                            ######                                   
                                           ########,                                 
                                     ,,################,,,,,                         
                               ,,#################################,,                 
                          ,,##########################################,,             
                       ,#########################################, ''#####,          
                    ,#############################################,,   '####,        
                  ,##################################################,,,,####,       
                ,###########''''           ''''###############################       
              ,#####''   ,,,,##########,,,,          '''####'''          '####       
            ,##' ,,,,###########################,,,                        '##       
           ' ,,###''''                  '''############,,,                           
         ,,##''                                '''############,,,,        ,,,,,,###''
      ,#''                                            '''#######################'''  
     '                                                          ''''####''''         
             ,#######,   #######,   ,#######,      ##                                
            ,#'     '#,  ##    ##  ,#'     '#,    #''#        ,####,   ,####,        
            ##       ##  ##   ,#'  ##            #'  '#       #'       #'  '#        
            ##       ##  #######   ##           ,######,      #####,   #    #        
            '#,     ,#'  ##    ##  '#,     ,#' ,#      #,     #,   #   #,  ,#        
             '#######'   ##     ##  '#######'  #'      '#     '####' # '####'        



                #########################################################
                #                        -***-                          #
                #          Department of theory and spectroscopy        #
                #                                                       #
                #                      Frank Neese                      #
                #                                                       #
                #     Directorship, Architecture, Infrastructure        #
                #                    SHARK, DRIVERS                     #
                #        Core code/Algorithms in most modules           #
                #                                                       #
                #        Max Planck Institute fuer Kohlenforschung      #
                #                Kaiser Wilhelm Platz 1                 #
                #                 D-45470 Muelheim/Ruhr                 #
                #                      Germany                          #
                #                                                       #
                #                  All rights reserved                  #
                #                        -***-                          #
                #########################################################


                         Program Version 6.0.0  -   RELEASE   -


 With contributions from (in alphabetic order):
   Daniel Aravena         : Magnetic Suceptibility
   Michael Atanasov       : Ab Initio Ligand Field Theory (pilot matlab implementation)
   Alexander A. Auer      : GIAO ZORA, VPT2 properties, NMR spectrum
   Ute Becker             : All parallelization in ORCA, NUMFREQ, NUMCALC
   Giovanni Bistoni       : ED, misc. LED, open-shell LED, HFLD
   Martin Brehm           : Molecular dynamics
   Dmytro Bykov           : pre 5.0 version of the SCF Hessian
   Marcos Casanova-Páez   : Triplet and SCS-CIS(D). UHF-(DLPNO)-IP/EA/STEOM-CCSD. UHF-CVS-IP/STEOM-CCSD
   Vijay G. Chilkuri      : MRCI spin determinant printing, contributions to CSF-ICE
   Pauline Colinet        : FMM embedding
   Dipayan Datta          : RHF DLPNO-CCSD density
   Achintya Kumar Dutta   : EOM-CC, STEOM-CC
   Nicolas Foglia         : Exact transition moments, OPA infrastructure, MCD improvements
   Dmitry Ganyushin       : Spin-Orbit,Spin-Spin,Magnetic field MRCI
   Miquel Garcia          : C-PCM and meta-GGA Hessian, CCSD/C-PCM, Gaussian charge scheme
   Tiago L. C. Gouveia    : GS-ROHF, GS-ROCIS
   Yang Guo               : DLPNO-NEVPT2, F12-NEVPT2, CIM, IAO-localization
   Andreas Hansen         : Spin unrestricted coupled pair/coupled cluster methods
   Ingolf Harden          : AUTO-CI MPn and infrastructure 
   Benjamin Helmich-Paris : MC-RPA, TRAH-(SCF,CASSCF), AVAS, COSX integrals, SCF dyn. polar.
   Lee Huntington         : MR-EOM, pCC
   Robert Izsak           : Overlap fitted RIJCOSX, COSX-SCS-MP3, EOM
   Riya Kayal             : Wick's Theorem for AUTO-CI, AUTO-CI UHF-CCSDT
   Emily Kempfer          : AUTO-CI, RHF CISDT and CCSDT
   Christian Kollmar      : KDIIS, OOCD, Brueckner-CCSD(T), CCSD density, CASPT2, CASPT2-K, improved NEVPT2
   Axel Koslowski         : Symmetry handling
   Simone Kossmann        : Meta GGA functionals, TD-DFT gradient, OOMP2, (MP2 Hessian; deprecated post 5.0)
   Lucas Lang             : DCDCAS
   Marvin Lechner         : AUTO-CI (C++ implementation), FIC-MRCC
   Spencer Leger          : CASSCF response
   Dagmar Lenk            : GEPOL surface, SMD, ORCA-2-JSON
   Dimitrios Liakos       : Extrapolation schemes; Compound Job, initial MDCI parallelization
   Dimitrios Manganas     : Further ROCIS development; embedding schemes. LFT, Crystal Embedding
   Dimitrios Pantazis     : SARC Basis sets
   Anastasios Papadopoulos: AUTO-CI, single reference methods and gradients
   Taras Petrenko         : pre 6.0 DFT Hessian and TD-DFT gradient, (ASA, deprecated), ECA, 1-Electron XAS/XES, NRVS
   Peter Pinski           : DLPNO-MP2, DLPNO-MP2 Gradient
   Christoph Reimann      : Effective Core Potentials
   Marius Retegan         : Local ZFS, SOC
   Christoph Riplinger    : Optimizer, TS searches, QM/MM, DLPNO-CCSD(T), (RO)-DLPNO pert. Triples
   Michael Roemelt        : Original ROCIS implementation
   Masaaki Saitow         : Open-shell DLPNO-CCSD energy and density
   Barbara Sandhoefer     : DKH picture change effects
   Kantharuban Sivalingam : CASSCF convergence/infrastructure, NEVPT2 and variants, FIC-MRCI
   Bernardo de Souza      : ESD, SOC TD-DFT
   Georgi Stoychev        : AutoAux, RI-MP2 NMR, DLPNO-MP2 response, X2C
   Van Anh Tran           : RI-MP2 g-tensors
   Willem Van den Heuvel  : Paramagnetic NMR
   Zikuan Wang            : NOTCH, Electric field optimization 
   Frank Wennmohs         : Technical directorship and infrastructure
   Hang Xu                : AUTO-CI-Response properties 


 We gratefully acknowledge several colleagues who have allowed us to
 interface, adapt or use parts of their codes:
   Stefan Grimme, W. Hujo, H. Kruse, P. Pracht,  : VdW corrections, initial TS optimization,
                  C. Bannwarth, S. Ehlert,         DFT functionals, gCP, sTDA/sTD-DF
                  L. Wittmann, M. Mueller
   Ed Valeev, F. Pavosevic, A. Kumar             : LibInt (2-el integral package), F12 methods
   Garnet Chan, S. Sharma, J. Yang, R. Olivares  : DMRG
   Ulf Ekstrom                                   : XCFun DFT Library
   Mihaly Kallay                                 : mrcc  (arbitrary order and MRCC methods)
   Frank Weinhold                                : gennbo (NPA and NBO analysis)
   Simon Mueller                                 : openCOSMO-RS
   Christopher J. Cramer and Donald G. Truhlar   : smd solvation model
   Lars Goerigk                                  : TD-DFT with DH, B97 family of functionals
   V. Asgeirsson, H. Jonsson                     : NEB implementation
   FAccTs GmbH                                   : IRC, NEB, NEB-TS, DLPNO-Multilevel, CI-OPT
                                                   MM, QMMM, 2- and 3-layer-ONIOM, Crystal-QMMM,
                                                   LR-CPCM, SF, NACMEs, symmetry and pop. for TD-DFT,
                                                   nearIR, NL-DFT gradient (VV10), updates on ESD,
                                                   ML-optimized integration grids, MBIS, APM,
                                                   GOAT, DOCKER, SOLVATOR, interface openCOSMO-RS
   S Lehtola, MJT Oliveira, MAL Marques          : LibXC Library
   Liviu Ungur et al                             : ANISO software


 Your calculation uses the libint2 library for the computation of 2-el integrals
 For citations please refer to: http://libint.valeyev.net

 Your ORCA version has been built with support for libXC version: 6.2.2
 For citations please refer to: https://libxc.gitlab.io

 This ORCA versions uses:
   CBLAS   interface :  Fast vector & matrix operations
   LAPACKE interface :  Fast linear algebra routines
   Shared memory     :  Shared parallel matrices


Your calculation utilizes the atom-pairwise dispersion correction
with the zero-damping scheme (D30)


XCFun DFT library Copyright 2009-2010 Ulf Ekstrom and contributors.
See http://admol.org/xcfun for more information.
This is free software; see the source code for copying conditions.
There is ABSOLUTELY NO WARRANTY; not even for MERCHANTABILITY or FITNESS FOR A PARTICULAR PURPOSE.
For details see the documentation.
Scientific users of this library should cite U. Ekstrom, L. Visscher, R. Bast, A. J. Thorvaldsen and K. Ruud;
J.Chem.Theor.Comp. 2010, DOI: 10.1021/ct100117s
XCFun Version 0.99 

Warning: RI is on but no J-basis has been assigned. Assigning Def2/J (nothing to worry about!)
================================================================================

----- Orbital basis set information -----
Your calculation utilizes the basis: def2-TZVP
   F. Weigend and R. Ahlrichs, Phys. Chem. Chem. Phys. 7, 3297 (2005).

----- AuxJ basis set information -----
Your calculation utilizes the auxiliary basis: def2/J
   F. Weigend, Phys. Chem. Chem. Phys. 8, 1057 (2006).

================================================================================
                                        WARNINGS
                       Please study these warnings very carefully!
================================================================================

WARNING: Functional chosen is sensitive to the integration grid.
         DEFGRID3 seems to be a minimum grid for robust results!

================================================================================
                                       INPUT FILE
================================================================================
NAME = data/single_point_PO_M06-2x/77831/77831.inp
|  1> ! RIJCOSX M062X def2-TZVP D3ZERO NormalSCF
|  2> %pal
|  3> nprocs 6
|  4> end
|  5> 
|  6> * xyz 0 1
|  7>   C           7.42256544752160      1.39803270116329      0.15690523956691
|  8>   C           5.97528253489045      0.92891996249311     -0.01828995451636
|  9>   C           5.05394740390507      1.37098267253520      1.12794558265034
| 10>   C           3.57676909688416      0.99981007390842      0.93276648611996
| 11>   C           3.30982984989518     -0.51060748797941      0.87651283785055
| 12>   C           1.82190101316571     -0.89218137273655      0.82139690931034
| 13>   P           1.01740482187750     -0.28439461877318     -0.73609400277434
| 14>   O           1.99001194549206     -0.18423388022166     -1.90137026755903
| 15>   C          -0.38113405248004     -1.44654201840132     -1.08515488463600
| 16>   C          -1.13261245147637     -2.09568213072274      0.08529511186666
| 17>   C          -2.28806393617448     -2.99211376234738     -0.37946707131589
| 18>   C          -3.03408178481734     -3.67249319639550      0.77544113489690
| 19>   C          -4.17460371270665     -4.60693637249144      0.33901019449209
| 20>   C          -5.33679253054419     -3.90146815643914     -0.37031730754500
| 21>   C           0.23055805697775      1.34492609254411     -0.36233988947037
| 22>   C          -0.83536437925280      1.41913383377098      0.73634801178396
| 23>   C          -1.37667916502989      2.84137334712303      0.97128414693108
| 24>   C          -2.01117061683641      3.50842483181255     -0.26010660071887
| 25>   C          -3.16141570312573      2.71532246241024     -0.89554316080243
| 26>   C          -3.83219062440541      3.45218219102490     -2.05871773816816
| 27>   H           7.86446338921240      1.00302001395509      1.09642571362182
| 28>   H           8.06750365813394      1.06378047619695     -0.68120795262385
| 29>   H           7.48556437793381      2.50598822299647      0.20582449317027
| 30>   H           5.95550154058444     -0.17888133981523     -0.10876276694141
| 31>   H           5.56482720636513      1.31115791267846     -0.97941015602857
| 32>   H           5.13392501656515      2.47472709874865      1.24735912685742
| 33>   H           5.42434152635191      0.93824104302744      2.08633614074139
| 34>   H           2.97256434289422      1.45087747616611      1.75214619711033
| 35>   H           3.21782692858400      1.45124418855576     -0.01789536692627
| 36>   H           3.79864525474576     -0.93354412491711     -0.02527278999967
| 37>   H           3.77261863191295     -1.00480378806934      1.75988972535332
| 38>   H           1.71609260542565     -1.99736624919450      0.82530066585136
| 39>   H           1.26194740893228     -0.51589390295149      1.70546023841891
| 40>   H           0.08699022436039     -2.22315842851643     -1.72860910904625
| 41>   H          -1.08132990745476     -0.88958928352342     -1.74647388030277
| 42>   H          -0.42627020492617     -2.69926884339350      0.69579389460489
| 43>   H          -1.53135711337195     -1.31832668325177      0.77145372534964
| 44>   H          -1.89356369269475     -3.76818779432401     -1.07434400855476
| 45>   H          -2.99569146829871     -2.38112101669196     -0.98217294867228
| 46>   H          -3.44094475013459     -2.89084557067068      1.45786708736113
| 47>   H          -2.30275608694819     -4.25079012596375      1.38292527132715
| 48>   H          -3.76076012753190     -5.40049312318374     -0.32339435748649
| 49>   H          -4.56279205420818     -5.13730198820793      1.23564571790872
| 50>   H          -5.01984333876358     -3.43142973457475     -1.32408277896070
| 51>   H          -6.15385590860242     -4.61138246085197     -0.61177041722950
| 52>   H          -5.76801642315558     -3.10009341408860      0.26681751920844
| 53>   H           1.06980420517100      2.03943218282036     -0.14537444570508
| 54>   H          -0.17641312830079      1.66159181979597     -1.34698081001902
| 55>   H          -0.41726568046622      1.03560828348641      1.69207908231575
| 56>   H          -1.68138803788371      0.74462746910901      0.48630596117602
| 57>   H          -2.12843299191198      2.79965244487953      1.79068471909971
| 58>   H          -0.55116084470305      3.48582902557640      1.34655356835693
| 59>   H          -1.23091678122738      3.69929215658240     -1.03110038582778
| 60>   H          -2.38327834218887      4.51472048903027      0.03408492680158
| 61>   H          -3.91741226488793      2.47665644703739     -0.11324779063796
| 62>   H          -2.78388805500695      1.73236888819430     -1.25545582092163
| 63>   H          -3.10364454907058      3.67315303215171     -2.86700601374431
| 64>   H          -4.65481252800773      2.85648030552921     -2.50395138077835
| 65>   H          -4.26098125118720      4.42157472339475     -1.72794537219047
| 66> **                         ****END OF INPUT****
================================================================================

                       ****************************
                       * Single Point Calculation *
                       ****************************

---------------------------------
CARTESIAN COORDINATES (ANGSTROEM)
---------------------------------
  C      7.422565    1.398033    0.156905
  C      5.975283    0.928920   -0.018290
  C      5.053947    1.370983    1.127946
  C      3.576769    0.999810    0.932766
  C      3.309830   -0.510607    0.876513
  C      1.821901   -0.892181    0.821397
  P      1.017405   -0.284395   -0.736094
  O      1.990012   -0.184234   -1.901370
  C     -0.381134   -1.446542   -1.085155
  C     -1.132612   -2.095682    0.085295
  C     -2.288064   -2.992114   -0.379467
  C     -3.034082   -3.672493    0.775441
  C     -4.174604   -4.606936    0.339010
  C     -5.336793   -3.901468   -0.370317
  C      0.230558    1.344926   -0.362340
  C     -0.835364    1.419134    0.736348
  C     -1.376679    2.841373    0.971284
  C     -2.011171    3.508425   -0.260107
  C     -3.161416    2.715322   -0.895543
  C     -3.832191    3.452182   -2.058718
  H      7.864463    1.003020    1.096426
  H      8.067504    1.063780   -0.681208
  H      7.485564    2.505988    0.205824
  H      5.955502   -0.178881   -0.108763
  H      5.564827    1.311158   -0.979410
  H      5.133925    2.474727    1.247359
  H      5.424342    0.938241    2.086336
  H      2.972564    1.450877    1.752146
  H      3.217827    1.451244   -0.017895
  H      3.798645   -0.933544   -0.025273
  H      3.772619   -1.004804    1.759890
  H      1.716093   -1.997366    0.825301
  H      1.261947   -0.515894    1.705460
  H      0.086990   -2.223158   -1.728609
  H     -1.081330   -0.889589   -1.746474
  H     -0.426270   -2.699269    0.695794
  H     -1.531357   -1.318327    0.771454
  H     -1.893564   -3.768188   -1.074344
  H     -2.995691   -2.381121   -0.982173
  H     -3.440945   -2.890846    1.457867
  H     -2.302756   -4.250790    1.382925
  H     -3.760760   -5.400493   -0.323394
  H     -4.562792   -5.137302    1.235646
  H     -5.019843   -3.431430   -1.324083
  H     -6.153856   -4.611382   -0.611770
  H     -5.768016   -3.100093    0.266818
  H      1.069804    2.039432   -0.145374
  H     -0.176413    1.661592   -1.346981
  H     -0.417266    1.035608    1.692079
  H     -1.681388    0.744627    0.486306
  H     -2.128433    2.799652    1.790685
  H     -0.551161    3.485829    1.346554
  H     -1.230917    3.699292   -1.031100
  H     -2.383278    4.514720    0.034085
  H     -3.917412    2.476656   -0.113248
  H     -2.783888    1.732369   -1.255456
  H     -3.103645    3.673153   -2.867006
  H     -4.654813    2.856480   -2.503951
  H     -4.260981    4.421575   -1.727945

----------------------------
CARTESIAN COORDINATES (A.U.)
----------------------------
  NO LB      ZA    FRAG     MASS         X           Y           Z
   0 C     6.0000    0    12.011   14.026616    2.641899    0.296508
   1 C     6.0000    0    12.011   11.291648    1.755404   -0.034563
   2 C     6.0000    0    12.011    9.550576    2.590782    2.131508
   3 C     6.0000    0    12.011    6.759114    1.889367    1.762673
   4 C     6.0000    0    12.011    6.254672   -0.964908    1.656369
   5 C     6.0000    0    12.011    3.442894   -1.685978    1.552215
   6 P    15.0000    0    30.974    1.922616   -0.537428   -1.391016
   7 O     8.0000    0    15.999    3.760578   -0.348152   -3.593069
   8 C     6.0000    0    12.011   -0.720239   -2.733568   -2.050646
   9 C     6.0000    0    12.011   -2.140327   -3.960265    0.161184
  10 C     6.0000    0    12.011   -4.323814   -5.654276   -0.717089
  11 C     6.0000    0    12.011   -5.733584   -6.940006    1.465371
  12 C     6.0000    0    12.011   -7.888858   -8.705848    0.640636
  13 C     6.0000    0    12.011  -10.085076   -7.372706   -0.699798
  14 C     6.0000    0    12.011    0.435692    2.541542   -0.684723
  15 C     6.0000    0    12.011   -1.578610    2.681774    1.391496
  16 C     6.0000    0    12.011   -2.601547    5.369417    1.835461
  17 C     6.0000    0    12.011   -3.800562    6.629962   -0.491530
  18 C     6.0000    0    12.011   -5.974210    5.131216   -1.692331
  19 C     6.0000    0    12.011   -7.241791    6.523679   -3.890413
  20 H     1.0000    0     1.008   14.861682    1.895433    2.071944
  21 H     1.0000    0     1.008   15.245372    2.010254   -1.287296
  22 H     1.0000    0     1.008   14.145667    4.735631    0.388952
  23 H     1.0000    0     1.008   11.254267   -0.338037   -0.205532
  24 H     1.0000    0     1.008   10.515999    2.477729   -1.850817
  25 H     1.0000    0     1.008    9.701712    4.676556    2.357167
  26 H     1.0000    0     1.008   10.250520    1.773019    3.942604
  27 H     1.0000    0     1.008    5.617333    2.741761    3.311076
  28 H     1.0000    0     1.008    6.080812    2.742454   -0.033817
  29 H     1.0000    0     1.008    7.178399   -1.764143   -0.047759
  30 H     1.0000    0     1.008    7.129216   -1.898804    3.325710
  31 H     1.0000    0     1.008    3.242945   -3.774475    1.559592
  32 H     1.0000    0     1.008    2.384735   -0.974898    3.222853
  33 H     1.0000    0     1.008    0.164388   -4.201161   -3.266598
  34 H     1.0000    0     1.008   -2.043417   -1.681080   -3.300357
  35 H     1.0000    0     1.008   -0.805534   -5.100879    1.314860
  36 H     1.0000    0     1.008   -2.893846   -2.491276    1.457836
  37 H     1.0000    0     1.008   -3.578317   -7.120843   -2.030216
  38 H     1.0000    0     1.008   -5.661036   -4.499667   -1.856038
  39 H     1.0000    0     1.008   -6.502443   -5.462906    2.754970
  40 H     1.0000    0     1.008   -4.351578   -8.032829    2.613350
  41 H     1.0000    0     1.008   -7.106807  -10.205453   -0.611127
  42 H     1.0000    0     1.008   -8.622427   -9.708094    2.335032
  43 H     1.0000    0     1.008   -9.486129   -6.484462   -2.502154
  44 H     1.0000    0     1.008  -11.629102   -8.714250   -1.156079
  45 H     1.0000    0     1.008  -10.899971   -5.858328    0.504212
  46 H     1.0000    0     1.008    2.021637    3.853968   -0.274718
  47 H     1.0000    0     1.008   -0.333372    3.139953   -2.545425
  48 H     1.0000    0     1.008   -0.788518    1.957016    3.197566
  49 H     1.0000    0     1.008   -3.177363    1.407142    0.918985
  50 H     1.0000    0     1.008   -4.022155    5.290576    3.383904
  51 H     1.0000    0     1.008   -1.041543    6.587262    2.544617
  52 H     1.0000    0     1.008   -2.326096    6.990649   -1.948497
  53 H     1.0000    0     1.008   -4.503743    8.531585    0.064411
  54 H     1.0000    0     1.008   -7.402836    4.680202   -0.214007
  55 H     1.0000    0     1.008   -5.260786    3.273703   -2.372468
  56 H     1.0000    0     1.008   -5.865038    6.941253   -5.417856
  57 H     1.0000    0     1.008   -8.796321    5.397965   -4.731782
  58 H     1.0000    0     1.008   -8.052088    8.355565   -3.265344

--------------------------------
INTERNAL COORDINATES (ANGSTROEM)
--------------------------------
 C      0   0   0     0.000000000000     0.00000000     0.00000000
 C      1   0   0     1.531465946995     0.00000000     0.00000000
 C      2   1   0     1.535621623272   113.16784158     0.00000000
 C      3   2   1     1.535551929577   114.37498060   175.95217939
 C      4   3   2     1.534855773611   114.19452582    63.13598442
 C      5   4   3     1.537064936260   114.45436592   174.23988245
 P      6   5   4     1.855369720923   111.62450048    64.16675088
 O      7   6   5     1.521139560896   112.79226581    28.85934744
 C      7   6   5     1.851577992092   106.26957368   152.35373102
 C      9   7   6     1.534944905818   119.43765590    32.63163005
 C     10   9   7     1.534490694200   112.62825816   178.12137617
 C     11  10   9     1.534037734069   113.40717520   178.84444610
 C     12  11  10     1.537675610489   114.61717880   181.53235550
 C     13  12  11     1.533464625387   114.44712929   295.48612558
 C      7   6   5     1.847567576294   107.68201450   265.19711892
 C     15   7   6     1.532583613797   118.94220986   301.15391332
 C     16  15   7     1.539799311027   113.49115248   178.30974888
 C     17  16  15     1.537485043517   115.06288059    58.42616231
 C     18  17  16     1.534879392257   114.62374992    56.58493452
 C     19  18  17     1.531625395487   113.20455122   176.04651515
 H      1   2   3     1.110858917727   111.33133857    59.59794520
 H      1   2   3     1.109100341866   111.76316781   179.82405049
 H      1   2   3     1.110822846797   111.35587341   300.08726708
 H      2   1   3     1.111665571528   109.35240216   237.40153068
 H      2   1   3     1.112803427849   110.00852150   122.10496652
 H      3   2   1     1.113062339433   108.81005196    54.06034926
 H      3   2   1     1.114885458552   109.30463342   299.21296614
 H      4   3   2     1.113511695900   109.30130679   185.96365811
 H      4   3   2     1.111930842674   108.72790030   302.23542890
 H      5   4   3     1.109519363274   109.16478538   294.91055861
 H      5   4   3     1.112995132585   109.60589421    51.82631595
 H      6   5   4     1.110245139424   109.83095035   182.32931945
 H      6   5   4     1.112073859366   112.01943234   300.61358912
 H      9   7   6     1.111893306904   103.26685498   269.37815077
 H      9   7   6     1.112570626181   105.85579982   158.52230174
 H     10   9   7     1.111730656544   109.71195063   299.87869492
 H     10   9   7     1.110897132934   110.53544889    55.92513422
 H     11  10   9     1.113900939546   109.22491374    56.49362410
 H     11  10   9     1.112341329837   108.79868517   301.61136142
 H     12  11  10     1.114547291031   109.11369324    58.70992579
 H     12  11  10     1.112790003157   108.77660992   303.89047592
 H     13  12  11     1.113453465593   109.04299964    58.54446449
 H     13  12  11     1.111725297304   108.66232494   173.22773862
 H     14  13  12     1.109532100781   112.08749258    63.15196760
 H     14  13  12     1.108995260382   111.38255892   183.16535854
 H     14  13  12     1.110898875100   111.14714357   303.01031834
 H     15   7   6     1.110741558814   105.61268399    66.32157029
 H     15   7   6     1.111494701239   103.17787205   177.11573768
 H     16  15   7     1.111449615965   109.76161679    56.53173619
 H     16  15   7     1.110511546093   109.81818507   300.73909554
 H     17  16  15     1.112785580238   108.37361099   180.83595477
 H     17  16  15     1.112488542567   109.00595002   295.70019495
 H     18  17  16     1.113399209773   109.86352036   293.34578958
 H     18  17  16     1.112494388241   108.58316262   178.77160147
 H     19  18  17     1.113767621396   109.18479811    53.36523038
 H     19  18  17     1.112772203585   109.63894555   298.17368852
 H     20  19  18     1.110377157973   111.17492802    59.46065125
 H     20  19  18     1.108963718605   111.79837555   179.65817371
 H     20  19  18     1.110402468263   111.27806942   299.98442324

---------------------------
INTERNAL COORDINATES (A.U.)
---------------------------
 C      0   0   0     0.000000000000     0.00000000     0.00000000
 C      1   0   0     2.894051223248     0.00000000     0.00000000
 C      2   1   0     2.901904313312   113.16784158     0.00000000
 C      3   2   1     2.901772611314   114.37498060   175.95217939
 C      4   3   2     2.900457067192   114.19452582    63.13598442
 C      5   4   3     2.904631779584   114.45436592   174.23988245
 P      6   5   4     3.506140649714   111.62450048    64.16675088
 O      7   6   5     2.874537181567   112.79226581    28.85934744
 C      7   6   5     3.498975320649   106.26957368   152.35373102
 C      9   7   6     2.900625502653   119.43765590    32.63163005
 C     10   9   7     2.899767167088   112.62825816   178.12137617
 C     11  10   9     2.898911196491   113.40717520   178.84444610
 C     12  11  10     2.905785786633   114.61717880   181.53235550
 C     13  12  11     2.897828178037   114.44712929   295.48612558
 C      7   6   5     3.491396733108   107.68201450   265.19711892
 C     15   7   6     2.896163307412   118.94220986   301.15391332
 C     16  15   7     2.909798999041   113.49115248   178.30974888
 C     17  16  15     2.905425667248   115.06288059    58.42616231
 C     18  17  16     2.900501699965   114.62374992    56.58493452
 C     19  18  17     2.894352537230   113.20455122   176.04651515
 H      1   2   3     2.099219127929   111.33133857    59.59794520
 H      1   2   3     2.095895901165   111.76316781   179.82405049
 H      1   2   3     2.099150963750   111.35587341   300.08726708
 H      2   1   3     2.100743482696   109.35240216   237.40153068
 H      2   1   3     2.102893719523   110.00852150   122.10496652
 H      3   2   1     2.103382991510   108.81005196    54.06034926
 H      3   2   1     2.106828187354   109.30463342   299.21296614
 H      4   3   2     2.104232152169   109.30130679   185.96365811
 H      4   3   2     2.101244772513   108.72790030   302.23542890
 H      5   4   3     2.096687736871   109.16478538   294.91055861
 H      5   4   3     2.103255988973   109.60589421    51.82631595
 H      6   5   4     2.098059255029   109.83095035   182.32931945
 H      6   5   4     2.101515034895   112.01943234   300.61358912
 H      9   7   6     2.101173840189   103.26685498   269.37815077
 H      9   7   6     2.102453788128   105.85579982   158.52230174
 H     10   9   7     2.100866475552   109.71195063   299.87869492
 H     10   9   7     2.099291344203   110.53544889    55.92513422
 H     11  10   9     2.104967716059   109.22491374    56.49362410
 H     11  10   9     2.102020480834   108.79868517   301.61136142
 H     12  11  10     2.106189143353   109.11369324    58.70992579
 H     12  11  10     2.102868350532   108.77660992   303.89047592
 H     13  12  11     2.104122112837   109.04299964    58.54446449
 H     13  12  11     2.100856348056   108.66232494   173.22773862
 H     14  13  12     2.096711807271   112.08749258    63.15196760
 H     14  13  12     2.095697325939   111.38255892   183.16535854
 H     14  13  12     2.099294636420   111.14714357   303.01031834
 H     15   7   6     2.098997351723   105.61268399    66.32157029
 H     15   7   6     2.100420584646   103.17787205   177.11573768
 H     16  15   7     2.100335385825   109.76161679    56.53173619
 H     16  15   7     2.098562690672   109.81818507   300.73909554
 H     17  16  15     2.102859992427   108.37361099   180.83595477
 H     17  16  15     2.102298672577   109.00595002   295.70019495
 H     18  17  16     2.104019584196   109.86352036   293.34578958
 H     18  17  16     2.102309719299   108.58316262   178.77160147
 H     19  18  17     2.104715781268   109.18479811    53.36523038
 H     19  18  17     2.102834714216   109.63894555   298.17368852
 H     20  19  18     2.098308733931   111.17492802    59.46065125
 H     20  19  18     2.095637720618   111.79837555   179.65817371
 H     20  19  18     2.098356563447   111.27806942   299.98442324

---------------------
BASIS SET INFORMATION
---------------------
There are 4 groups of distinct atoms

 Group   1 Type C   : 11s6p2d1f contracted to 5s3p2d1f pattern {62111/411/11/1}
 Group   2 Type P   : 14s9p3d1f contracted to 5s5p2d1f pattern {73211/51111/21/1}
 Group   3 Type O   : 11s6p2d1f contracted to 5s3p2d1f pattern {62111/411/11/1}
 Group   4 Type H   : 5s1p contracted to 3s1p pattern {311/1}

Atom   0C    basis set group =>   1
Atom   1C    basis set group =>   1
Atom   2C    basis set group =>   1
Atom   3C    basis set group =>   1
Atom   4C    basis set group =>   1
Atom   5C    basis set group =>   1
Atom   6P    basis set group =>   2
Atom   7O    basis set group =>   3
Atom   8C    basis set group =>   1
Atom   9C    basis set group =>   1
Atom  10C    basis set group =>   1
Atom  11C    basis set group =>   1
Atom  12C    basis set group =>   1
Atom  13C    basis set group =>   1
Atom  14C    basis set group =>   1
Atom  15C    basis set group =>   1
Atom  16C    basis set group =>   1
Atom  17C    basis set group =>   1
Atom  18C    basis set group =>   1
Atom  19C    basis set group =>   1
Atom  20H    basis set group =>   4
Atom  21H    basis set group =>   4
Atom  22H    basis set group =>   4
Atom  23H    basis set group =>   4
Atom  24H    basis set group =>   4
Atom  25H    basis set group =>   4
Atom  26H    basis set group =>   4
Atom  27H    basis set group =>   4
Atom  28H    basis set group =>   4
Atom  29H    basis set group =>   4
Atom  30H    basis set group =>   4
Atom  31H    basis set group =>   4
Atom  32H    basis set group =>   4
Atom  33H    basis set group =>   4
Atom  34H    basis set group =>   4
Atom  35H    basis set group =>   4
Atom  36H    basis set group =>   4
Atom  37H    basis set group =>   4
Atom  38H    basis set group =>   4
Atom  39H    basis set group =>   4
Atom  40H    basis set group =>   4
Atom  41H    basis set group =>   4
Atom  42H    basis set group =>   4
Atom  43H    basis set group =>   4
Atom  44H    basis set group =>   4
Atom  45H    basis set group =>   4
Atom  46H    basis set group =>   4
Atom  47H    basis set group =>   4
Atom  48H    basis set group =>   4
Atom  49H    basis set group =>   4
Atom  50H    basis set group =>   4
Atom  51H    basis set group =>   4
Atom  52H    basis set group =>   4
Atom  53H    basis set group =>   4
Atom  54H    basis set group =>   4
Atom  55H    basis set group =>   4
Atom  56H    basis set group =>   4
Atom  57H    basis set group =>   4
Atom  58H    basis set group =>   4
---------------------------------
AUXILIARY/J BASIS SET INFORMATION
---------------------------------
There are 4 groups of distinct atoms

 Group   1 Type C   : 12s5p4d2f1g contracted to 6s4p3d1f1g pattern {711111/2111/211/2/1}
 Group   2 Type P   : 14s5p5d2f1g contracted to 8s4p3d1f1g pattern {71111111/2111/311/2/1}
 Group   3 Type O   : 12s5p4d2f1g contracted to 6s4p3d1f1g pattern {711111/2111/211/2/1}
 Group   4 Type H   : 5s2p1d contracted to 3s1p1d pattern {311/2/1}

Atom   0C    basis set group =>   1
Atom   1C    basis set group =>   1
Atom   2C    basis set group =>   1
Atom   3C    basis set group =>   1
Atom   4C    basis set group =>   1
Atom   5C    basis set group =>   1
Atom   6P    basis set group =>   2
Atom   7O    basis set group =>   3
Atom   8C    basis set group =>   1
Atom   9C    basis set group =>   1
Atom  10C    basis set group =>   1
Atom  11C    basis set group =>   1
Atom  12C    basis set group =>   1
Atom  13C    basis set group =>   1
Atom  14C    basis set group =>   1
Atom  15C    basis set group =>   1
Atom  16C    basis set group =>   1
Atom  17C    basis set group =>   1
Atom  18C    basis set group =>   1
Atom  19C    basis set group =>   1
Atom  20H    basis set group =>   4
Atom  21H    basis set group =>   4
Atom  22H    basis set group =>   4
Atom  23H    basis set group =>   4
Atom  24H    basis set group =>   4
Atom  25H    basis set group =>   4
Atom  26H    basis set group =>   4
Atom  27H    basis set group =>   4
Atom  28H    basis set group =>   4
Atom  29H    basis set group =>   4
Atom  30H    basis set group =>   4
Atom  31H    basis set group =>   4
Atom  32H    basis set group =>   4
Atom  33H    basis set group =>   4
Atom  34H    basis set group =>   4
Atom  35H    basis set group =>   4
Atom  36H    basis set group =>   4
Atom  37H    basis set group =>   4
Atom  38H    basis set group =>   4
Atom  39H    basis set group =>   4
Atom  40H    basis set group =>   4
Atom  41H    basis set group =>   4
Atom  42H    basis set group =>   4
Atom  43H    basis set group =>   4
Atom  44H    basis set group =>   4
Atom  45H    basis set group =>   4
Atom  46H    basis set group =>   4
Atom  47H    basis set group =>   4
Atom  48H    basis set group =>   4
Atom  49H    basis set group =>   4
Atom  50H    basis set group =>   4
Atom  51H    basis set group =>   4
Atom  52H    basis set group =>   4
Atom  53H    basis set group =>   4
Atom  54H    basis set group =>   4
Atom  55H    basis set group =>   4
Atom  56H    basis set group =>   4
Atom  57H    basis set group =>   4
Atom  58H    basis set group =>   4


           ************************************************************
           *        Program running with 6 parallel MPI-processes     *
           *              working on a common directory               *
           ************************************************************
------------------------------------------------------------------------------
                             ORCA STARTUP CALCULATIONS
                           -- RI-GTO INTEGRALS CHOSEN --
------------------------------------------------------------------------------
------------------------------------------------------------------------------
                   ___                                                        
                  /   \      - P O W E R E D   B Y -                         
                 /     \                                                     
                 |  |  |   _    _      __       _____    __    __             
                 |  |  |  | |  | |    /  \     |  _  \  |  |  /  |          
                  \  \/   | |  | |   /    \    | | | |  |  | /  /          
                 / \  \   | |__| |  /  /\  \   | |_| |  |  |/  /          
                |  |  |   |  __  | /  /__\  \  |    /   |      \           
                |  |  |   | |  | | |   __   |  |    \   |  |\   \          
                \     /   | |  | | |  |  |  |  | |\  \  |  | \   \       
                 \___/    |_|  |_| |__|  |__|  |_| \__\ |__|  \__/        
                                                                              
                      - O R C A' S   B I G   F R I E N D -                    
                                      &                                       
                       - I N T E G R A L  F E E D E R -                       
                                                                              
 v1 FN, 2020, v2 2021, v3 2022-2024                                           
------------------------------------------------------------------------------


----------------------
SHARK INTEGRAL PACKAGE
----------------------

Number of atoms                             ...     59
Number of basis functions                   ...    860
Number of shells                            ...    378
Maximum angular momentum                    ...      3
Integral batch strategy                     ... SHARK/LIBINT Hybrid
RI-J (if used) integral strategy            ... SPLIT-RIJ (Revised 2003 algorithm where possible)
Printlevel                                  ...      1
Contraction scheme used                     ... SEGMENTED contraction
Prescreening option                         ... SCHWARTZ
   Thresh                                   ... 1.000e-10
   Tcut                                     ... 1.000e-11
   Tpresel                                  ... 1.000e-11 
Coulomb Range Separation                    ... NOT USED
Exchange Range Separation                   ... NOT USED
Multipole approximations                    ... NOT USED
Finite Nucleus Model                        ... NOT USED
CABS basis                                  ... NOT available
Auxiliary Coulomb fitting basis             ... AVAILABLE
   # of basis functions in Aux-J            ...   1411
   # of shells in Aux-J                     ...    497
   Maximum angular momentum in Aux-J        ...      4
Auxiliary J/K fitting basis                 ... NOT available
Auxiliary Correlation fitting basis         ... NOT available
Auxiliary 'external' fitting basis          ... NOT available

Checking pre-screening integrals            ... done (  0.0 sec) Dimension = 378
Check shell pair data                       ... done (  0.0 sec)
Shell pair information
Shell pair cut-off parameter TPreSel        ...   1.0e-11
Total number of shell pairs                 ...     71631
Shell pairs after pre-screening             ...     42583
Total number of primitive shell pairs       ...    206332
Primitive shell pairs kept                  ...     82012
          la=0 lb=0:  14230 shell pairs
          la=1 lb=0:  13321 shell pairs
          la=1 lb=1:   3168 shell pairs
          la=2 lb=0:   5041 shell pairs
          la=2 lb=1:   2377 shell pairs
          la=2 lb=2:    473 shell pairs
          la=3 lb=0:   2372 shell pairs
          la=3 lb=1:   1094 shell pairs
          la=3 lb=2:    402 shell pairs
          la=3 lb=3:    105 shell pairs

Calculating one electron integrals          ... done (  0.1 sec)
Calculating RI/J V-Matrix + Cholesky decomp.... done (  0.1 sec)
Calculating Nuclear repulsion               ... done (  0.0 sec) ENN=   1790.141680032267 Eh

Diagonalization of the overlap matrix:
Smallest eigenvalue                        ... 5.721e-05
Time for diagonalization                   ...    0.171 sec
Threshold for overlap eigenvalues          ... 1.000e-07
Number of eigenvalues below threshold      ... 0
Time for construction of square roots      ...    0.079 sec
Total time needed                          ...    0.256 sec

-------------------
DFT GRID GENERATION
-------------------

General Integration Accuracy     IntAcc      ... 4.388
Radial Grid Type                 RadialGrid  ... OptM3 with GC (2021)
Angular Grid (max. ang.)         AngularGrid ... 4 (Lebedev-302)
Angular grid pruning method      GridPruning ... 4 (adaptive)
Weight generation scheme         WeightScheme... mBecke (2022)
Basis function cutoff            BFCut       ... 1.0000e-10
Integration weight cutoff        WCut        ... 1.0000e-14
Partially contracted basis set               ... off
Rotationally invariant grid construction     ... off
Angular grids for H and He will be reduced by one unit

Total number of grid points                  ...   243917
Total number of batches                      ...     3838
Average number of points per batch           ...       63
Average number of grid points per atom       ...     4134

--------------------
COSX GRID GENERATION
--------------------

GRIDX 1
-------
General Integration Accuracy     IntAcc      ... 3.816
Radial Grid Type                 RadialGrid  ... OptM3 with GC (2021)
Angular Grid (max. ang.)         AngularGrid ... 1 (Lebedev-50)
Angular grid pruning method      GridPruning ... 4 (adaptive)
Weight generation scheme         WeightScheme... mBecke (2022)
Basis function cutoff            BFCut       ... 1.0000e-10
Integration weight cutoff        WCut        ... 1.0000e-14
Partially contracted basis set               ... on
Rotationally invariant grid construction     ... off
Angular grids for H and He will be reduced by one unit

Total number of grid points                  ...    32041
Total number of batches                      ...      291
Average number of points per batch           ...      110
Average number of grid points per atom       ...      543
UseSFitting                                  ... on

GRIDX 2
-------
General Integration Accuracy     IntAcc      ... 4.020
Radial Grid Type                 RadialGrid  ... OptM3 with GC (2021)
Angular Grid (max. ang.)         AngularGrid ... 2 (Lebedev-110)
Angular grid pruning method      GridPruning ... 4 (adaptive)
Weight generation scheme         WeightScheme... mBecke (2022)
Basis function cutoff            BFCut       ... 1.0000e-10
Integration weight cutoff        WCut        ... 1.0000e-14
Partially contracted basis set               ... on
Rotationally invariant grid construction     ... off
Angular grids for H and He will be reduced by one unit

Total number of grid points                  ...    63509
Total number of batches                      ...      530
Average number of points per batch           ...      119
Average number of grid points per atom       ...     1076
UseSFitting                                  ... on

GRIDX 3
-------
General Integration Accuracy     IntAcc      ... 4.338
Radial Grid Type                 RadialGrid  ... OptM3 with GC (2021)
Angular Grid (max. ang.)         AngularGrid ... 3 (Lebedev-194)
Angular grid pruning method      GridPruning ... 4 (adaptive)
Weight generation scheme         WeightScheme... mBecke (2022)
Basis function cutoff            BFCut       ... 1.0000e-10
Integration weight cutoff        WCut        ... 1.0000e-14
Partially contracted basis set               ... on
Rotationally invariant grid construction     ... off
Angular grids for H and He will be reduced by one unit

Total number of grid points                  ...   137982
Total number of batches                      ...     1113
Average number of points per batch           ...      123
Average number of grid points per atom       ...     2339
UseSFitting                                  ... on
Initializing property integral containers    ... done (  0.0 sec)

SHARK setup successfully completed in   5.4 seconds

Maximum memory used throughout the entire STARTUP-calculation: 98.2 MB


           ************************************************************
           *        Program running with 6 parallel MPI-processes     *
           *              working on a common directory               *
           ************************************************************
-------------------------------------------------------------------------------
                                 ORCA GUESS
                   Start orbitals & Density for SCF / CASSCF
-------------------------------------------------------------------------------

------------
SCF SETTINGS
------------
Hamiltonian:
 Density Functional     Method          .... DFT(GTOs)
 Exchange Functional    Exchange        .... M062X
 Correlation Functional Correlation     .... M062X
 Gradients option       PostSCFGGA      .... off
 Hybrid DFT is turned on
   Fraction HF Exchange ScalHFX         ....  0.540000
   Scaling of DF-GGA-X  ScalDFX         ....  0.460000
   Scaling of DF-GGA-C  ScalDFC         ....  1.000000
   Scaling of DF-LDA-C  ScalLDAC        ....  1.000000
   Perturbative correction              ....  0.000000
 RI-approximation to the Coulomb term is turned on
   Number of AuxJ basis functions       .... 1411
   RIJ-COSX (HFX calculated with COS-X)).... on


General Settings:
 Integral files         IntName         .... data/single_point_PO_M06-2x/77831/77831
 Hartree-Fock type      HFTyp           .... RHF
 Total Charge           Charge          ....    0
 Multiplicity           Mult            ....    1
 Number of Electrons    NEL             ....  170
 Basis Dimension        Dim             ....  860
 Nuclear Repulsion      ENuc            ....   1790.1416800323 Eh

Convergence Acceleration:
 AO-DIIS                CNVDIIS         .... on
   Start iteration      DIISMaxIt       ....    12
   Startup error        DIISStart       ....  0.200000
   # of expansion vecs  DIISMaxEq       ....     5
   Bias factor          DIISBfac        ....   1.050
   Max. coefficient     DIISMaxC        ....  10.000
 MO-DIIS                CNVKDIIS        .... off
 Trust-Rad. Augm. Hess. CNVTRAH         .... auto
   Auto Start mean grad. ratio tolernc. ....  1.125000
   Auto Start start iteration           ....    50
   Auto Start num. interpolation iter.  ....    10
   Max. Number of Micro iterations      ....    24
   Max. Number of Macro iterations      .... Maxiter - #DIIS iter
   Number of Davidson start vectors     ....     2
   Converg. threshold    (grad. norm)   ....   5.000e-05
   Grad. Scal. Fac. for Micro threshold ....   0.100
   Minimum threshold for Micro iter.    ....   1.000e-02
   NR start threshold (gradient norm)   ....   1.000e-04
   Initial trust radius                 ....   0.400
   Minimum AH scaling param. (alpha)    ....   1.000
   Maximum AH scaling param. (alpha)    .... 1000.000
   Quad. conv. algorithm                .... NR
   White noise on init. David. guess    .... on
   Maximum white noise                  ....   0.010
   Pseudo random numbers                .... off
   Inactive MOs                         .... canonical
   Orbital update algorithm             .... Taylor
   Preconditioner                       .... Diag
   Full preconditioner red. dimension   ....   250
 SOSCF                  CNVSOSCF        .... on
   Start iteration      SOSCFMaxIt      ....   150
   Startup grad/error   SOSCFStart      ....  0.003300
   Hessian update       SOSCFHessUp     .... L-BFGS
 Level Shifting         CNVShift        .... on
   Level shift para.    LevelShift      ....    0.2500
   Turn off err/grad.   ShiftErr        ....    0.0010
 Zerner damping         CNVZerner       .... off
 Static damping         CNVDamp         .... on
   Fraction old density DampFac         ....    0.7000
   Max. Damping (<1)    DampMax         ....    0.9800
   Min. Damping (>=0)   DampMin         ....    0.0000
   Turn off err/grad.   DampErr         ....    0.1000

SCF Procedure:
 Maximum # iterations   MaxIter         ....   125
 SCF integral mode      SCFMode         .... Direct
   Integral package                     .... SHARK and LIBINT hybrid scheme
 Reset frequency        DirectResetFreq ....    20
 Integral Threshold     Thresh          ....  1.000e-10 Eh
 Primitive CutOff       TCut            ....  1.000e-11 Eh

Convergence Tolerance:
 Convergence Check Mode ConvCheckMode   .... Total+1el-Energy
 Convergence forced     ConvForced      .... 0
 Energy Change          TolE            ....  1.000e-06 Eh
 1-El. energy change                    ....  1.000e-03 Eh
 Orbital Gradient       TolG            ....  5.000e-05
 Orbital Rotation angle TolX            ....  5.000e-05
 DIIS Error             TolErr          ....  1.000e-05

------------------------------
INITIAL GUESS: MODEL POTENTIAL
------------------------------
Loading Hartree-Fock densities                     ... done
Calculating cut-offs                               ... done
Initializing the effective Hamiltonian             ... done
Setting up the integral package (SHARK)            ... done
Starting the Coulomb interaction                   ... done (   1.0 sec)
Making the grid                                    ... done (   0.4 sec)
Mapping shells                                     ... done
Starting the XC term evaluation                    ... done (   0.5 sec)
  promolecular density results
     # of electrons  =    169.994413173
     EX              =   -134.196903341
     EC              =     -5.646287565
     EX+EC           =   -139.843190906
Transforming the Hamiltonian                       ... done (   0.1 sec)
Diagonalizing the Hamiltonian                      ... done (   0.2 sec)
Back transforming the eigenvectors                 ... done (   0.1 sec)
Now organizing SCF variables                       ... done
                      ------------------
                      INITIAL GUESS DONE (   2.2 sec)
                      ------------------
             **** ENERGY FILE WAS UPDATED (data/single_point_PO_M06-2x/77831/77831.en.tmp) ****
Finished Guess after   2.5 sec
Maximum memory used throughout the entire GUESS-calculation: 67.7 MB


           ************************************************************
           *        Program running with 6 parallel MPI-processes     *
           *              working on a common directory               *
           ************************************************************

-------------------------------------------------------------------------------------------
                                      ORCA LEAN-SCF
                              memory conserving SCF solver
-------------------------------------------------------------------------------------------

----------------------------------------D-I-I-S--------------------------------------------
Iteration    Energy (Eh)           Delta-E    RMSDP     MaxDP     DIISErr   Damp  Time(sec)
-------------------------------------------------------------------------------------------
               ***  Starting incremental Fock matrix formation  ***
    1    -1125.1109223010569167     0.00e+00  1.15e-03  1.40e-01  3.71e-01  0.700  20.9
    2    -1125.4690752423155118    -3.58e-01  9.62e-04  1.37e-01  1.63e-01  0.700  11.9
                               ***Turning on AO-DIIS***
    3    -1125.6308080270384835    -1.62e-01  4.25e-04  3.45e-02  4.88e-02  0.700  12.6
    4    -1125.7252222520908163    -9.44e-02  8.47e-04  4.58e-02  3.53e-02  0.000  10.7
    5    -1125.9277204912420984    -2.02e-01  1.15e-04  1.52e-02  4.26e-03  0.000  11.2
    6    -1125.9281606770525741    -4.40e-04  5.14e-05  7.41e-03  4.40e-03  0.000   9.7
                              *** Initializing SOSCF ***
---------------------------------------S-O-S-C-F--------------------------------------
Iteration    Energy (Eh)           Delta-E    RMSDP     MaxDP     MaxGrad    Time(sec)
--------------------------------------------------------------------------------------
    7    -1125.9282048720722287    -4.42e-05  1.71e-05  1.71e-03  1.64e-03     8.9
               *** Restarting incremental Fock matrix formation ***
    8    -1125.9282007619729029     4.11e-06  2.94e-05  1.65e-03  4.91e-05    19.8
    9    -1125.9282018945393702    -1.13e-06  8.72e-06  3.94e-04  3.45e-05    13.2
   10    -1125.9282021081355651    -2.14e-07  6.68e-06  3.38e-04  2.05e-05    11.6
                 **** Energy Check signals convergence ****

               *****************************************************
               *                     SUCCESS                       *
               *           SCF CONVERGED AFTER  10 CYCLES          *
               *****************************************************

Recomputing exchange energy using gridx3       ... done (   28.484 sec)
Old exchange energy                            :    -74.520983875 Eh
New exchange energy                            :    -74.520997831 Eh
Exchange energy change after final integration :     -0.000013957 Eh
Total energy after final integration           :  -1125.928216065 Eh
             **** ENERGY FILE WAS UPDATED (data/single_point_PO_M06-2x/77831/77831.en.tmp) ****

----------------
TOTAL SCF ENERGY
----------------

Total Energy       :      -1125.92821606467146 Eh          -30638.06437 eV

Components:
Nuclear Repulsion  :       1790.14168003226700 Eh           48712.23160 eV
Electronic Energy  :      -2916.06988214040257 Eh          -79350.29558 eV
One Electron Energy:      -5089.71331442329392 Eh         -138498.14039 eV
Two Electron Energy:       2173.64343228289135 Eh           59147.84481 eV

Virial components:
Potential Energy   :      -2245.72763644963834 Eh          -61109.35573 eV
Kinetic Energy     :       1119.79942038496688 Eh           30471.29136 eV
Virial Ratio       :          2.00547311917486

DFT components:
N(Alpha)           :       85.000557215529 electrons
N(Beta)            :       85.000557215529 electrons
N(Total)           :      170.001114431058 electrons
E(XC)              :      -69.242845247166 Eh       

---------------
SCF CONVERGENCE
---------------

  Last Energy change         ...    2.1360e-07  Tolerance :   1.0000e-06
  Last MAX-Density change    ...    3.3814e-04  Tolerance :   1.0000e-05
  Last RMS-Density change    ...    6.6822e-06  Tolerance :   1.0000e-06
  Last DIIS Error            ...    1.6402e-03  Tolerance :   1.0000e-05
  Last Orbital Gradient      ...    2.0525e-05  Tolerance :   5.0000e-05
  Last Orbital Rotation      ...    1.8469e-05  Tolerance :   5.0000e-05


----------------
ORBITAL ENERGIES
----------------

  NO   OCC          E(Eh)            E(eV) 
   0   2.0000     -78.081423     -2124.7035 
   1   2.0000     -19.553547      -532.0791 
   2   2.0000     -10.551042      -287.1085 
   3   2.0000     -10.550889      -287.1043 
   4   2.0000     -10.547023      -286.9991 
   5   2.0000     -10.546421      -286.9827 
   6   2.0000     -10.544993      -286.9439 
   7   2.0000     -10.542994      -286.8894 
   8   2.0000     -10.541861      -286.8586 
   9   2.0000     -10.539915      -286.8057 
  10   2.0000     -10.539659      -286.7987 
  11   2.0000     -10.539185      -286.7858 
  12   2.0000     -10.538154      -286.7577 
  13   2.0000     -10.536864      -286.7227 
  14   2.0000     -10.531598      -286.5793 
  15   2.0000     -10.531493      -286.5765 
  16   2.0000     -10.530016      -286.5363 
  17   2.0000     -10.528174      -286.4862 
  18   2.0000     -10.524745      -286.3929 
  19   2.0000     -10.520936      -286.2892 
  20   2.0000      -6.888014      -187.4324 
  21   2.0000      -5.004959      -136.1918 
  22   2.0000      -5.004908      -136.1905 
  23   2.0000      -5.003341      -136.1478 
  24   2.0000      -1.048655       -28.5353 
  25   2.0000      -0.919055       -25.0088 
  26   2.0000      -0.913674       -24.8623 
  27   2.0000      -0.903813       -24.5940 
  28   2.0000      -0.879294       -23.9268 
  29   2.0000      -0.867581       -23.6081 
  30   2.0000      -0.860720       -23.4214 
  31   2.0000      -0.820575       -22.3290 
  32   2.0000      -0.803269       -21.8581 
  33   2.0000      -0.799564       -21.7572 
  34   2.0000      -0.753065       -20.4919 
  35   2.0000      -0.737308       -20.0632 
  36   2.0000      -0.724243       -19.7077 
  37   2.0000      -0.694164       -18.8892 
  38   2.0000      -0.682823       -18.5806 
  39   2.0000      -0.678917       -18.4743 
  40   2.0000      -0.650512       -17.7013 
  41   2.0000      -0.642180       -17.4746 
  42   2.0000      -0.636538       -17.3211 
  43   2.0000      -0.595520       -16.2049 
  44   2.0000      -0.559798       -15.2329 
  45   2.0000      -0.550994       -14.9933 
  46   2.0000      -0.542398       -14.7594 
  47   2.0000      -0.534869       -14.5545 
  48   2.0000      -0.524141       -14.2626 
  49   2.0000      -0.521350       -14.1866 
  50   2.0000      -0.511371       -13.9151 
  51   2.0000      -0.508938       -13.8489 
  52   2.0000      -0.500955       -13.6317 
  53   2.0000      -0.496719       -13.5164 
  54   2.0000      -0.484846       -13.1933 
  55   2.0000      -0.482046       -13.1171 
  56   2.0000      -0.481400       -13.0996 
  57   2.0000      -0.468565       -12.7503 
  58   2.0000      -0.465950       -12.6791 
  59   2.0000      -0.462187       -12.5767 
  60   2.0000      -0.451641       -12.2898 
  61   2.0000      -0.450844       -12.2681 
  62   2.0000      -0.444987       -12.1087 
  63   2.0000      -0.432410       -11.7665 
  64   2.0000      -0.428606       -11.6630 
  65   2.0000      -0.424704       -11.5568 
  66   2.0000      -0.420649       -11.4464 
  67   2.0000      -0.415571       -11.3083 
  68   2.0000      -0.412823       -11.2335 
  69   2.0000      -0.408289       -11.1101 
  70   2.0000      -0.404370       -11.0035 
  71   2.0000      -0.402278       -10.9465 
  72   2.0000      -0.394694       -10.7402 
  73   2.0000      -0.387374       -10.5410 
  74   2.0000      -0.386191       -10.5088 
  75   2.0000      -0.383997       -10.4491 
  76   2.0000      -0.382488       -10.4080 
  77   2.0000      -0.380689       -10.3591 
  78   2.0000      -0.377807       -10.2807 
  79   2.0000      -0.374599       -10.1934 
  80   2.0000      -0.371555       -10.1105 
  81   2.0000      -0.367993       -10.0136 
  82   2.0000      -0.363655        -9.8955 
  83   2.0000      -0.316745        -8.6191 
  84   2.0000      -0.314598        -8.5607 
  85   0.0000       0.039177         1.0660 
  86   0.0000       0.056986         1.5507 
  87   0.0000       0.060204         1.6382 
  88   0.0000       0.067557         1.8383 
  89   0.0000       0.071302         1.9402 
  90   0.0000       0.073532         2.0009 
  91   0.0000       0.077248         2.1020 
  92   0.0000       0.081278         2.2117 
  93   0.0000       0.091340         2.4855 
  94   0.0000       0.092296         2.5115 
  95   0.0000       0.098979         2.6934 
*Only the first 10 virtual orbitals were printed.

                    ********************************
                    * MULLIKEN POPULATION ANALYSIS *
                    ********************************

-----------------------
MULLIKEN ATOMIC CHARGES
-----------------------
   0 C :   -0.430518
   1 C :   -0.255041
   2 C :   -0.289319
   3 C :   -0.305203
   4 C :   -0.263711
   5 C :   -0.446386
   6 P :    0.717644
   7 O :   -0.598587
   8 C :   -0.447066
   9 C :   -0.325945
  10 C :   -0.280636
  11 C :   -0.269957
  12 C :   -0.245491
  13 C :   -0.445812
  14 C :   -0.460269
  15 C :   -0.334244
  16 C :   -0.269488
  17 C :   -0.310532
  18 C :   -0.257145
  19 C :   -0.427035
  20 H :    0.132819
  21 H :    0.143167
  22 H :    0.135306
  23 H :    0.134333
  24 H :    0.147800
  25 H :    0.137954
  26 H :    0.141659
  27 H :    0.143132
  28 H :    0.165839
  29 H :    0.180587
  30 H :    0.147018
  31 H :    0.168150
  32 H :    0.177969
  33 H :    0.194583
  34 H :    0.177981
  35 H :    0.154013
  36 H :    0.159469
  37 H :    0.148461
  38 H :    0.145476
  39 H :    0.145894
  40 H :    0.139294
  41 H :    0.137759
  42 H :    0.138307
  43 H :    0.142535
  44 H :    0.145525
  45 H :    0.137312
  46 H :    0.197672
  47 H :    0.196327
  48 H :    0.164061
  49 H :    0.161520
  50 H :    0.152791
  51 H :    0.152326
  52 H :    0.161609
  53 H :    0.148165
  54 H :    0.138692
  55 H :    0.126174
  56 H :    0.140918
  57 H :    0.143237
  58 H :    0.138903
Sum of atomic charges:   -0.0000000

--------------------------------
MULLIKEN REDUCED ORBITAL CHARGES
--------------------------------
  0 C s       :     3.317548  s :     3.317548
      pz      :     1.069041  p :     3.053661
      px      :     0.937696
      py      :     1.046925
      dz2     :     0.007865  d :     0.056004
      dxz     :     0.020628
      dyz     :     0.002729
      dx2y2   :     0.015400
      dxy     :     0.009382
      f0      :     0.000283  f :     0.003305
      f+1     :     0.000603
      f-1     :     0.000405
      f+2     :     0.000364
      f-2     :     0.000307
      f+3     :     0.000606
      f-3     :     0.000737

  1 C s       :     3.257937  s :     3.257937
      pz      :     0.961746  p :     2.904359
      px      :     0.916709
      py      :     1.025904
      dz2     :     0.020542  d :     0.087777
      dxz     :     0.024001
      dyz     :     0.007437
      dx2y2   :     0.023186
      dxy     :     0.012611
      f0      :     0.000736  f :     0.004967
      f+1     :     0.000812
      f-1     :     0.000519
      f+2     :     0.000748
      f-2     :     0.000569
      f+3     :     0.000777
      f-3     :     0.000806

  2 C s       :     3.277857  s :     3.277857
      pz      :     0.959076  p :     2.917080
      px      :     0.901220
      py      :     1.056783
      dz2     :     0.021282  d :     0.089382
      dxz     :     0.023471
      dyz     :     0.008790
      dx2y2   :     0.023351
      dxy     :     0.012488
      f0      :     0.000739  f :     0.005001
      f+1     :     0.000830
      f-1     :     0.000560
      f+2     :     0.000806
      f-2     :     0.000514
      f+3     :     0.000688
      f-3     :     0.000863

  3 C s       :     3.260214  s :     3.260214
      pz      :     1.064646  p :     2.951224
      px      :     0.986220
      py      :     0.900359
      dz2     :     0.008279  d :     0.088763
      dxz     :     0.020585
      dyz     :     0.019116
      dx2y2   :     0.016045
      dxy     :     0.024738
      f0      :     0.000564  f :     0.005002
      f+1     :     0.000594
      f-1     :     0.000537
      f+2     :     0.000869
      f-2     :     0.000332
      f+3     :     0.001117
      f-3     :     0.000988

  4 C s       :     3.264155  s :     3.264155
      pz      :     1.077791  p :     2.905001
      px      :     0.914651
      py      :     0.912559
      dz2     :     0.007264  d :     0.089437
      dxz     :     0.020742
      dyz     :     0.020515
      dx2y2   :     0.016834
      dxy     :     0.024082
      f0      :     0.000607  f :     0.005118
      f+1     :     0.000556
      f-1     :     0.000581
      f+2     :     0.000885
      f-2     :     0.000339
      f+3     :     0.001154
      f-3     :     0.000997

  5 C s       :     3.265072  s :     3.265072
      pz      :     1.020514  p :     3.110425
      px      :     0.997212
      py      :     1.092699
      dz2     :     0.007246  d :     0.067279
      dxz     :     0.027029
      dyz     :     0.003312
      dx2y2   :     0.014961
      dxy     :     0.014732
      f0      :     0.000475  f :     0.003610
      f+1     :     0.000572
      f-1     :     0.000362
      f+2     :     0.000521
      f-2     :     0.000308
      f+3     :     0.000574
      f-3     :     0.000797

  6 P s       :     5.303796  s :     5.303796
      pz      :     2.698141  p :     8.243156
      px      :     2.725884
      py      :     2.819132
      dz2     :     0.185372  d :     0.669267
      dxz     :     0.110071
      dyz     :     0.127526
      dx2y2   :     0.083813
      dxy     :     0.162486
      f0      :     0.013818  f :     0.066137
      f+1     :     0.008709
      f-1     :     0.007816
      f+2     :     0.008621
      f-2     :     0.013192
      f+3     :     0.007236
      f-3     :     0.006745

  7 O s       :     3.858893  s :     3.858893
      pz      :     1.504049  p :     4.713926
      px      :     1.545986
      py      :     1.663891
      dz2     :     0.006726  d :     0.024523
      dxz     :     0.007389
      dyz     :     0.004380
      dx2y2   :     0.003135
      dxy     :     0.002893
      f0      :     0.000204  f :     0.001244
      f+1     :     0.000371
      f-1     :     0.000088
      f+2     :     0.000253
      f-2     :     0.000211
      f+3     :     0.000060
      f-3     :     0.000057

  8 C s       :     3.281345  s :     3.281345
      pz      :     0.969642  p :     3.095511
      px      :     1.040822
      py      :     1.085047
      dz2     :     0.010366  d :     0.066615
      dxz     :     0.016801
      dyz     :     0.018279
      dx2y2   :     0.006384
      dxy     :     0.014785
      f0      :     0.000611  f :     0.003595
      f+1     :     0.000416
      f-1     :     0.000371
      f+2     :     0.000544
      f-2     :     0.000953
      f+3     :     0.000294
      f-3     :     0.000406

  9 C s       :     3.279336  s :     3.279336
      pz      :     0.936662  p :     2.953304
      px      :     0.989333
      py      :     1.027309
      dz2     :     0.012203  d :     0.088250
      dxz     :     0.021986
      dyz     :     0.024222
      dx2y2   :     0.013378
      dxy     :     0.016459
      f0      :     0.000621  f :     0.005054
      f+1     :     0.000633
      f-1     :     0.000553
      f+2     :     0.000765
      f-2     :     0.001166
      f+3     :     0.000745
      f-3     :     0.000570

 10 C s       :     3.263211  s :     3.263211
      pz      :     0.950665  p :     2.925412
      px      :     0.975947
      py      :     0.998800
      dz2     :     0.011472  d :     0.086970
      dxz     :     0.021315
      dyz     :     0.025852
      dx2y2   :     0.012787
      dxy     :     0.015544
      f0      :     0.000612  f :     0.005043
      f+1     :     0.000605
      f-1     :     0.000530
      f+2     :     0.000784
      f-2     :     0.001180
      f+3     :     0.000750
      f-3     :     0.000581

 11 C s       :     3.262927  s :     3.262927
      pz      :     0.927528  p :     2.913163
      px      :     0.983071
      py      :     1.002564
      dz2     :     0.009397  d :     0.088875
      dxz     :     0.022111
      dyz     :     0.026559
      dx2y2   :     0.013485
      dxy     :     0.017323
      f0      :     0.000640  f :     0.004991
      f+1     :     0.000603
      f-1     :     0.000526
      f+2     :     0.000730
      f-2     :     0.001181
      f+3     :     0.000708
      f-3     :     0.000604

 12 C s       :     3.265958  s :     3.265958
      pz      :     1.025710  p :     2.884023
      px      :     0.912166
      py      :     0.946147
      dz2     :     0.010268  d :     0.090577
      dxz     :     0.017792
      dyz     :     0.023092
      dx2y2   :     0.020598
      dxy     :     0.018827
      f0      :     0.000328  f :     0.004934
      f+1     :     0.000768
      f-1     :     0.000566
      f+2     :     0.000557
      f-2     :     0.001025
      f+3     :     0.001025
      f-3     :     0.000666

 13 C s       :     3.315017  s :     3.315017
      pz      :     1.032255  p :     3.073388
      px      :     0.998102
      py      :     1.043031
      dz2     :     0.009591  d :     0.054170
      dxz     :     0.007995
      dyz     :     0.013031
      dx2y2   :     0.008160
      dxy     :     0.015393
      f0      :     0.000232  f :     0.003237
      f+1     :     0.000542
      f-1     :     0.000447
      f+2     :     0.000399
      f-2     :     0.000668
      f+3     :     0.000539
      f-3     :     0.000410

 14 C s       :     3.261788  s :     3.261788
      pz      :     1.033437  p :     3.130047
      px      :     1.043039
      py      :     1.053571
      dz2     :     0.021408  d :     0.064929
      dxz     :     0.007187
      dyz     :     0.009557
      dx2y2   :     0.008579
      dxy     :     0.018198
      f0      :     0.000557  f :     0.003505
      f+1     :     0.000800
      f-1     :     0.000257
      f+2     :     0.000357
      f-2     :     0.000710
      f+3     :     0.000405
      f-3     :     0.000420

 15 C s       :     3.274671  s :     3.274671
      pz      :     0.989693  p :     2.964364
      px      :     0.965486
      py      :     1.009184
      dz2     :     0.018504  d :     0.090195
      dxz     :     0.013559
      dyz     :     0.019474
      dx2y2   :     0.011847
      dxy     :     0.026811
      f0      :     0.000703  f :     0.005013
      f+1     :     0.000810
      f-1     :     0.000476
      f+2     :     0.000560
      f-2     :     0.000893
      f+3     :     0.000622
      f-3     :     0.000950

 16 C s       :     3.287115  s :     3.287115
      pz      :     0.940636  p :     2.887639
      px      :     1.045364
      py      :     0.901640
      dz2     :     0.015164  d :     0.089804
      dxz     :     0.022276
      dyz     :     0.017767
      dx2y2   :     0.012668
      dxy     :     0.021928
      f0      :     0.000779  f :     0.004929
      f+1     :     0.000663
      f-1     :     0.000552
      f+2     :     0.000847
      f-2     :     0.000703
      f+3     :     0.000581
      f-3     :     0.000804

 17 C s       :     3.277837  s :     3.277837
      pz      :     0.972640  p :     2.941493
      px      :     0.969485
      py      :     0.999368
      dz2     :     0.015366  d :     0.086260
      dxz     :     0.024418
      dyz     :     0.014362
      dx2y2   :     0.019363
      dxy     :     0.012752
      f0      :     0.000663  f :     0.004942
      f+1     :     0.000902
      f-1     :     0.000542
      f+2     :     0.000931
      f-2     :     0.000754
      f+3     :     0.000710
      f-3     :     0.000439

 18 C s       :     3.247230  s :     3.247230
      pz      :     0.985429  p :     2.915348
      px      :     0.951102
      py      :     0.978817
      dz2     :     0.015899  d :     0.089569
      dxz     :     0.025517
      dyz     :     0.014485
      dx2y2   :     0.019367
      dxy     :     0.014301
      f0      :     0.000617  f :     0.004998
      f+1     :     0.000866
      f-1     :     0.000544
      f+2     :     0.000966
      f-2     :     0.000809
      f+3     :     0.000724
      f-3     :     0.000473

 19 C s       :     3.321780  s :     3.321780
      pz      :     0.977680  p :     3.047090
      px      :     1.039124
      py      :     1.030285
      dz2     :     0.011770  d :     0.054889
      dxz     :     0.015297
      dyz     :     0.008031
      dx2y2   :     0.007873
      dxy     :     0.011919
      f0      :     0.000515  f :     0.003275
      f+1     :     0.000516
      f-1     :     0.000370
      f+2     :     0.000656
      f-2     :     0.000648
      f+3     :     0.000310
      f-3     :     0.000260

 20 H s       :     0.849011  s :     0.849011
      pz      :     0.008850  p :     0.018170
      px      :     0.004954
      py      :     0.004366

 21 H s       :     0.838362  s :     0.838362
      pz      :     0.007766  p :     0.018471
      px      :     0.006549
      py      :     0.004156

 22 H s       :     0.846488  s :     0.846488
      pz      :     0.003543  p :     0.018205
      px      :     0.003531
      py      :     0.011131

 23 H s       :     0.846801  s :     0.846801
      pz      :     0.003575  p :     0.018866
      px      :     0.003433
      py      :     0.011858

 24 H s       :     0.833728  s :     0.833728
      pz      :     0.009895  p :     0.018472
      px      :     0.004496
      py      :     0.004081

 25 H s       :     0.843626  s :     0.843626
      pz      :     0.003567  p :     0.018420
      px      :     0.003464
      py      :     0.011389

 26 H s       :     0.840204  s :     0.840204
      pz      :     0.009468  p :     0.018137
      px      :     0.004267
      py      :     0.004402

 27 H s       :     0.838848  s :     0.838848
      pz      :     0.007229  p :     0.018020
      px      :     0.005964
      py      :     0.004828

 28 H s       :     0.814963  s :     0.814963
      pz      :     0.010191  p :     0.019198
      px      :     0.004409
      py      :     0.004598

 29 H s       :     0.799935  s :     0.799935
      pz      :     0.009859  p :     0.019478
      px      :     0.005140
      py      :     0.004479

 30 H s       :     0.834710  s :     0.834710
      pz      :     0.008181  p :     0.018272
      px      :     0.004983
      py      :     0.005108

 31 H s       :     0.811908  s :     0.811908
      pz      :     0.004028  p :     0.019942
      px      :     0.003841
      py      :     0.012073

 32 H s       :     0.802640  s :     0.802640
      pz      :     0.009100  p :     0.019391
      px      :     0.005852
      py      :     0.004438

 33 H s       :     0.785786  s :     0.785786
      pz      :     0.006764  p :     0.019631
      px      :     0.005314
      py      :     0.007553

 34 H s       :     0.802636  s :     0.802636
      pz      :     0.006773  p :     0.019383
      px      :     0.006938
      py      :     0.005673

 35 H s       :     0.827077  s :     0.827077
      pz      :     0.006328  p :     0.018910
      px      :     0.006839
      py      :     0.005743

 36 H s       :     0.821390  s :     0.821390
      pz      :     0.006979  p :     0.019141
      px      :     0.004394
      py      :     0.007768

 37 H s       :     0.833153  s :     0.833153
      pz      :     0.006967  p :     0.018386
      px      :     0.004197
      py      :     0.007222

 38 H s       :     0.835812  s :     0.835812
      pz      :     0.006147  p :     0.018712
      px      :     0.006953
      py      :     0.005612

 39 H s       :     0.835848  s :     0.835848
      pz      :     0.006719  p :     0.018258
      px      :     0.004303
      py      :     0.007236

 40 H s       :     0.842253  s :     0.842253
      pz      :     0.006170  p :     0.018453
      px      :     0.006899
      py      :     0.005383

 41 H s       :     0.843866  s :     0.843866
      pz      :     0.006037  p :     0.018374
      px      :     0.004404
      py      :     0.007933

 42 H s       :     0.843138  s :     0.843138
      pz      :     0.008529  p :     0.018555
      px      :     0.004350
      py      :     0.005676

 43 H s       :     0.838910  s :     0.838910
      pz      :     0.009455  p :     0.018554
      px      :     0.004041
      py      :     0.005058

 44 H s       :     0.835984  s :     0.835984
      pz      :     0.004024  p :     0.018491
      px      :     0.008104
      py      :     0.006363

 45 H s       :     0.844469  s :     0.844469
      pz      :     0.005705  p :     0.018219
      px      :     0.004857
      py      :     0.007657

 46 H s       :     0.782227  s :     0.782227
      pz      :     0.003747  p :     0.020101
      px      :     0.008819
      py      :     0.007535

 47 H s       :     0.783783  s :     0.783783
      pz      :     0.010175  p :     0.019890
      px      :     0.004614
      py      :     0.005101

 48 H s       :     0.817291  s :     0.817291
      pz      :     0.009465  p :     0.018647
      px      :     0.004457
      py      :     0.004726

 49 H s       :     0.819303  s :     0.819303
      pz      :     0.003773  p :     0.019177
      px      :     0.008493
      py      :     0.006911

 50 H s       :     0.828821  s :     0.828821
      pz      :     0.008068  p :     0.018388
      px      :     0.006962
      py      :     0.003358

 51 H s       :     0.829244  s :     0.829244
      pz      :     0.004567  p :     0.018429
      px      :     0.007718
      py      :     0.006145

 52 H s       :     0.819880  s :     0.819880
      pz      :     0.007283  p :     0.018511
      px      :     0.007473
      py      :     0.003755

 53 H s       :     0.833328  s :     0.833328
      pz      :     0.003876  p :     0.018507
      px      :     0.004183
      py      :     0.010448

 54 H s       :     0.843009  s :     0.843009
      pz      :     0.007335  p :     0.018298
      px      :     0.007012
      py      :     0.003952

 55 H s       :     0.855295  s :     0.855295
      pz      :     0.004074  p :     0.018531
      px      :     0.004311
      py      :     0.010147

 56 H s       :     0.840799  s :     0.840799
      pz      :     0.007905  p :     0.018283
      px      :     0.006499
[...]
      px      :     0.015195
      py      :     0.015874

 48 H s       :     0.805579  s :     0.805579
      pz      :     0.026647  p :     0.055926
      px      :     0.014886
      py      :     0.014393

 49 H s       :     0.804836  s :     0.804836
      pz      :     0.013180  p :     0.056958
      px      :     0.024106
      py      :     0.019672

 50 H s       :     0.803428  s :     0.803428
      pz      :     0.022365  p :     0.055175
      px      :     0.021278
      py      :     0.011532

 51 H s       :     0.802842  s :     0.802842
      pz      :     0.013832  p :     0.055271
      px      :     0.023081
      py      :     0.018358

 52 H s       :     0.804462  s :     0.804462
      pz      :     0.021397  p :     0.055786
      px      :     0.021883
      py      :     0.012506

 53 H s       :     0.803094  s :     0.803094
      pz      :     0.013159  p :     0.055295
      px      :     0.014065
      py      :     0.028071

 54 H s       :     0.807066  s :     0.807066
      pz      :     0.021468  p :     0.055002
      px      :     0.020955
      py      :     0.012579

 55 H s       :     0.810729  s :     0.810729
      pz      :     0.014051  p :     0.055492
      px      :     0.014410
      py      :     0.027031

 56 H s       :     0.818800  s :     0.818800
      pz      :     0.023026  p :     0.057599
      px      :     0.021685
      py      :     0.012889

 57 H s       :     0.820102  s :     0.820102
      pz      :     0.015237  p :     0.057752
      px      :     0.024012
      py      :     0.018503

 58 H s       :     0.820113  s :     0.820113
      pz      :     0.013807  p :     0.057475
      px      :     0.015095
      py      :     0.028573



                      *****************************
                      * MAYER POPULATION ANALYSIS *
                      *****************************

  NA   - Mulliken gross atomic population
  ZA   - Total nuclear charge
  QA   - Mulliken gross atomic charge
  VA   - Mayer's total valence
  BVA  - Mayer's bonded valence
  FA   - Mayer's free valence

  ATOM       NA         ZA         QA         VA         BVA        FA
  0 C      6.4305     6.0000    -0.4305     3.8527     3.8527    -0.0000
  1 C      6.2550     6.0000    -0.2550     3.7519     3.7519    -0.0000
  2 C      6.2893     6.0000    -0.2893     3.7931     3.7931    -0.0000
  3 C      6.3052     6.0000    -0.3052     3.7436     3.7436    -0.0000
  4 C      6.2637     6.0000    -0.2637     3.7795     3.7795     0.0000
  5 C      6.4464     6.0000    -0.4464     3.6983     3.6983    -0.0000
  6 P     14.2824    15.0000     0.7176     4.7793     4.7793    -0.0000
  7 O      8.5986     8.0000    -0.5986     1.9833     1.9833    -0.0000
  8 C      6.4471     6.0000    -0.4471     3.6555     3.6555    -0.0000
  9 C      6.3259     6.0000    -0.3259     3.6982     3.6982     0.0000
 10 C      6.2806     6.0000    -0.2806     3.7212     3.7212    -0.0000
 11 C      6.2700     6.0000    -0.2700     3.7373     3.7373    -0.0000
 12 C      6.2455     6.0000    -0.2455     3.7813     3.7813     0.0000
 13 C      6.4458     6.0000    -0.4458     3.8277     3.8277    -0.0000
 14 C      6.4603     6.0000    -0.4603     3.6162     3.6162    -0.0000
 15 C      6.3342     6.0000    -0.3342     3.6891     3.6891    -0.0000
 16 C      6.2695     6.0000    -0.2695     3.7710     3.7710    -0.0000
 17 C      6.3105     6.0000    -0.3105     3.7148     3.7148    -0.0000
 18 C      6.2571     6.0000    -0.2571     3.7498     3.7498    -0.0000
 19 C      6.4270     6.0000    -0.4270     3.8651     3.8651     0.0000
 20 H      0.8672     1.0000     0.1328     0.9553     0.9553     0.0000
 21 H      0.8568     1.0000     0.1432     0.9581     0.9581     0.0000
 22 H      0.8647     1.0000     0.1353     0.9561     0.9561     0.0000
 23 H      0.8657     1.0000     0.1343     0.9508     0.9508    -0.0000
 24 H      0.8522     1.0000     0.1478     0.9488     0.9488    -0.0000
 25 H      0.8620     1.0000     0.1380     0.9565     0.9565    -0.0000
 26 H      0.8583     1.0000     0.1417     0.9531     0.9531    -0.0000
 27 H      0.8569     1.0000     0.1431     0.9463     0.9463    -0.0000
 28 H      0.8342     1.0000     0.1658     0.9691     0.9691     0.0000
 29 H      0.8194     1.0000     0.1806     0.9598     0.9598     0.0000
 30 H      0.8530     1.0000     0.1470     0.9520     0.9520     0.0000
 31 H      0.8318     1.0000     0.1682     0.9566     0.9566     0.0000
 32 H      0.8220     1.0000     0.1780     0.9427     0.9427    -0.0000
 33 H      0.8054     1.0000     0.1946     0.9613     0.9613    -0.0000
 34 H      0.8220     1.0000     0.1780     0.9573     0.9573    -0.0000
 35 H      0.8460     1.0000     0.1540     0.9566     0.9566     0.0000
 36 H      0.8405     1.0000     0.1595     0.9444     0.9444     0.0000
 37 H      0.8515     1.0000     0.1485     0.9549     0.9549     0.0000
 38 H      0.8545     1.0000     0.1455     0.9528     0.9528     0.0000
 39 H      0.8541     1.0000     0.1459     0.9537     0.9537    -0.0000
 40 H      0.8607     1.0000     0.1393     0.9571     0.9571    -0.0000
 41 H      0.8622     1.0000     0.1378     0.9516     0.9516     0.0000
 42 H      0.8617     1.0000     0.1383     0.9533     0.9533     0.0000
 43 H      0.8575     1.0000     0.1425     0.9522     0.9522     0.0000
 44 H      0.8545     1.0000     0.1455     0.9590     0.9590     0.0000
 45 H      0.8627     1.0000     0.1373     0.9549     0.9549    -0.0000
 46 H      0.8023     1.0000     0.1977     0.9526     0.9526     0.0000
 47 H      0.8037     1.0000     0.1963     0.9540     0.9540    -0.0000
 48 H      0.8359     1.0000     0.1641     0.9539     0.9539    -0.0000
 49 H      0.8385     1.0000     0.1615     0.9324     0.9324    -0.0000
 50 H      0.8472     1.0000     0.1528     0.9534     0.9534     0.0000
 51 H      0.8477     1.0000     0.1523     0.9550     0.9550     0.0000
 52 H      0.8384     1.0000     0.1616     0.9450     0.9450     0.0000
 53 H      0.8518     1.0000     0.1482     0.9582     0.9582     0.0000
 54 H      0.8613     1.0000     0.1387     0.9497     0.9497     0.0000
 55 H      0.8738     1.0000     0.1262     0.9439     0.9439     0.0000
 56 H      0.8591     1.0000     0.1409     0.9557     0.9557    -0.0000
 57 H      0.8568     1.0000     0.1432     0.9579     0.9579    -0.0000
 58 H      0.8611     1.0000     0.1389     0.9563     0.9563     0.0000

  Mayer bond orders larger than 0.100000
B(  0-C ,  1-C ) :   0.9458 B(  0-C , 20-H ) :   0.9724 B(  0-C , 21-H ) :   0.9821 
B(  0-C , 22-H ) :   0.9763 B(  1-C ,  2-C ) :   0.9172 B(  1-C , 23-H ) :   0.9748 
B(  1-C , 24-H ) :   0.9684 B(  2-C ,  3-C ) :   0.9624 B(  2-C , 25-H ) :   0.9777 
B(  2-C , 26-H ) :   0.9817 B(  3-C ,  4-C ) :   0.8912 B(  3-C , 27-H ) :   0.9692 
B(  3-C , 28-H ) :   0.9642 B(  4-C ,  5-C ) :   0.9477 B(  4-C , 29-H ) :   0.9648 
B(  4-C , 30-H ) :   0.9770 B(  5-C ,  6-P ) :   0.8880 B(  5-C , 31-H ) :   0.9566 
B(  5-C , 32-H ) :   0.9331 B(  6-P ,  7-O ) :   1.9567 B(  6-P ,  8-C ) :   0.9230 
B(  6-P , 14-C ) :   0.9066 B(  8-C ,  9-C ) :   0.8499 B(  8-C , 33-H ) :   0.9496 
B(  8-C , 34-H ) :   0.9641 B(  9-C , 10-C ) :   0.9249 B(  9-C , 35-H ) :   0.9747 
B(  9-C , 36-H ) :   0.9819 B( 10-C , 11-C ) :   0.8974 B( 10-C , 37-H ) :   0.9741 
B( 10-C , 38-H ) :   0.9823 B( 11-C , 12-C ) :   0.9411 B( 11-C , 39-H ) :   0.9879 
B( 11-C , 40-H ) :   0.9762 B( 12-C , 13-C ) :   0.9268 B( 12-C , 41-H ) :   0.9780 
B( 12-C , 42-H ) :   0.9839 B( 13-C , 43-H ) :   0.9747 B( 13-C , 44-H ) :   0.9763 
B( 13-C , 45-H ) :   0.9694 B( 14-C , 15-C ) :   0.8319 B( 14-C , 46-H ) :   0.9493 
B( 14-C , 47-H ) :   0.9504 B( 15-C , 16-C ) :   0.9238 B( 15-C , 48-H ) :   0.9707 
B( 15-C , 49-H ) :   0.9797 B( 16-C , 17-C ) :   0.9239 B( 16-C , 50-H ) :   0.9871 
B( 16-C , 51-H ) :   0.9873 B( 17-C , 18-C ) :   0.9080 B( 17-C , 52-H ) :   0.9749 
B( 17-C , 53-H ) :   0.9771 B( 18-C , 19-C ) :   0.9601 B( 18-C , 54-H ) :   0.9698 
B( 18-C , 55-H ) :   0.9658 B( 19-C , 56-H ) :   0.9716 B( 19-C , 57-H ) :   0.9803 
B( 19-C , 58-H ) :   0.9767 

-------
TIMINGS
-------

Total SCF time: 0 days 0 hours 2 min 40 sec 

Total time                  ....     160.106 sec
Sum of individual times     ....     160.223 sec  (100.1%)

SCF preparation             ....       0.358 sec  (  0.2%)
Fock matrix formation       ....     153.607 sec  ( 95.9%)
  Startup                   ....       0.207 sec  (  0.1% of F)
  Split-RI-J                ....      11.794 sec  (  7.7% of F)
  Chain of spheres X        ....     111.374 sec  ( 72.5% of F)
  XC integration            ....      29.779 sec  ( 19.4% of F)
    Basis function eval.    ....       4.558 sec  ( 15.3% of XC)
    Density eval.           ....      11.881 sec  ( 39.9% of XC)
    XC-Functional eval.     ....       0.616 sec  (  2.1% of XC)
    XC-Potential eval.      ....      10.049 sec  ( 33.7% of XC)
Diagonalization             ....       0.000 sec  (  0.0%)
Density matrix formation    ....       0.673 sec  (  0.4%)
Total Energy calculation    ....       0.155 sec  (  0.1%)
Population analysis         ....       0.293 sec  (  0.2%)
Orbital Transformation      ....       0.725 sec  (  0.5%)
Orbital Orthonormalization  ....       0.000 sec  (  0.0%)
DIIS solution               ....       3.370 sec  (  2.1%)
SOSCF solution              ....       1.042 sec  (  0.7%)
Finished LeanSCF after 160.2 sec

Maximum memory used throughout the entire LEANSCF-calculation: 134.5 MB


-------------------------------------------------------------------------------
                          DFT DISPERSION CORRECTION                            
                                                                               
                              DFTD3 V3.1  Rev 1                                
                              USING zero damping                               
-------------------------------------------------------------------------------
The M062X functional is recognized
Active option DFTDOPT                   ...         3   

molecular C6(AA) [au] = 25889.019052 


            DFT-D V3
 parameters
 s6 scaling factor         :     1.0000 
 rs6 scaling factor        :     1.6190 
 s8 scaling factor         :     0.0000 
 rs8 scaling factor        :     1.0000 
 Damping factor alpha6     :    14.0000 
 Damping factor alpha8     :    16.0000 
 ad hoc parameters k1-k3   :    16.0000     1.3333    -4.0000 

 Edisp/kcal,au: -2.432055273492  -0.003875726367 
 E6   /kcal   :  -2.432055273 
 E8   /kcal   :  -0.000000000 
 % E8         :   0.000000000 

-------------------------   ----------------
Dispersion correction           -0.003875726
-------------------------   ----------------


-------------------------   --------------------
FINAL SINGLE POINT ENERGY     -1125.932091791038
-------------------------   --------------------



           ************************************************************
           *        Program running with 6 parallel MPI-processes     *
           *              working on a common directory               *
           ************************************************************

------------------------------------------------------------------------------
                              ORCA PROPERTY CALCULATIONS
------------------------------------------------------------------------------

GBWName                                 ... data/single_point_PO_M06-2x/77831/77831.gbw
Number of atoms                         ...     59
Number of basis functions               ...    860
Max core memory                         ...   1024 MB

Electric properties:
Dipole moment                           ... YES
Quadrupole moment                       ...  NO
Static polarizability (Dipole/Dipole)   ...  NO
Static polarizability (Dipole/Quad.)    ...  NO
Static polarizability (Quad./Quad.)     ...  NO
Static polarizability (Velocity)        ...  NO

Atomic electric properties:
Dipole moment                           ...  NO
Quadrupole moment                       ...  NO
Static polarizability                   ...  NO

Choice of electric origin               ... Center of mass
Position of electric origin             ...     0.364931    -0.080045    -0.220123

General magnetic properties:
Magnetizability                         ...  NO

EPR properties:
g-Tensor (aka g-matrix)                 ...  NO
Zero-Field splitting spin-orbit         ...  NO
Zero-field splitting spin-spin          ...  NO
Hyperfine couplings                     ...  NO (   0 nuclei)
Quadrupole couplings                    ...  NO (   0 nuclei)
Contact density                         ...  NO (   0 nuclei)

NMR properties:
Chemical shifts                         ...  NO (   0 nuclei)
Spin-rotation constants                 ...  NO (   0 nuclei)
Spin-spin couplings                     ...  NO (   0 nuclei,    0 pairs)

Choice of magnetic origin               ... GIAO
Position of magnetic origin             ...     0.000000     0.000000     0.000000

Properties with geometric perturbations:
SCF Hessian                             ...  NO
IR spectrum                             ...  NO
VCD spectrum                            ...  NO
X-ray spectroscopy properties:
SCF XES/XAS/RIXS spectra                ...  NO


-------------
DIPOLE MOMENT
-------------

Method             : SCF
Type of density    : Electron Density
Multiplicity       :   1
Irrep              :   0
Energy             : -1125.9282160646714601 Eh
Relativity type    : 
Basis              : AO
                                X                 Y                 Z
Electronic contribution:      9.190604510      -2.473587761      -4.676076075
Nuclear contribution   :    -10.434665613       2.333969824       5.956791738
                        -----------------------------------------
Total Dipole Moment    :     -1.244061103      -0.139617937       1.280715662
                        -----------------------------------------
Magnitude (a.u.)       :      1.790925404
Magnitude (Debye)      :      4.552170611



--------------------
Rotational spectrum 
--------------------
 
Rotational constants in cm-1:             0.009790             0.004161             0.003199 
Rotational constants in MHz :           293.510218           124.747261            95.895082 

Dipole components along the rotational axes: 
x,y,z [a.u.] :     1.140500     0.082706     1.378344 
x,y,z [Debye]:     2.898921     0.210221     3.503472 

 

Dipole moment calculation done in   0.1 sec 

Maximum memory used throughout the entire PROP-calculation: 71.2 MB

--------------------------------
SUGGESTED CITATIONS FOR THIS RUN
--------------------------------

Below you find a list of papers that are relevant to this ORCA run
We neither can nor want to force you to cite these papers, but we appreciate if you do
You receive ORCA, which is the product of decades of hard work by many enthusiastic individuals, for free
The only thing we kindly ask in return is that you cite our papers,
We deeply appreciate it, if you show your appreciation for ORCA by not just citing the generic ORCA reference.

Please note that relegating all ORCA citations to the supporting information does *not* help us.
SI sections are not indexed - citations you put there will not count into any citation statistics
But we need these citations in order to attract the funding resources that allow us to do what we are doing

Therefore, if you are a happy ORCA user, please consider citing a few of the papers listed below in the main body of your paper

In addition to the list printed below, the program has created the file data/single_point_PO_M06-2x/77831/77831.bibtex that contains the list in bibtex format
You can import this file easily into all common literature databanks and citation aid programs


List of essential papers. We consider these as the minimum necessary citations

  1. Neese,F.
     Software update: the ORCA program system, version 5.0
     WIRES Comput. Molec. Sci., 2022 12(1)e1606
     doi.org/10.1002/wcms.1606

List of papers to cite with high priority. The work reported in these papers was absolutely
necessary for this run to complete.
Our perspective: the developers of density functionals and basis sets usually get cited in chemistry papers
Good! But without the algorithms to do something with them, the functionals or basis sets would not do anything.
Hence, in our opinion, the algorithm design and method developments papers are equally worthy of getting cited

  1. Neese,F.
     An improvement of the resolution of the identity approximation for the formation of the Coulomb matrix
     J. Comp. Chem., 2003 24(14)1740-1747
     doi.org/10.1002/jcc.10318
  2. Neese,F.; Wennmohs,F.; Hansen,A.; Becker,U.
     Efficient, approximate and parallel Hartree-Fock and hybrid DFT calculations. A 'chain-of-spheres' algorithm for the Hartree-Fock exchange
     Chem. Phys., 2009 356(1-3)98-109
     doi.org/10.1016/j.chemphys.2008.10.036
  3. Helmich-Paris,B.; de Souza,B.; Neese,F.; Izsák,R.
     An improved chain of spheres for exchange algorithm
     J. Chem. Phys., 2021 155 104109
     doi.org/doi: 10.1063/5.0058766.
  4. Neese,F.
     The SHARK Integral Generation and Digestion System
     J. Comp. Chem., 2022  1-16
     doi.org/10.1002/jcc.26942
  5. Grimme,S.; Antony,J.; Ehrlich,S.; Krieg,H.
     A consistent and accurate ab initio parametrization of density functional dispersion correction (DFT-D) for the 94 elements H-Pu
     J. Chem. Phys., 2010 132 154104-XXXX
     doi.org/10.1063/1.3382344

List of suggested additional citations. These are papers that are important in the 'surrounding' of 
of this run, or papers that preceded the highly important papers. If you like your results we are grateful for a citation.

  1. Izsak,R.; Neese,F.
     An overlap fitted chain of spheres exchange method
     J. Chem. Phys., 2011 135 144105
     doi.org/10.1063/1.3646921
  2. Izsak,R.; Hansen,A.; Neese,F.
     The resolution of identity and chain of spheres approximations for the LPNO-CCSD singles Fock term
     Molec. Phys., 2012 110 2413-2417
     doi.org/10.1080/00268976.2012.687466
  3. Neese,F.
     The ORCA program system
     WIRES Comput. Molec. Sci., 2012 2(1)73-78
     doi.org/10.1002/wcms.81
  4. Izsak,R.; Neese,F.; Klopper,W.
     Robust fitting techniques in the chain of spheres approximation to the Fock exchange: The role of the complementary space
     J. Chem. Phys., 2013 139 
     doi.org/10.1063/1.4819264
  5. Neese,F.
     Software update: the ORCA program system, version 4.0
     WIRES Comput. Molec. Sci., 2018 8(1)1-6
     doi.org/10.1002/wcms.1327
  6. Neese,F.; Wennmohs,F.; Becker,U.; Riplinger,C.
     The ORCA quantum chemistry program package
     J. Chem. Phys., 2020 152 Art. No. L224108
     doi.org/10.1063/5.0004608

List of optional additional citations

  1. Neese,F.
     Approximate second-order SCF convergence for spin unrestricted wavefunctions
     Chem. Phys. Lett., 2000 325(1-3)93-98
     doi.org/10.1016/s0009-2614(00)00662-x

Timings for individual modules:

Sum of individual times          ...      168.760 sec (=   2.813 min)
Startup calculation              ...        5.505 sec (=   0.092 min)   3.3 %
SCF iterations                   ...      162.905 sec (=   2.715 min)  96.5 %
Property calculations            ...        0.350 sec (=   0.006 min)   0.2 %
                             ****ORCA TERMINATED NORMALLY****
TOTAL RUN TIME: 0 days 0 hours 2 minutes 49 seconds 43 msec
