
                                 *****************
                                 * O   R   C   A *
                                 *****************

                                            #,                                       
                                            ###                                      
                                            ####                                     
                                            #####                                    
                                            ######                                   
                                           ########,                                 
                                     ,,################,,,,,                         
                               ,,#################################,,                 
                          ,,##########################################,,             
                       ,#########################################, ''#####,          
                    ,#############################################,,   '####,        
                  ,##################################################,,,,####,       
                ,###########''''           ''''###############################       
              ,#####''   ,,,,##########,,,,          '''####'''          '####       
            ,##' ,,,,###########################,,,                        '##       
           ' ,,###''''                  '''############,,,                           
         ,,##''                                '''############,,,,        ,,,,,,###''
      ,#''                                            '''#######################'''  
     '                                                          ''''####''''         
             ,#######,   #######,   ,#######,      ##                                
            ,#'     '#,  ##    ##  ,#'     '#,    #''#        ,####,   ,####,        
            ##       ##  ##   ,#'  ##            #'  '#       #'       #'  '#        
            ##       ##  #######   ##           ,######,      #####,   #    #        
            '#,     ,#'  ##    ##  '#,     ,#' ,#      #,     #,   #   #,  ,#        
             '#######'   ##     ##  '#######'  #'      '#     '####' # '####'        



                #########################################################
                #                        -***-                          #
                #          Department of theory and spectroscopy        #
                #                                                       #
                #                      Frank Neese                      #
                #                                                       #
                #     Directorship, Architecture, Infrastructure        #
                #                    SHARK, DRIVERS                     #
                #        Core code/Algorithms in most modules           #
                #                                                       #
                #        Max Planck Institute fuer Kohlenforschung      #
                #                Kaiser Wilhelm Platz 1                 #
                #                 D-45470 Muelheim/Ruhr                 #
                #                      Germany                          #
                #                                                       #
                #                  All rights reserved                  #
                #                        -***-                          #
                #########################################################


                         Program Version 6.0.0  -   RELEASE   -


 With contributions from (in alphabetic order):
   Daniel Aravena         : Magnetic Suceptibility
   Michael Atanasov       : Ab Initio Ligand Field Theory (pilot matlab implementation)
   Alexander A. Auer      : GIAO ZORA, VPT2 properties, NMR spectrum
   Ute Becker             : All parallelization in ORCA, NUMFREQ, NUMCALC
   Giovanni Bistoni       : ED, misc. LED, open-shell LED, HFLD
   Martin Brehm           : Molecular dynamics
   Dmytro Bykov           : pre 5.0 version of the SCF Hessian
   Marcos Casanova-Páez   : Triplet and SCS-CIS(D). UHF-(DLPNO)-IP/EA/STEOM-CCSD. UHF-CVS-IP/STEOM-CCSD
   Vijay G. Chilkuri      : MRCI spin determinant printing, contributions to CSF-ICE
   Pauline Colinet        : FMM embedding
   Dipayan Datta          : RHF DLPNO-CCSD density
   Achintya Kumar Dutta   : EOM-CC, STEOM-CC
   Nicolas Foglia         : Exact transition moments, OPA infrastructure, MCD improvements
   Dmitry Ganyushin       : Spin-Orbit,Spin-Spin,Magnetic field MRCI
   Miquel Garcia          : C-PCM and meta-GGA Hessian, CCSD/C-PCM, Gaussian charge scheme
   Tiago L. C. Gouveia    : GS-ROHF, GS-ROCIS
   Yang Guo               : DLPNO-NEVPT2, F12-NEVPT2, CIM, IAO-localization
   Andreas Hansen         : Spin unrestricted coupled pair/coupled cluster methods
   Ingolf Harden          : AUTO-CI MPn and infrastructure 
   Benjamin Helmich-Paris : MC-RPA, TRAH-(SCF,CASSCF), AVAS, COSX integrals, SCF dyn. polar.
   Lee Huntington         : MR-EOM, pCC
   Robert Izsak           : Overlap fitted RIJCOSX, COSX-SCS-MP3, EOM
   Riya Kayal             : Wick's Theorem for AUTO-CI, AUTO-CI UHF-CCSDT
   Emily Kempfer          : AUTO-CI, RHF CISDT and CCSDT
   Christian Kollmar      : KDIIS, OOCD, Brueckner-CCSD(T), CCSD density, CASPT2, CASPT2-K, improved NEVPT2
   Axel Koslowski         : Symmetry handling
   Simone Kossmann        : Meta GGA functionals, TD-DFT gradient, OOMP2, (MP2 Hessian; deprecated post 5.0)
   Lucas Lang             : DCDCAS
   Marvin Lechner         : AUTO-CI (C++ implementation), FIC-MRCC
   Spencer Leger          : CASSCF response
   Dagmar Lenk            : GEPOL surface, SMD, ORCA-2-JSON
   Dimitrios Liakos       : Extrapolation schemes; Compound Job, initial MDCI parallelization
   Dimitrios Manganas     : Further ROCIS development; embedding schemes. LFT, Crystal Embedding
   Dimitrios Pantazis     : SARC Basis sets
   Anastasios Papadopoulos: AUTO-CI, single reference methods and gradients
   Taras Petrenko         : pre 6.0 DFT Hessian and TD-DFT gradient, (ASA, deprecated), ECA, 1-Electron XAS/XES, NRVS
   Peter Pinski           : DLPNO-MP2, DLPNO-MP2 Gradient
   Christoph Reimann      : Effective Core Potentials
   Marius Retegan         : Local ZFS, SOC
   Christoph Riplinger    : Optimizer, TS searches, QM/MM, DLPNO-CCSD(T), (RO)-DLPNO pert. Triples
   Michael Roemelt        : Original ROCIS implementation
   Masaaki Saitow         : Open-shell DLPNO-CCSD energy and density
   Barbara Sandhoefer     : DKH picture change effects
   Kantharuban Sivalingam : CASSCF convergence/infrastructure, NEVPT2 and variants, FIC-MRCI
   Bernardo de Souza      : ESD, SOC TD-DFT
   Georgi Stoychev        : AutoAux, RI-MP2 NMR, DLPNO-MP2 response, X2C
   Van Anh Tran           : RI-MP2 g-tensors
   Willem Van den Heuvel  : Paramagnetic NMR
   Zikuan Wang            : NOTCH, Electric field optimization 
   Frank Wennmohs         : Technical directorship and infrastructure
   Hang Xu                : AUTO-CI-Response properties 


 We gratefully acknowledge several colleagues who have allowed us to
 interface, adapt or use parts of their codes:
   Stefan Grimme, W. Hujo, H. Kruse, P. Pracht,  : VdW corrections, initial TS optimization,
                  C. Bannwarth, S. Ehlert,         DFT functionals, gCP, sTDA/sTD-DF
                  L. Wittmann, M. Mueller
   Ed Valeev, F. Pavosevic, A. Kumar             : LibInt (2-el integral package), F12 methods
   Garnet Chan, S. Sharma, J. Yang, R. Olivares  : DMRG
   Ulf Ekstrom                                   : XCFun DFT Library
   Mihaly Kallay                                 : mrcc  (arbitrary order and MRCC methods)
   Frank Weinhold                                : gennbo (NPA and NBO analysis)
   Simon Mueller                                 : openCOSMO-RS
   Christopher J. Cramer and Donald G. Truhlar   : smd solvation model
   Lars Goerigk                                  : TD-DFT with DH, B97 family of functionals
   V. Asgeirsson, H. Jonsson                     : NEB implementation
   FAccTs GmbH                                   : IRC, NEB, NEB-TS, DLPNO-Multilevel, CI-OPT
                                                   MM, QMMM, 2- and 3-layer-ONIOM, Crystal-QMMM,
                                                   LR-CPCM, SF, NACMEs, symmetry and pop. for TD-DFT,
                                                   nearIR, NL-DFT gradient (VV10), updates on ESD,
                                                   ML-optimized integration grids, MBIS, APM,
                                                   GOAT, DOCKER, SOLVATOR, interface openCOSMO-RS
   S Lehtola, MJT Oliveira, MAL Marques          : LibXC Library
   Liviu Ungur et al                             : ANISO software


 Your calculation uses the libint2 library for the computation of 2-el integrals
 For citations please refer to: http://libint.valeyev.net

 Your ORCA version has been built with support for libXC version: 6.2.2
 For citations please refer to: https://libxc.gitlab.io

 This ORCA versions uses:
   CBLAS   interface :  Fast vector & matrix operations
   LAPACKE interface :  Fast linear algebra routines
   Shared memory     :  Shared parallel matrices


Your calculation utilizes the atom-pairwise dispersion correction
with the Becke-Johnson damping scheme (D3BJ)


Warning: RI is on but no J-basis has been assigned. Assigning Def2/J (nothing to worry about!)
================================================================================

----- Orbital basis set information -----
Your calculation utilizes the basis: def2-SVP
   F. Weigend and R. Ahlrichs, Phys. Chem. Chem. Phys. 7, 3297 (2005).

----- AuxJ basis set information -----
Your calculation utilizes the auxiliary basis: def2/J
   F. Weigend, Phys. Chem. Chem. Phys. 8, 1057 (2006).

================================================================================
                                        WARNINGS
                       Please study these warnings very carefully!
================================================================================


WARNING: Geometry Optimization
  ===> : Switching off AutoStart
         For restart on a previous wavefunction, please use MOREAD

================================================================================
                                       INPUT FILE
================================================================================
NAME = data/geom_opt/74149/74149.inp
|  1> ! RIJONX B3LYP def2-SVP D3BJ TIGHTSCF Opt
|  2> %pal
|  3> nprocs 6
|  4> end
|  5> 
|  6> * xyz 0 1
|  7> C     -1.701617   -2.562064   -0.358155
|  8> C     -2.047904   -1.085423   -0.255030
|  9> P     -0.984343   -0.195817    0.965631
| 10> C     -1.612198    1.523825    0.718241
| 11> C     -0.848874    2.544629    1.546681
| 12> C      0.630385   -0.152941    0.127816
| 13> C      0.808028    0.306627   -1.183776
| 14> C      2.075355    0.315158   -1.773995
| 15> C      3.182427   -0.135986   -1.060120
| 16> C      3.023187   -0.595850    0.244027
| 17> C      1.756056   -0.603978    0.833076
| 18> H     -2.385270   -3.059210   -1.054233
| 19> H     -1.788600   -3.064061    0.611733
| 20> H     -0.682227   -2.715282   -0.727873
| 21> H     -1.987809   -0.623639   -1.245700
| 22> H     -3.089607   -0.992960    0.072698
| 23> H     -2.665565    1.546438    1.019913
| 24> H     -1.581377    1.810306   -0.337820
| 25> H     -0.891573    2.307832    2.615490
| 26> H     -1.283283    3.540087    1.407355
| 27> H      0.205116    2.598609    1.254250
| 28> H     -0.034039    0.665504   -1.768925
| 29> H      2.196040    0.674892   -2.792439
| 30> H      4.167354   -0.129268   -1.519055
| 31> H      3.883350   -0.949227    0.806331
| 32> H      1.656987   -0.968202    1.853881
| 33> **                         ****END OF INPUT****
================================================================================

                       *****************************
                       * Geometry Optimization Run *
                       *****************************

Geometry optimization settings:
Update method            Update   .... BFGS
Choice of coordinates    CoordSys .... (2022) Redundant Internals
Initial Hessian          InHess   .... Almloef's Model
Max. no of cycles        MaxIter  .... 78

Convergence Tolerances:
Energy Change            TolE     ....  5.0000e-06 Eh
Max. Gradient            TolMAXG  ....  3.0000e-04 Eh/bohr
RMS Gradient             TolRMSG  ....  1.0000e-04 Eh/bohr
Max. Displacement        TolMAXD  ....  4.0000e-03 bohr
RMS Displacement         TolRMSD  ....  2.0000e-03 bohr
Strict Convergence                .... False

------------------------------------------------------------------------------
                        ORCA OPTIMIZATION COORDINATE SETUP
------------------------------------------------------------------------------

The optimization will be done in redundant internal coordinates (2022)
Making redundant internal coordinates   ...  (2022 redundants) done
Evaluating the initial hessian          ...  (Almloef) done
Evaluating the coordinates              ...  done
Calculating the B-matrix                .... done
Calculating the G-matrix                .... done
Diagonalizing the G-matrix              .... done
Small eigenvalue found = 1.226e-02
Small eigenvalue found = 1.723e-02
Small eigenvalue found = 2.416e-02
The first mode is                       ....   49
The number of degrees of freedom        ....   72

    -----------------------------------------------------------------
                    Redundant Internal Coordinates


    -----------------------------------------------------------------
         Definition                    Initial Value    Approx d2E/dq
    -----------------------------------------------------------------
      1. B(C   1,C   0)                  1.5202         0.387264   
      2. B(P   2,C   1)                  1.8473         0.391395   
      3. B(C   3,P   2)                  1.8473         0.391395   
      4. B(C   4,C   3)                  1.5202         0.387265   
      5. B(C   5,P   2)                  1.8196         0.433268   
      6. B(C   6,C   5)                  1.4011         0.599869   
      7. B(C   7,C   6)                  1.3981         0.606586   
      8. B(C   8,C   7)                  1.3924         0.619329   
      9. B(C   9,C   8)                  1.3920         0.620249   
     10. B(C  10,C   9)                  1.3974         0.608089   
     11. B(C  10,C   5)                  1.4028         0.596009   
     12. B(H  11,C   0)                  1.0950         0.353525   
     13. B(H  12,C   0)                  1.0956         0.352821   
     14. B(H  13,C   0)                  1.0951         0.353369   
     15. B(H  14,C   1)                  1.0947         0.353986   
     16. B(H  15,C   1)                  1.0959         0.352318   
     17. B(H  16,C   3)                  1.0959         0.352318   
     18. B(H  17,C   3)                  1.0947         0.353985   
     19. B(H  18,C   4)                  1.0956         0.352821   
     20. B(H  19,C   4)                  1.0950         0.353526   
     21. B(H  20,C   4)                  1.0951         0.353368   
     22. B(H  21,C   6)                  1.0864         0.364892   
     23. B(H  22,C   7)                  1.0868         0.364317   
     24. B(H  23,C   8)                  1.0866         0.364596   
     25. B(H  24,C   9)                  1.0867         0.364477   
     26. B(H  25,C  10)                  1.0884         0.362283   
     27. A(C   1,C   0,H  11)          109.9929         0.325256   
     28. A(H  11,C   0,H  12)          107.7677         0.289072   
     29. A(C   1,C   0,H  12)          111.5270         0.325149   
     30. A(C   1,C   0,H  13)          111.7671         0.325232   
     31. A(H  12,C   0,H  13)          107.9792         0.289052   
     32. A(H  11,C   0,H  13)          107.6394         0.289143   
     33. A(H  14,C   1,H  15)          106.6915         0.289067   
     34. A(C   0,C   1,H  14)          109.6252         0.325326   
     35. A(P   2,C   1,H  15)          107.9997         0.345746   
     36. A(C   0,C   1,P   2)          112.4233         0.392278   
     37. A(C   0,C   1,H  15)          108.5874         0.325073   
     38. A(P   2,C   1,H  14)          111.2997         0.346021   
     39. A(C   1,P   2,C   3)           99.4460         0.418836   
     40. A(C   3,P   2,C   5)          102.5919         0.426512   
     41. A(C   1,P   2,C   5)          102.5919         0.426512   
     42. A(H  16,C   3,H  17)          106.6914         0.289067   
     43. A(C   4,C   3,H  17)          109.6251         0.325326   
     44. A(C   4,C   3,H  16)          108.5874         0.325073   
     45. A(P   2,C   3,H  16)          107.9998         0.345747   
     46. A(P   2,C   3,C   4)          112.4233         0.392278   
     47. A(P   2,C   3,H  17)          111.2997         0.346021   
     48. A(C   3,C   4,H  19)          109.9929         0.325256   
     49. A(C   3,C   4,H  18)          111.5270         0.325150   
     50. A(H  19,C   4,H  20)          107.6394         0.289143   
     51. A(H  18,C   4,H  20)          107.9792         0.289052   
     52. A(C   3,C   4,H  20)          111.7671         0.325232   
     53. A(H  18,C   4,H  19)          107.7677         0.289073   
     54. A(P   2,C   5,C   6)          123.4534         0.431646   
     55. A(C   6,C   5,C  10)          118.3169         0.428452   
     56. A(P   2,C   5,C  10)          118.2297         0.431146   
     57. A(C   5,C   6,C   7)          120.8067         0.429806   
     58. A(C   5,C   6,H  21)          120.9499         0.351729   
     59. A(C   7,C   6,H  21)          118.2434         0.352392   
     60. A(C   8,C   7,H  22)          119.9597         0.353540   
     61. A(C   6,C   7,H  22)          119.8868         0.352298   
     62. A(C   6,C   7,C   8)          120.1535         0.432278   
     63. A(C   9,C   8,H  23)          120.0947         0.353675   
     64. A(C   7,C   8,H  23)          120.1413         0.353586   
     65. A(C   7,C   8,C   9)          119.7639         0.434013   
     66. A(C   8,C   9,C  10)          120.0393         0.432586   
     67. A(C  10,C   9,H  24)          119.8506         0.352472   
     68. A(C   8,C   9,H  24)          120.1101         0.353656   
     69. A(C   5,C  10,C   9)          120.9197         0.429499   
     70. A(C   9,C  10,H  25)          118.6765         0.352112   
     71. A(C   5,C  10,H  25)          120.4037         0.350920   
     72. D(P   2,C   1,C   0,H  12)     57.7724         0.011931   
     73. D(H  14,C   1,C   0,H  12)   -177.8716         0.011931   
     74. D(P   2,C   1,C   0,H  11)    177.2836         0.011931   
     75. D(H  14,C   1,C   0,H  13)     61.1442         0.011931   
     76. D(H  14,C   1,C   0,H  11)    -58.3604         0.011931   
     77. D(P   2,C   1,C   0,H  13)    -63.2118         0.011931   
     78. D(C   5,P   2,C   1,H  14)    -52.4209         0.003571   
     79. D(C   5,P   2,C   1,C   0)     71.0049         0.003571   
     80. D(C   3,P   2,C   1,H  15)    -63.9325         0.003571   
     81. D(C   3,P   2,C   1,H  14)     52.8637         0.003571   
     82. D(C   3,P   2,C   1,C   0)    176.2894         0.003571   
     83. D(H  16,C   3,P   2,C   1)     63.9324         0.003571   
     84. D(H  16,C   3,P   2,C   5)    169.2170         0.003571   
     85. D(C   4,C   3,P   2,C   5)    -71.0048         0.003571   
     86. D(C   4,C   3,P   2,C   1)   -176.2894         0.003571   
     87. D(H  17,C   3,P   2,C   1)    -52.8636         0.003571   
     88. D(H  19,C   4,C   3,H  17)     58.3603         0.011931   
     89. D(H  19,C   4,C   3,H  16)    -57.8474         0.011931   
     90. D(H  19,C   4,C   3,P   2)   -177.2837         0.011931   
     91. D(H  18,C   4,C   3,H  17)    177.8715         0.011931   
     92. D(H  18,C   4,C   3,H  16)     61.6638         0.011931   
     93. D(H  18,C   4,C   3,P   2)    -57.7725         0.011931   
     94. D(C  10,C   5,P   2,C   3)    128.5807         0.003839   
     95. D(C  10,C   5,P   2,C   1)   -128.5808         0.003839   
     96. D(C   6,C   5,P   2,C   3)    -51.4194         0.003839   
     97. D(C   6,C   5,P   2,C   1)     51.4191         0.003839   
     98. D(H  21,C   6,C   5,C  10)    180.0000         0.024806   
     99. D(H  21,C   6,C   5,P   2)      0.0001         0.024806   
    100. D(C   7,C   6,C   5,C  10)     -0.0000         0.024806   
    101. D(C   7,C   6,C   5,P   2)   -180.0000         0.024806   
    102. D(C   8,C   7,C   6,C   5)      0.0000         0.025396   
    103. D(H  22,C   7,C   6,H  21)      0.0000         0.025396   
    104. D(H  22,C   7,C   6,C   5)   -180.0000         0.025396   
    105. D(C   8,C   7,C   6,H  21)    180.0000         0.025396   
    106. D(H  23,C   8,C   7,H  22)     -0.0000         0.026538   
    107. D(H  23,C   8,C   7,C   6)   -180.0000         0.026538   
    108. D(C   9,C   8,C   7,H  22)    180.0000         0.026538   
    109. D(C   9,C   8,C   7,C   6)     -0.0000         0.026538   
    110. D(H  24,C   9,C   8,H  23)     -0.0000         0.026622   
    111. D(H  24,C   9,C   8,C   7)   -180.0000         0.026622   
    112. D(C  10,C   9,C   8,H  23)   -180.0000         0.026622   
    113. D(C  10,C   9,C   8,C   7)      0.0000         0.026622   
    114. D(H  25,C  10,C   9,H  24)      0.0000         0.025529   
    115. D(H  25,C  10,C   9,C   8)    180.0000         0.025529   
    116. D(C   5,C  10,C   9,H  24)    180.0000         0.025529   
    117. D(C   5,C  10,C   9,C   8)     -0.0001         0.025529   
    118. D(H  25,C  10,C   5,C   6)   -180.0000         0.024471   
    119. D(H  25,C  10,C   5,P   2)     -0.0000         0.024471   
    120. D(C   9,C  10,C   5,C   6)      0.0001         0.024471   
    121. D(C   9,C  10,C   5,P   2)   -180.0000         0.024471   
    -----------------------------------------------------------------

Number of atoms                         .... 26
Number of degrees of freedom            .... 121


         *************************************************************
         *                GEOMETRY OPTIMIZATION CYCLE   1            *
         *************************************************************
---------------------------------
CARTESIAN COORDINATES (ANGSTROEM)
---------------------------------
  C     -1.701617   -2.562064   -0.358155
  C     -2.047904   -1.085423   -0.255030
  P     -0.984343   -0.195817    0.965631
  C     -1.612198    1.523825    0.718241
  C     -0.848874    2.544629    1.546681
  C      0.630385   -0.152941    0.127816
  C      0.808028    0.306627   -1.183776
  C      2.075355    0.315158   -1.773995
  C      3.182427   -0.135986   -1.060120
  C      3.023187   -0.595850    0.244027
  C      1.756056   -0.603978    0.833076
  H     -2.385270   -3.059210   -1.054233
  H     -1.788600   -3.064061    0.611733
  H     -0.682227   -2.715282   -0.727873
  H     -1.987809   -0.623639   -1.245700
  H     -3.089607   -0.992960    0.072698
  H     -2.665565    1.546438    1.019913
  H     -1.581377    1.810306   -0.337820
  H     -0.891573    2.307832    2.615490
  H     -1.283283    3.540087    1.407355
  H      0.205116    2.598609    1.254250
  H     -0.034039    0.665504   -1.768925
  H      2.196040    0.674892   -2.792439
  H      4.167354   -0.129268   -1.519055
  H      3.883350   -0.949227    0.806331
  H      1.656987   -0.968202    1.853881

----------------------------
CARTESIAN COORDINATES (A.U.)
----------------------------
  NO LB      ZA    FRAG     MASS         X           Y           Z
   0 C     6.0000    0    12.011   -3.215590   -4.841599   -0.676815
   1 C     6.0000    0    12.011   -3.869978   -2.051152   -0.481937
   2 P    15.0000    0    30.974   -1.860139   -0.370041    1.824778
   3 C     6.0000    0    12.011   -3.046613    2.879612    1.357279
   4 C     6.0000    0    12.011   -1.604139    4.808652    2.922804
   5 C     6.0000    0    12.011    1.191255   -0.289017    0.241537
   6 C     6.0000    0    12.011    1.526952    0.579441   -2.237012
   7 C     6.0000    0    12.011    3.921853    0.595562   -3.352365
   8 C     6.0000    0    12.011    6.013915   -0.256976   -2.003336
   9 C     6.0000    0    12.011    5.712995   -1.125993    0.461144
  10 C     6.0000    0    12.011    3.318465   -1.141353    1.574285
  11 H     1.0000    0     1.008   -4.507507   -5.781069   -1.992212
  12 H     1.0000    0     1.008   -3.379964   -5.790236    1.156008
  13 H     1.0000    0     1.008   -1.289222   -5.131139   -1.375481
  14 H     1.0000    0     1.008   -3.756415   -1.178507   -2.354032
  15 H     1.0000    0     1.008   -5.838511   -1.876422    0.137379
  16 H     1.0000    0     1.008   -5.037188    2.922344    1.927356
  17 H     1.0000    0     1.008   -2.988369    3.420983   -0.638387
  18 H     1.0000    0     1.008   -1.684829    4.361170    4.942560
  19 H     1.0000    0     1.008   -2.425053    6.689795    2.659516
  20 H     1.0000    0     1.008    0.387613    4.910659    2.370189
  21 H     1.0000    0     1.008   -0.064324    1.257620   -3.342784
  22 H     1.0000    0     1.008    4.149914    1.275361   -5.276945
  23 H     1.0000    0     1.008    7.875158   -0.244281   -2.870598
  24 H     1.0000    0     1.008    7.338468   -1.793779    1.523745
  25 H     1.0000    0     1.008    3.131252   -1.829637    3.503327

--------------------------------
INTERNAL COORDINATES (ANGSTROEM)
--------------------------------
 C      0   0   0     0.000000000000     0.00000000     0.00000000
 C      1   0   0     1.520203307086     0.00000000     0.00000000
 P      2   1   0     1.847315379917   112.42326095     0.00000000
 C      3   2   1     1.847314895000    99.44596256   176.28944723
 C      4   3   2     1.520203002560   112.42329086   183.71064130
 C      3   2   1     1.819647998813   102.59189233    71.00491748
 C      6   3   2     1.401082922791   123.45338729    51.41914185
 C      7   6   3     1.398051848413   120.80668074   180.00003011
 C      8   7   6     1.392392486889   120.15348295     0.00000000
 C      9   8   7     1.391988388495   119.76391829     0.00000000
 C     10   9   8     1.397378173561   120.03929615     0.00000000
 H      1   2   3     1.095016050937   109.99290349   177.28362162
 H      1   2   3     1.095559109698   111.52702473    57.77240898
 H      1   2   3     1.095136122657   111.76710778   296.78824834
 H      2   1   3     1.094661098505   109.62517550   124.35599708
 H      2   1   3     1.095947165041   108.58743374   240.56381745
 H      4   3   2     1.095946796173   107.99982974    63.93244361
 H      4   3   2     1.094662565873   111.29972176   307.13639253
 H      5   4   3     1.095558625675   111.52700455   302.22748939
 H      5   4   3     1.095015773092   109.99292751   182.71626974
 H      5   4   3     1.095136818056   111.76712268    63.21163072
 H      7   6   3     1.086401806800   120.94987546     0.00000000
 H      8   7   6     1.086830990135   119.88677788   180.00004747
 H      9   8   7     1.086622133530   120.14133302   180.00001342
 H     10   9   8     1.086711313604   120.11007169   180.00000148
 H     11  10   9     1.088355014213   118.67651627   179.99996435

---------------------------
INTERNAL COORDINATES (A.U.)
---------------------------
 C      0   0   0     0.000000000000     0.00000000     0.00000000
 C      1   0   0     2.872767918274     0.00000000     0.00000000
 P      2   1   0     3.490920151024   112.42326095     0.00000000
 C      3   2   1     3.490919234664    99.44596256   176.28944723
 C      4   3   2     2.872767342803   112.42329086   183.71064130
 C      3   2   1     3.438636377895   102.59189233    71.00491748
 C      6   3   2     2.647663014989   123.45338729    51.41914185
 C      7   6   3     2.641935114523   120.80668074   180.00003011
 C      8   7   6     2.631240471150   120.15348295     0.00000000
 C      9   8   7     2.630476835854   119.76391829     0.00000000
 C     10   9   8     2.640662053550   120.03929615     0.00000000
 H      1   2   3     2.069280448518   109.99290349   177.28362162
 H      1   2   3     2.070306680852   111.52702473    57.77240898
 H      1   2   3     2.069507351186   111.76710778   296.78824834
 H      2   1   3     2.068609685633   109.62517550   124.35599708
 H      2   1   3     2.071039999175   108.58743374   240.56381745
 H      4   3   2     2.071039302116   107.99982974    63.93244361
 H      4   3   2     2.068612458555   111.29972176   307.13639253
 H      5   4   3     2.070305766181   111.52700455   302.22748939
 H      5   4   3     2.069279923469   109.99292751   182.71626974
 H      5   4   3     2.069508665299   111.76712268    63.21163072
 H      7   6   3     2.053001886250   120.94987546     0.00000000
 H      8   7   6     2.053812925213   119.88677788   180.00004747
 H      9   8   7     2.053418243430   120.14133302   180.00001342
 H     10   9   8     2.053586769345   120.11007169   180.00000148
 H     11  10   9     2.056692913342   118.67651627   179.99996435

---------------------
BASIS SET INFORMATION
---------------------
There are 3 groups of distinct atoms

 Group   1 Type C   : 7s4p1d contracted to 3s2p1d pattern {511/31/1}
 Group   2 Type P   : 10s7p1d contracted to 4s3p1d pattern {5311/511/1}
 Group   3 Type H   : 4s1p contracted to 2s1p pattern {31/1}

Atom   0C    basis set group =>   1
Atom   1C    basis set group =>   1
Atom   2P    basis set group =>   2
Atom   3C    basis set group =>   1
Atom   4C    basis set group =>   1
Atom   5C    basis set group =>   1
Atom   6C    basis set group =>   1
Atom   7C    basis set group =>   1
Atom   8C    basis set group =>   1
Atom   9C    basis set group =>   1
Atom  10C    basis set group =>   1
Atom  11H    basis set group =>   3
Atom  12H    basis set group =>   3
Atom  13H    basis set group =>   3
Atom  14H    basis set group =>   3
Atom  15H    basis set group =>   3
Atom  16H    basis set group =>   3
Atom  17H    basis set group =>   3
Atom  18H    basis set group =>   3
Atom  19H    basis set group =>   3
Atom  20H    basis set group =>   3
Atom  21H    basis set group =>   3
Atom  22H    basis set group =>   3
Atom  23H    basis set group =>   3
Atom  24H    basis set group =>   3
Atom  25H    basis set group =>   3
---------------------------------
AUXILIARY/J BASIS SET INFORMATION
---------------------------------
There are 3 groups of distinct atoms

 Group   1 Type C   : 12s5p4d2f1g contracted to 6s4p3d1f1g pattern {711111/2111/211/2/1}
 Group   2 Type P   : 14s5p5d2f1g contracted to 8s4p3d1f1g pattern {71111111/2111/311/2/1}
 Group   3 Type H   : 5s2p1d contracted to 3s1p1d pattern {311/2/1}

Atom   0C    basis set group =>   1
Atom   1C    basis set group =>   1
Atom   2P    basis set group =>   2
Atom   3C    basis set group =>   1
Atom   4C    basis set group =>   1
Atom   5C    basis set group =>   1
Atom   6C    basis set group =>   1
Atom   7C    basis set group =>   1
Atom   8C    basis set group =>   1
Atom   9C    basis set group =>   1
Atom  10C    basis set group =>   1
Atom  11H    basis set group =>   3
Atom  12H    basis set group =>   3
Atom  13H    basis set group =>   3
Atom  14H    basis set group =>   3
Atom  15H    basis set group =>   3
Atom  16H    basis set group =>   3
Atom  17H    basis set group =>   3
Atom  18H    basis set group =>   3
Atom  19H    basis set group =>   3
Atom  20H    basis set group =>   3
Atom  21H    basis set group =>   3
Atom  22H    basis set group =>   3
Atom  23H    basis set group =>   3
Atom  24H    basis set group =>   3
Atom  25H    basis set group =>   3


           ************************************************************
           *        Program running with 6 parallel MPI-processes     *
           *              working on a common directory               *
           ************************************************************
------------------------------------------------------------------------------
                             ORCA STARTUP CALCULATIONS
                           -- RI-GTO INTEGRALS CHOSEN --
------------------------------------------------------------------------------
------------------------------------------------------------------------------
                   ___                                                        
                  /   \      - P O W E R E D   B Y -                         
                 /     \                                                     
                 |  |  |   _    _      __       _____    __    __             
                 |  |  |  | |  | |    /  \     |  _  \  |  |  /  |          
                  \  \/   | |  | |   /    \    | | | |  |  | /  /          
                 / \  \   | |__| |  /  /\  \   | |_| |  |  |/  /          
                |  |  |   |  __  | /  /__\  \  |    /   |      \           
                |  |  |   | |  | | |   __   |  |    \   |  |\   \          
                \     /   | |  | | |  |  |  |  | |\  \  |  | \   \       
                 \___/    |_|  |_| |__|  |__|  |_| \__\ |__|  \__/        
                                                                              
                      - O R C A' S   B I G   F R I E N D -                    
                                      &                                       
                       - I N T E G R A L  F E E D E R -                       
                                                                              
 v1 FN, 2020, v2 2021, v3 2022-2024                                           
------------------------------------------------------------------------------


----------------------
SHARK INTEGRAL PACKAGE
----------------------

Number of atoms                             ...     26
Number of basis functions                   ...    233
Number of shells                            ...    113
Maximum angular momentum                    ...      2
Integral batch strategy                     ... SHARK/LIBINT Hybrid
RI-J (if used) integral strategy            ... SPLIT-RIJ (Revised 2003 algorithm where possible)
Printlevel                                  ...      1
Contraction scheme used                     ... SEGMENTED contraction
Prescreening option                         ... SCHWARTZ
   Thresh                                   ... 2.500e-11
   Tcut                                     ... 2.500e-12
   Tpresel                                  ... 2.500e-12 
Coulomb Range Separation                    ... NOT USED
Exchange Range Separation                   ... NOT USED
Multipole approximations                    ... NOT USED
Finite Nucleus Model                        ... NOT USED
CABS basis                                  ... NOT available
Auxiliary Coulomb fitting basis             ... AVAILABLE
   # of basis functions in Aux-J            ...    706
   # of shells in Aux-J                     ...    242
   Maximum angular momentum in Aux-J        ...      4
Auxiliary J/K fitting basis                 ... NOT available
Auxiliary Correlation fitting basis         ... NOT available
Auxiliary 'external' fitting basis          ... NOT available

Checking pre-screening integrals            ... done (  0.0 sec) Dimension = 113
Check shell pair data                       ... done (  0.0 sec)
Shell pair information
Shell pair cut-off parameter TPreSel        ...   2.5e-12
Total number of shell pairs                 ...      6441
Shell pairs after pre-screening             ...      5689
Total number of primitive shell pairs       ...     22989
Primitive shell pairs kept                  ...     13951
          la=0 lb=0:   1869 shell pairs
          la=1 lb=0:   2153 shell pairs
          la=1 lb=1:    633 shell pairs
          la=2 lb=0:    621 shell pairs
          la=2 lb=1:    358 shell pairs
          la=2 lb=2:     55 shell pairs

Calculating one electron integrals          ... done (  0.0 sec)
Calculating RI/J V-Matrix + Cholesky decomp.... done (  0.0 sec)
Calculating Nuclear repulsion               ... done (  0.0 sec) ENN=    690.640311935156 Eh

Diagonalization of the overlap matrix:
Smallest eigenvalue                        ... 2.882e-04
Time for diagonalization                   ...    0.006 sec
Threshold for overlap eigenvalues          ... 1.000e-07
Number of eigenvalues below threshold      ... 0
Time for construction of square roots      ...    0.005 sec
Total time needed                          ...    0.013 sec

-------------------
DFT GRID GENERATION
-------------------

General Integration Accuracy     IntAcc      ... 4.388
Radial Grid Type                 RadialGrid  ... OptM3 with GC (2021)
Angular Grid (max. ang.)         AngularGrid ... 4 (Lebedev-302)
Angular grid pruning method      GridPruning ... 4 (adaptive)
Weight generation scheme         WeightScheme... mBecke (2022)
Basis function cutoff            BFCut       ... 1.0000e-11
Integration weight cutoff        WCut        ... 1.0000e-14
Partially contracted basis set               ... off
Rotationally invariant grid construction     ... off
Angular grids for H and He will be reduced by one unit

Total number of grid points                  ...   115086
Total number of batches                      ...     1812
Average number of points per batch           ...       63
Average number of grid points per atom       ...     4426
Initializing property integral containers    ... done (  0.0 sec)

SHARK setup successfully completed in   0.7 seconds

Maximum memory used throughout the entire STARTUP-calculation: 30.4 MB


           ************************************************************
           *        Program running with 6 parallel MPI-processes     *
           *              working on a common directory               *
           ************************************************************
-------------------------------------------------------------------------------
                                 ORCA GUESS
                   Start orbitals & Density for SCF / CASSCF
-------------------------------------------------------------------------------

------------
SCF SETTINGS
------------
Hamiltonian:
 Density Functional     Method          .... DFT(GTOs)
 Exchange Functional    Exchange        .... B88
   X-Alpha parameter    XAlpha          ....  0.666667
   Becke's b parameter  XBeta           ....  0.004200
 Correlation Functional Correlation     .... LYP
 LDA part of GGA corr.  LDAOpt          .... VWN-5
 Gradients option       PostSCFGGA      .... off
 Hybrid DFT is turned on
   Fraction HF Exchange ScalHFX         ....  0.200000
   Scaling of DF-GGA-X  ScalDFX         ....  0.720000
   Scaling of DF-GGA-C  ScalDFC         ....  0.810000
   Scaling of DF-LDA-C  ScalLDAC        ....  1.000000
   Perturbative correction              ....  0.000000
   NL short-range parameter             ....  4.800000
 RI-approximation to the Coulomb term is turned on
   Number of AuxJ basis functions       .... 706
   RIJ-ON(X) (HFX calculated with O(N)) .... on


General Settings:
 Integral files         IntName         .... data/geom_opt/74149/74149
 Hartree-Fock type      HFTyp           .... RHF
 Total Charge           Charge          ....    0
 Multiplicity           Mult            ....    1
 Number of Electrons    NEL             ....   90
 Basis Dimension        Dim             ....  233
 Nuclear Repulsion      ENuc            ....    690.6403119352 Eh

Convergence Acceleration:
 AO-DIIS                CNVDIIS         .... on
   Start iteration      DIISMaxIt       ....    12
   Startup error        DIISStart       ....  0.200000
   # of expansion vecs  DIISMaxEq       ....     5
   Bias factor          DIISBfac        ....   1.050
   Max. coefficient     DIISMaxC        ....  10.000
 MO-DIIS                CNVKDIIS        .... off
 Trust-Rad. Augm. Hess. CNVTRAH         .... auto
   Auto Start mean grad. ratio tolernc. ....  1.125000
   Auto Start start iteration           ....    50
   Auto Start num. interpolation iter.  ....    10
   Max. Number of Micro iterations      ....    24
   Max. Number of Macro iterations      .... Maxiter - #DIIS iter
   Number of Davidson start vectors     ....     2
   Converg. threshold    (grad. norm)   ....   1.000e-05
   Grad. Scal. Fac. for Micro threshold ....   0.100
   Minimum threshold for Micro iter.    ....   1.000e-02
   NR start threshold (gradient norm)   ....   1.000e-04
   Initial trust radius                 ....   0.400
   Minimum AH scaling param. (alpha)    ....   1.000
   Maximum AH scaling param. (alpha)    .... 1000.000
   Quad. conv. algorithm                .... NR
   White noise on init. David. guess    .... on
   Maximum white noise                  ....   0.010
   Pseudo random numbers                .... off
   Inactive MOs                         .... canonical
   Orbital update algorithm             .... Taylor
   Preconditioner                       .... Diag
   Full preconditioner red. dimension   ....   250
   COSX micro iterations for RIJONX calc.... off
 SOSCF                  CNVSOSCF        .... on
   Start iteration      SOSCFMaxIt      ....   150
   Startup grad/error   SOSCFStart      ....  0.003300
   Hessian update       SOSCFHessUp     .... L-BFGS
 Level Shifting         CNVShift        .... on
   Level shift para.    LevelShift      ....    0.2500
   Turn off err/grad.   ShiftErr        ....    0.0010
 Zerner damping         CNVZerner       .... off
 Static damping         CNVDamp         .... on
   Fraction old density DampFac         ....    0.7000
   Max. Damping (<1)    DampMax         ....    0.9800
   Min. Damping (>=0)   DampMin         ....    0.0000
   Turn off err/grad.   DampErr         ....    0.1000

SCF Procedure:
 Maximum # iterations   MaxIter         ....   125
 SCF integral mode      SCFMode         .... Direct
   Integral package                     .... SHARK and LIBINT hybrid scheme
 Reset frequency        DirectResetFreq ....    20
 Integral Threshold     Thresh          ....  2.500e-11 Eh
 Primitive CutOff       TCut            ....  2.500e-12 Eh

Convergence Tolerance:
 Convergence Check Mode ConvCheckMode   .... Total+1el-Energy
 Convergence forced     ConvForced      .... 0
 Energy Change          TolE            ....  1.000e-08 Eh
 1-El. energy change                    ....  1.000e-05 Eh
 Orbital Gradient       TolG            ....  1.000e-05
 Orbital Rotation angle TolX            ....  1.000e-05
 DIIS Error             TolErr          ....  5.000e-07

------------------------------
INITIAL GUESS: MODEL POTENTIAL
------------------------------
Loading Hartree-Fock densities                     ... done
Calculating cut-offs                               ... done
Initializing the effective Hamiltonian             ... done
Setting up the integral package (SHARK)            ... done
Starting the Coulomb interaction                   ... done (   0.1 sec)
Making the grid                                    ... done (   0.1 sec)
Mapping shells                                     ... done
Starting the XC term evaluation                    ... done (   0.1 sec)
  promolecular density results
     # of electrons  =     89.990273772
     EX              =    -78.507317838
     EC              =     -3.048743781
     EX+EC           =    -81.556061620
Transforming the Hamiltonian                       ... done (   0.0 sec)
Diagonalizing the Hamiltonian                      ... done (   0.0 sec)
Back transforming the eigenvectors                 ... done (   0.0 sec)
Now organizing SCF variables                       ... done
                      ------------------
                      INITIAL GUESS DONE (   0.3 sec)
                      ------------------
             **** ENERGY FILE WAS UPDATED (data/geom_opt/74149/74149.en.tmp) ****
Finished Guess after   0.3 sec
Maximum memory used throughout the entire GUESS-calculation: 16.4 MB


           ************************************************************
           *        Program running with 6 parallel MPI-processes     *
           *              working on a common directory               *
           ************************************************************

-------------------------------------------------------------------------------------------
                                      ORCA LEAN-SCF
                              memory conserving SCF solver
-------------------------------------------------------------------------------------------

----------------------------------------D-I-I-S--------------------------------------------
Iteration    Energy (Eh)           Delta-E    RMSDP     MaxDP     DIISErr   Damp  Time(sec)
-------------------------------------------------------------------------------------------
               ***  Starting incremental Fock matrix formation  ***
    1    -730.4351447310114054     0.00e+00  2.97e-03  7.84e-02  1.73e-01  0.700   1.5
    2    -730.5807746436448724    -1.46e-01  2.14e-03  4.81e-02  8.99e-02  0.700   1.4
                               ***Turning on AO-DIIS***
    3    -730.6416609307300405    -6.09e-02  9.88e-04  3.58e-02  3.34e-02  0.700   1.3
    4    -730.6765742537229471    -3.49e-02  1.88e-03  8.16e-02  1.62e-02  0.000   1.3
    5    -730.7517988296024214    -7.52e-02  2.60e-04  9.65e-03  5.67e-03  0.000   1.4
                              *** Initializing SOSCF ***
---------------------------------------S-O-S-C-F--------------------------------------
Iteration    Energy (Eh)           Delta-E    RMSDP     MaxDP     MaxGrad    Time(sec)
--------------------------------------------------------------------------------------
    6    -730.7522800741687661    -4.81e-04  9.46e-05  1.95e-03  1.64e-03     1.3
               *** Restarting incremental Fock matrix formation ***
    7    -730.7523190414478904    -3.90e-05  6.39e-05  1.07e-03  2.37e-04     1.5
    8    -730.7523180452021734     9.96e-07  2.45e-05  6.03e-04  4.68e-04     1.1
    9    -730.7523228468849084    -4.80e-06  1.80e-05  7.19e-04  1.12e-04     1.0
   10    -730.7523226530909142     1.94e-07  9.03e-06  1.93e-04  7.96e-05     1.0
   11    -730.7523231870520704    -5.34e-07  2.44e-06  1.58e-04  8.95e-06     1.0
   12    -730.7523231832267356     3.83e-09  1.12e-06  5.65e-05  1.64e-05     0.9
                 **** Energy Check signals convergence ****

               *****************************************************
               *                     SUCCESS                       *
               *           SCF CONVERGED AFTER  12 CYCLES          *
               *****************************************************

             **** ENERGY FILE WAS UPDATED (data/geom_opt/74149/74149.en.tmp) ****

----------------
TOTAL SCF ENERGY
----------------

Total Energy       :       -730.75232318322674 Eh          -19884.78164 eV

Components:
Nuclear Repulsion  :        690.64031193515643 Eh           18793.27832 eV
Electronic Energy  :      -1421.39263511838317 Eh          -38678.05996 eV
One Electron Energy:      -2367.51339372236316 Eh          -64423.31466 eV
Two Electron Energy:        946.12075860397999 Eh           25745.25471 eV

Virial components:
Potential Energy   :      -1456.31925896364783 Eh          -39628.46171 eV
Kinetic Energy     :        725.56693578042098 Eh           19743.68007 eV
Virial Ratio       :          2.00714666993091

DFT components:
N(Alpha)           :       44.999911854285 electrons
N(Beta)            :       44.999911854285 electrons
N(Total)           :       89.999823708570 electrons
E(X)               :      -63.245773277867 Eh       
E(C)               :       -3.600590178668 Eh       
E(XC)              :      -66.846363456535 Eh       

---------------
SCF CONVERGENCE
---------------

  Last Energy change         ...   -3.8253e-09  Tolerance :   1.0000e-08
  Last MAX-Density change    ...    5.6545e-05  Tolerance :   1.0000e-07
  Last RMS-Density change    ...    1.1229e-06  Tolerance :   5.0000e-09
  Last DIIS Error            ...    1.6393e-03  Tolerance :   5.0000e-07
  Last Orbital Gradient      ...    1.6386e-05  Tolerance :   1.0000e-05
  Last Orbital Rotation      ...    2.6800e-05  Tolerance :   1.0000e-05


----------------
ORBITAL ENERGIES
----------------

  NO   OCC          E(Eh)            E(eV) 
   0   2.0000     -77.029106     -2096.0685 
   1   2.0000     -10.191869      -277.3349 
   2   2.0000     -10.190817      -277.3062 
   3   2.0000     -10.190153      -277.2882 
   4   2.0000     -10.189790      -277.2783 
   5   2.0000     -10.188791      -277.2511 
   6   2.0000     -10.186021      -277.1757 
   7   2.0000     -10.177775      -276.9513 
   8   2.0000     -10.177762      -276.9510 
   9   2.0000     -10.173030      -276.8222 
  10   2.0000     -10.173025      -276.8221 
  11   2.0000      -6.527513      -177.6227 
  12   2.0000      -4.693010      -127.7033 
  13   2.0000      -4.692700      -127.6949 
  14   2.0000      -4.689709      -127.6135 
  15   2.0000      -0.848586       -23.0912 
  16   2.0000      -0.776885       -21.1401 
  17   2.0000      -0.745379       -20.2828 
  18   2.0000      -0.738404       -20.0930 
  19   2.0000      -0.736131       -20.0311 
  20   2.0000      -0.647547       -17.6206 
  21   2.0000      -0.602888       -16.4054 
  22   2.0000      -0.595738       -16.2109 
  23   2.0000      -0.591859       -16.1053 
  24   2.0000      -0.540706       -14.7133 
  25   2.0000      -0.501528       -13.6473 
  26   2.0000      -0.458152       -12.4670 
  27   2.0000      -0.447345       -12.1729 
  28   2.0000      -0.445247       -12.1158 
  29   2.0000      -0.438165       -11.9231 
  30   2.0000      -0.434122       -11.8131 
  31   2.0000      -0.420558       -11.4440 
  32   2.0000      -0.403368       -10.9762 
  33   2.0000      -0.392590       -10.6829 
  34   2.0000      -0.370514       -10.0822 
  35   2.0000      -0.369300       -10.0492 
  36   2.0000      -0.357637        -9.7318 
  37   2.0000      -0.351233        -9.5575 
  38   2.0000      -0.347291        -9.4503 
  39   2.0000      -0.339172        -9.2294 
  40   2.0000      -0.312270        -8.4973 
  41   2.0000      -0.306508        -8.3405 
  42   2.0000      -0.256312        -6.9746 
  43   2.0000      -0.254014        -6.9121 
  44   2.0000      -0.216971        -5.9041 
  45   0.0000      -0.022459        -0.6111 
  46   0.0000      -0.010073        -0.2741 
  47   0.0000       0.057979         1.5777 
  48   0.0000       0.062072         1.6891 
  49   0.0000       0.065692         1.7876 
  50   0.0000       0.082389         2.2419 
  51   0.0000       0.093482         2.5438 
  52   0.0000       0.103802         2.8246 
  53   0.0000       0.111809         3.0425 
  54   0.0000       0.115287         3.1371 
  55   0.0000       0.127491         3.4692 
*Only the first 10 virtual orbitals were printed.

                    ********************************
                    * MULLIKEN POPULATION ANALYSIS *
                    ********************************

-----------------------
MULLIKEN ATOMIC CHARGES
-----------------------
   0 C :    0.031213
   1 C :   -0.147349
   2 P :    0.182188
   3 C :   -0.147195
   4 C :    0.031098
   5 C :   -0.121901
   6 C :    0.013485
   7 C :    0.025798
   8 C :    0.028197
   9 C :    0.022582
  10 C :    0.022697
  11 H :    0.008366
  12 H :    0.014776
  13 H :    0.019998
  14 H :    0.012366
  15 H :    0.026541
  16 H :    0.026522
  17 H :    0.012351
  18 H :    0.014789
  19 H :    0.008378
  20 H :    0.020010
  21 H :   -0.022924
  22 H :   -0.022512
  23 H :   -0.018527
  24 H :   -0.019087
  25 H :   -0.021858
Sum of atomic charges:   -0.0000000

--------------------------------
MULLIKEN REDUCED ORBITAL CHARGES
--------------------------------
  0 C s       :     2.968874  s :     2.968874
      pz      :     1.004898  p :     2.969811
      px      :     1.009169
      py      :     0.955744
      dz2     :     0.004882  d :     0.030102
      dxz     :     0.004819
      dyz     :     0.007547
      dx2y2   :     0.007765
      dxy     :     0.005089

  1 C s       :     3.072720  s :     3.072720
      pz      :     1.011436  p :     3.042863
      px      :     1.021903
      py      :     1.009523
      dz2     :     0.006958  d :     0.031766
      dxz     :     0.003854
      dyz     :     0.007692
      dx2y2   :     0.008228
      dxy     :     0.005034

  2 P s       :     5.773260  s :     5.773260
      pz      :     3.264760  p :     8.868421
      px      :     2.752668
      py      :     2.850993
      dz2     :     0.021498  d :     0.176132
      dxz     :     0.044563
      dyz     :     0.025478
      dx2y2   :     0.046856
      dxy     :     0.037736

  3 C s       :     3.072665  s :     3.072665
      pz      :     1.010054  p :     3.042764
      px      :     1.021335
      py      :     1.011375
      dz2     :     0.009462  d :     0.031766
      dxz     :     0.003459
      dyz     :     0.005937
      dx2y2   :     0.008536
      dxy     :     0.004372

  4 C s       :     2.968917  s :     2.968917
      pz      :     0.996155  p :     2.969883
      px      :     1.002340
      py      :     0.971388
      dz2     :     0.009726  d :     0.030102
      dxz     :     0.003089
      dyz     :     0.003831
      dx2y2   :     0.008425
      dxy     :     0.005032

  5 C s       :     3.080273  s :     3.080273
      pz      :     0.990376  p :     3.004842
      px      :     1.013049
      py      :     1.001417
      dz2     :     0.009317  d :     0.036787
      dxz     :     0.011509
      dyz     :     0.005571
      dx2y2   :     0.005654
      dxy     :     0.004737

  6 C s       :     3.209387  s :     3.209387
      pz      :     0.930425  p :     2.741882
      px      :     0.852947
      py      :     0.958510
      dz2     :     0.008179  d :     0.035247
      dxz     :     0.012126
      dyz     :     0.005156
      dx2y2   :     0.004676
      dxy     :     0.005110

  7 C s       :     3.158200  s :     3.158200
      pz      :     0.848451  p :     2.780836
      px      :     0.963035
      py      :     0.969350
      dz2     :     0.008450  d :     0.035165
      dxz     :     0.010083
      dyz     :     0.003464
      dx2y2   :     0.006399
      dxy     :     0.006769

  8 C s       :     3.157904  s :     3.157904
      pz      :     0.943352  p :     2.778451
      px      :     0.860805
      py      :     0.974293
      dz2     :     0.008979  d :     0.035448
      dxz     :     0.011158
      dyz     :     0.005610
      dx2y2   :     0.005664
      dxy     :     0.004038

  9 C s       :     3.160113  s :     3.160113
      pz      :     0.929825  p :     2.782275
      px      :     0.883669
      py      :     0.968781
      dz2     :     0.008499  d :     0.035030
      dxz     :     0.011580
      dyz     :     0.005142
      dx2y2   :     0.004839
      dxy     :     0.004969

 10 C s       :     3.223989  s :     3.223989
      pz      :     0.846987  p :     2.718160
      px      :     0.920190
      py      :     0.950983
      dz2     :     0.008404  d :     0.035154
      dxz     :     0.010001
      dyz     :     0.003453
      dx2y2   :     0.006473
      dxy     :     0.006823

 11 H s       :     0.968373  s :     0.968373
      pz      :     0.008639  p :     0.023262
      px      :     0.008429
      py      :     0.006194

 12 H s       :     0.962083  s :     0.962083
      pz      :     0.012135  p :     0.023141
      px      :     0.005071
      py      :     0.005936

 13 H s       :     0.956571  s :     0.956571
      pz      :     0.006169  p :     0.023431
      px      :     0.013026
      py      :     0.004236

 14 H s       :     0.964724  s :     0.964724
      pz      :     0.012279  p :     0.022910
      px      :     0.004873
      py      :     0.005758

 15 H s       :     0.950391  s :     0.950391
      pz      :     0.005656  p :     0.023068
      px      :     0.013024
      py      :     0.004388

 16 H s       :     0.950411  s :     0.950411
      pz      :     0.005550  p :     0.023068
      px      :     0.013046
      py      :     0.004472

 17 H s       :     0.964738  s :     0.964738
      pz      :     0.013080  p :     0.022912
      px      :     0.004706
      py      :     0.005126

 18 H s       :     0.962070  s :     0.962070
      pz      :     0.013436  p :     0.023141
      px      :     0.004793
      py      :     0.004912

 19 H s       :     0.968361  s :     0.968361
      pz      :     0.004946  p :     0.023261
      px      :     0.006181
      py      :     0.012133

 20 H s       :     0.956559  s :     0.956559
      pz      :     0.005388  p :     0.023431
      px      :     0.013379
      py      :     0.004664

 21 H s       :     0.999745  s :     0.999745
      pz      :     0.006855  p :     0.023180
      px      :     0.010414
      py      :     0.005911

 22 H s       :     0.999521  s :     0.999521
      pz      :     0.013621  p :     0.022991
      px      :     0.003584
      py      :     0.005786

 23 H s       :     0.995567  s :     0.995567
      pz      :     0.005598  p :     0.022960
      px      :     0.012878
      py      :     0.004484

 24 H s       :     0.996094  s :     0.996094
      pz      :     0.006637  p :     0.022993
      px      :     0.010613
      py      :     0.005743

 25 H s       :     0.998755  s :     0.998755
      pz      :     0.013842  p :     0.023103
      px      :     0.003595
      py      :     0.005665



                     *******************************
                     * LOEWDIN POPULATION ANALYSIS *
                     *******************************

----------------------
LOEWDIN ATOMIC CHARGES
----------------------
   0 C :   -0.063325
   1 C :   -0.179310
   2 P :    0.469269
   3 C :   -0.179284
   4 C :   -0.063337
   5 C :   -0.181811
   6 C :   -0.024786
   7 C :   -0.024809
   8 C :   -0.018723
   9 C :   -0.024921
  10 C :   -0.024379
  11 H :    0.021928
  12 H :    0.021271
  13 H :    0.021924
  14 H :    0.010350
  15 H :    0.022233
  16 H :    0.022220
  17 H :    0.010354
  18 H :    0.021276
  19 H :    0.021930
  20 H :    0.021922
  21 H :    0.019964
  22 H :    0.024980
  23 H :    0.025982
  24 H :    0.026051
  25 H :    0.023034

-------------------------------
LOEWDIN REDUCED ORBITAL CHARGES
-------------------------------
  0 C s       :     2.835431  s :     2.835431
      pz      :     1.066791  p :     3.152894
      px      :     1.065598
      py      :     1.020505
      dz2     :     0.012725  d :     0.075001
      dxz     :     0.012111
      dyz     :     0.017800
      dx2y2   :     0.020677
      dxy     :     0.011687

  1 C s       :     2.889431  s :     2.889431
      pz      :     1.084550  p :     3.213140
      px      :     1.076363
      py      :     1.052227
      dz2     :     0.017775  d :     0.076739
      dxz     :     0.009972
      dyz     :     0.017198
      dx2y2   :     0.020951
      dxy     :     0.010842

  2 P s       :     5.281997  s :     5.281997
      pz      :     3.349325  p :     9.011852
      px      :     2.787767
      py      :     2.874759
      dz2     :     0.028356  d :     0.236882
      dxz     :     0.060681
      dyz     :     0.031972
      dx2y2   :     0.064724
      dxy     :     0.051149

  3 C s       :     2.889432  s :     2.889432
      pz      :     1.068123  p :     3.213113
      px      :     1.067290
      py      :     1.077700
      dz2     :     0.022367  d :     0.076739
      dxz     :     0.008357
      dyz     :     0.014602
      dx2y2   :     0.020539
      dxy     :     0.010873

  4 C s       :     2.835432  s :     2.835432
      pz      :     1.052806  p :     3.152905
      px      :     1.056890
      py      :     1.043209
      dz2     :     0.023478  d :     0.075001
      dxz     :     0.007767
      dyz     :     0.010240
      dx2y2   :     0.020618
      dxy     :     0.012898

  5 C s       :     2.911635  s :     2.911635
      pz      :     1.084454  p :     3.177120
      px      :     1.093666
      py      :     0.999000
      dz2     :     0.024696  d :     0.093056
      dxz     :     0.031260
      dyz     :     0.013674
      dx2y2   :     0.012954
      dxy     :     0.010472

  6 C s       :     2.863128  s :     2.863128
      pz      :     1.050853  p :     3.069219
      px      :     1.046246
      py      :     0.972120
      dz2     :     0.022388  d :     0.092440
      dxz     :     0.034135
      dyz     :     0.012110
      dx2y2   :     0.012373
      dxy     :     0.011435

  7 C s       :     2.860538  s :     2.860538
      pz      :     1.028924  p :     3.073064
      px      :     1.065310
      py      :     0.978830
      dz2     :     0.021887  d :     0.091208
      dxz     :     0.028372
      dyz     :     0.007606
      dx2y2   :     0.017551
      dxy     :     0.015792

  8 C s       :     2.860002  s :     2.860002
      pz      :     1.052186  p :     3.066921
      px      :     1.041099
      py      :     0.973636
      dz2     :     0.024327  d :     0.091800
      dxz     :     0.030582
      dyz     :     0.013676
      dx2y2   :     0.014052
      dxy     :     0.009163

  9 C s       :     2.860557  s :     2.860557
      pz      :     1.048609  p :     3.073475
      px      :     1.047060
      py      :     0.977806
      dz2     :     0.023091  d :     0.090890
      dxz     :     0.031957
      dyz     :     0.012129
      dx2y2   :     0.012647
      dxy     :     0.011066

 10 C s       :     2.867977  s :     2.867977
      pz      :     1.031930  p :     3.064592
      px      :     1.066569
      py      :     0.966093
      dz2     :     0.022300  d :     0.091811
      dxz     :     0.027829
      dyz     :     0.007587
      dx2y2   :     0.018176
      dxy     :     0.015919

 11 H s       :     0.913031  s :     0.913031
      pz      :     0.023471  p :     0.065041
      px      :     0.022966
      py      :     0.018603

 12 H s       :     0.913554  s :     0.913554
      pz      :     0.034342  p :     0.065176
      px      :     0.012668
      py      :     0.018166

 13 H s       :     0.912540  s :     0.912540
      pz      :     0.015647  p :     0.065536
      px      :     0.036793
      py      :     0.013097

 14 H s       :     0.919256  s :     0.919256
      pz      :     0.038361  p :     0.070395
      px      :     0.013889
      py      :     0.018144

 15 H s       :     0.908982  s :     0.908982
      pz      :     0.015578  p :     0.068785
      px      :     0.039273
      py      :     0.013935

 16 H s       :     0.908994  s :     0.908994
      pz      :     0.014798  p :     0.068785
      px      :     0.038961
      py      :     0.015026

 17 H s       :     0.919253  s :     0.919253
      pz      :     0.039052  p :     0.070393
      px      :     0.013217
      py      :     0.018124

 18 H s       :     0.913548  s :     0.913548
      pz      :     0.038970  p :     0.065176
      px      :     0.012522
      py      :     0.013684

 19 H s       :     0.913029  s :     0.913029
      pz      :     0.013105  p :     0.065041
      px      :     0.016852
      py      :     0.035084

 20 H s       :     0.912542  s :     0.912542
      pz      :     0.014427  p :     0.065536
      px      :     0.038417
      py      :     0.012692

 21 H s       :     0.911507  s :     0.911507
      pz      :     0.020589  p :     0.068528
      px      :     0.030508
      py      :     0.017430

 22 H s       :     0.907368  s :     0.907368
      pz      :     0.038606  p :     0.067652
      px      :     0.011748
      py      :     0.017299

 23 H s       :     0.906555  s :     0.906555
      pz      :     0.017135  p :     0.067463
      px      :     0.036584
      py      :     0.013744

 24 H s       :     0.906350  s :     0.906350
      pz      :     0.019824  p :     0.067599
      px      :     0.030624
      py      :     0.017152

 25 H s       :     0.908419  s :     0.908419
      pz      :     0.040087  p :     0.068546
      px      :     0.011381
      py      :     0.017078



                      *****************************
                      * MAYER POPULATION ANALYSIS *
                      *****************************

  NA   - Mulliken gross atomic population
  ZA   - Total nuclear charge
  QA   - Mulliken gross atomic charge
  VA   - Mayer's total valence
  BVA  - Mayer's bonded valence
  FA   - Mayer's free valence

  ATOM       NA         ZA         QA         VA         BVA        FA
  0 C      5.9688     6.0000     0.0312     3.9896     3.9896    -0.0000
  1 C      6.1473     6.0000    -0.1473     3.9796     3.9796    -0.0000
  2 P     14.8178    15.0000     0.1822     3.0179     3.0179    -0.0000
  3 C      6.1472     6.0000    -0.1472     3.9795     3.9795    -0.0000
  4 C      5.9689     6.0000     0.0311     3.9898     3.9898    -0.0000
  5 C      6.1219     6.0000    -0.1219     3.7368     3.7368    -0.0000
  6 C      5.9865     6.0000     0.0135     3.8711     3.8711    -0.0000
  7 C      5.9742     6.0000     0.0258     3.8535     3.8535    -0.0000
  8 C      5.9718     6.0000     0.0282     3.8299     3.8299    -0.0000
  9 C      5.9774     6.0000     0.0226     3.8414     3.8414     0.0000
 10 C      5.9773     6.0000     0.0227     3.8739     3.8739     0.0000
 11 H      0.9916     1.0000     0.0084     0.9837     0.9837    -0.0000
 12 H      0.9852     1.0000     0.0148     0.9922     0.9922    -0.0000
 13 H      0.9800     1.0000     0.0200     0.9951     0.9951    -0.0000
 14 H      0.9876     1.0000     0.0124     0.9836     0.9836    -0.0000
 15 H      0.9735     1.0000     0.0265     0.9765     0.9765    -0.0000
 16 H      0.9735     1.0000     0.0265     0.9765     0.9765    -0.0000
 17 H      0.9876     1.0000     0.0124     0.9837     0.9837    -0.0000
 18 H      0.9852     1.0000     0.0148     0.9922     0.9922    -0.0000
 19 H      0.9916     1.0000     0.0084     0.9837     0.9837    -0.0000
 20 H      0.9800     1.0000     0.0200     0.9950     0.9950    -0.0000
 21 H      1.0229     1.0000    -0.0229     0.9859     0.9859    -0.0000
 22 H      1.0225     1.0000    -0.0225     0.9766     0.9766     0.0000
 23 H      1.0185     1.0000    -0.0185     0.9769     0.9769    -0.0000
 24 H      1.0191     1.0000    -0.0191     0.9771     0.9771     0.0000
 25 H      1.0219     1.0000    -0.0219     0.9966     0.9966    -0.0000

  Mayer bond orders larger than 0.100000
B(  0-C ,  1-C ) :   1.0856 B(  0-C , 11-H ) :   0.9642 B(  0-C , 12-H ) :   0.9674 
B(  0-C , 13-H ) :   0.9719 B(  1-C ,  2-P ) :   0.9743 B(  1-C , 14-H ) :   0.9288 
B(  1-C , 15-H ) :   0.9450 B(  2-P ,  3-C ) :   0.9742 B(  2-P ,  5-C ) :   0.9181 
B(  3-C ,  4-C ) :   1.0856 B(  3-C , 16-H ) :   0.9450 B(  3-C , 17-H ) :   0.9288 
B(  4-C , 18-H ) :   0.9674 B(  4-C , 19-H ) :   0.9642 B(  4-C , 20-H ) :   0.9719 
B(  5-C ,  6-C ) :   1.3474 B(  5-C , 10-C ) :   1.3861 B(  6-C ,  7-C ) :   1.4073 
B(  6-C , 21-H ) :   0.9823 B(  7-C ,  8-C ) :   1.3754 B(  7-C , 22-H ) :   0.9844 
B(  8-C ,  9-C ) :   1.3882 B(  8-C , 23-H ) :   0.9863 B(  9-C , 10-C ) :   1.3841 
B(  9-C , 24-H ) :   0.9871 B( 10-C , 25-H ) :   0.9881 

-------
TIMINGS
-------

Total SCF time: 0 days 0 hours 0 min 14 sec 

Total time                  ....      14.805 sec
Sum of individual times     ....      14.761 sec  ( 99.7%)

SCF preparation             ....       0.086 sec  (  0.6%)
Fock matrix formation       ....      14.268 sec  ( 96.4%)
  Startup                   ....       0.026 sec  (  0.2% of F)
  Exchange formation        ....      10.185 sec  ( 71.4% of F)
  Split-RI-J                ....       1.279 sec  (  9.0% of F)
  XC integration            ....       2.662 sec  ( 18.7% of F)
    Basis function eval.    ....       0.796 sec  ( 29.9% of XC)
    Density eval.           ....       0.616 sec  ( 23.1% of XC)
    XC-Functional eval.     ....       0.077 sec  (  2.9% of XC)
    XC-Potential eval.      ....       0.668 sec  ( 25.1% of XC)
Diagonalization             ....       0.000 sec  (  0.0%)
Density matrix formation    ....       0.061 sec  (  0.4%)
Total Energy calculation    ....       0.025 sec  (  0.2%)
Population analysis         ....       0.036 sec  (  0.2%)
Orbital Transformation      ....       0.034 sec  (  0.2%)
Orbital Orthonormalization  ....       0.000 sec  (  0.0%)
DIIS solution               ....       0.157 sec  (  1.1%)
SOSCF solution              ....       0.094 sec  (  0.6%)
Finished LeanSCF after  14.8 sec

Maximum memory used throughout the entire LEANSCF-calculation: 23.1 MB


-------------------------------------------------------------------------------
                          DFT DISPERSION CORRECTION                            
                                                                               
                              DFTD3 V3.1  Rev 1                                
                          USING Becke-Johnson damping                          
-------------------------------------------------------------------------------
The B3LYP functional is recognized
Active option DFTDOPT                   ...         4   

molecular C6(AA) [au] = 7328.505603 


            DFT-D V3
 parameters
 s6 scaling factor         :     1.0000 
 a1 scaling factor         :     0.3981 
 s8 scaling factor         :     1.9889 
 a2 scaling factor         :     4.4211 
 ad hoc parameters k1-k3   :    16.0000     1.3333    -4.0000 

 Edisp/kcal,au: -32.346963633469  -0.051548162251 
 E6   /kcal   : -14.858563130 
 E8   /kcal   : -17.488400504 
 % E8         :  54.065045183 

-------------------------   ----------------
Dispersion correction           -0.051548162
-------------------------   ----------------


-------------------------   --------------------
FINAL SINGLE POINT ENERGY      -730.803871345478
-------------------------   --------------------



           ************************************************************
           *        Program running with 6 parallel MPI-processes     *
           *              working on a common directory               *
           ************************************************************
------------------------------------------------------------------------------
                         ORCA SCF GRADIENT CALCULATION
------------------------------------------------------------------------------

Nuc. rep. gradient        (SHARK) ... done (  0.0 sec)
HCore & Overlap gradient  (SHARK) ... done (  0.1 sec)
Split-RIJ-J gradient      (SHARK) ... done (  0.4 sec)
O(N)X-gradient            (SHARK) ... done (  4.0 sec)
XC gradient                       ... done (  1.9 sec)
Dispersion correction             ... done (  0.1 sec)

-------------------
DISPERSION GRADIENT
-------------------

   1   C   :   -0.000403811   -0.000656934   -0.000117835
   2   C   :   -0.000624707   -0.000471640   -0.000091353
   3   P   :   -0.000449949   -0.000167078    0.000649351
   4   C   :   -0.000450131    0.000573814    0.000298609
   5   C   :   -0.000183938    0.000659785    0.000373311
   6   C   :    0.000649396   -0.000108568    0.000000343
   7   C   :    0.000653219   -0.000004719   -0.000279776
   8   C   :    0.000398980    0.000101443   -0.000450574
   9   C   :    0.000255283   -0.000007604   -0.000093898
  10   C   :    0.000517904   -0.000114039    0.000073877
  11   C   :    0.000278326   -0.000058670    0.000032689
  12   H   :   -0.000110835   -0.000246529   -0.000113624
  13   H   :   -0.000119190   -0.000357489    0.000034226
  14   H   :   -0.000126866   -0.000517477   -0.000160471
  15   H   :   -0.000333975   -0.000120630   -0.000255676
  16   H   :   -0.000310280   -0.000127475   -0.000026416
  17   H   :   -0.000256153    0.000196669    0.000094492
  18   H   :   -0.000256202    0.000345117   -0.000081948
  19   H   :   -0.000014843    0.000267394    0.000267312
  20   H   :   -0.000022860    0.000280317    0.000082894
  21   H   :    0.000044415    0.000508246    0.000222131
  22   H   :    0.000078001    0.000165003   -0.000477277
  23   H   :    0.000068299    0.000094342   -0.000283499
  24   H   :    0.000260203    0.000001260   -0.000119864
  25   H   :    0.000243918   -0.000092663    0.000139227
  26   H   :    0.000215795   -0.000141874    0.000283747

Difference to translation invariance:
           :   -0.0000000000   -0.0000000000    0.0000000000

Difference to rotation invariance:
           :    0.0000000000    0.0000000000   -0.0000000000

Norm of the Dispersion gradient    ...    0.0026876654
RMS gradient                       ...    0.0003043182
MAX gradient                       ...    0.0006597851

------------------
CARTESIAN GRADIENT
------------------

   1   C   :    0.000915885    0.001438213    0.001527035
   2   C   :   -0.001691983    0.005658706    0.003082418
   3   P   :    0.010603530    0.004955965   -0.017925231
   4   C   :   -0.003540798   -0.005542553   -0.001041795
   5   C   :    0.000272680   -0.002271465    0.000114523
   6   C   :   -0.005975950   -0.000619296    0.004346095
   7   C   :   -0.007059588   -0.000061447    0.003368158
   8   C   :    0.005210620   -0.000407508   -0.001208545
   9   C   :   -0.001251263    0.000429990   -0.000604828
  10   C   :    0.002901889   -0.000197687   -0.000769344
  11   C   :   -0.003851398    0.000076814    0.001504758
  12   H   :    0.002206627    0.003706519    0.003095692
  13   H   :   -0.000319246    0.001784900   -0.003876220
  14   H   :   -0.004463731    0.000517518    0.001012319
  15   H   :   -0.000095925   -0.004420561    0.005499234
  16   H   :    0.003941374   -0.003974130   -0.003287774
  17   H   :    0.005243350    0.003817504   -0.000389288
  18   H   :    0.000561044   -0.000347223    0.006980982
  19   H   :   -0.000389987    0.001297983   -0.004057669
  20   H   :    0.000708685   -0.005252938   -0.000244271
  21   H   :   -0.004498642    0.000269322    0.000943367
  22   H   :    0.005101594   -0.001326859    0.001198352
  23   H   :   -0.000204352   -0.001557891    0.004260438
  24   H   :   -0.004132509   -0.000082108    0.002061574
  25   H   :   -0.003441967    0.001478752   -0.002426431
  26   H   :    0.003250060    0.000629481   -0.003163549

Difference to translation invariance:
           :   -0.0000000000    0.0000000000   -0.0000000000

Difference to rotation invariance:
           :   -0.0001303407   -0.0000251691    0.0000169955

Norm of the Cartesian gradient     ...    0.0340808471
RMS gradient                       ...    0.0038588960
MAX gradient                       ...    0.0179252309

-------
TIMINGS
-------

Total SCF gradient time     ....        6.572 sec

Densities                   ....       0.001 sec  (  0.0%)
One electron gradient       ....       0.114 sec  (  1.7%)
Two electron gradient       ....       4.046 sec  ( 61.6%)
RI-J Coulomb gradient       ....       0.399 sec  (  6.1%)
XC gradient                 ....       1.939 sec  ( 29.5%)

Maximum memory used throughout the entire SCFGRAD-calculation: 32.4 MB
------------------------------------------------------------------------------
                         ORCA GEOMETRY RELAXATION STEP
------------------------------------------------------------------------------

Reading the OPT-File                    .... done
Getting information on internals        .... done
Copying old internal coords+grads       .... done
Making the new internal coordinates     .... (2022 redundants) done
Validating the new internal coordinates .... (2022 redundants) done
Calculating the B-matrix                .... done
Calculating the G,G- and P matrices     .... done
Transforming gradient to internals      .... done
Projecting the internal gradient        .... done
Number of atoms                         ....  26
Number of internal coordinates          .... 121
Current Energy                          ....  -730.803871345 Eh
Current gradient norm                   ....     0.034080847 Eh/bohr
Maximum allowed component of the step   ....  0.300
Current trust radius                    ....  0.300
Evaluating the initial hessian          ....  (Almloef) done
Projecting the Hessian                  .... done
Forming the augmented Hessian           .... done
Diagonalizing the augmented Hessian     .... done
Last element of RFO vector              ....  0.987168185
Lowest eigenvalues of augmented Hessian:
 -0.003169188  0.003570962  0.003674852  0.003838525  0.011930703
Length of the computed step             ....  0.161759651
The final length of the internal step   ....  0.161759651
Converting the step to Cartesian space:
 Initial RMS(Int)=    0.0147054228
Transforming coordinates:
 Iter   0:  RMS(Cart)=    0.0457381019 RMS(Int)=    1.2772686082
done
Storing new coordinates                 .... done

                                .--------------------.
          ----------------------|Geometry convergence|-------------------------
          Item                value                   Tolerance       Converged
          ---------------------------------------------------------------------
          RMS gradient        0.0029586460            0.0001000000      NO
          MAX gradient        0.0123705000            0.0003000000      NO
          RMS step            0.0147054228            0.0020000000      NO
          MAX step            0.0594952255            0.0040000000      NO
          ........................................................
          Max(Bonds)      0.0150      Max(Angles)    1.29
          Max(Dihed)        3.41      Max(Improp)    0.00
          ---------------------------------------------------------------------

The optimization has not yet converged - more geometry cycles are needed


[...]
      pz      :     1.065668  p :     3.150804
      px      :     1.065184
      py      :     1.019952
      dz2     :     0.011399  d :     0.072990
      dxz     :     0.011728
      dyz     :     0.018772
      dx2y2   :     0.020299
      dxy     :     0.010792

  1 C s       :     2.899307  s :     2.899307
      pz      :     1.080996  p :     3.205922
      px      :     1.075265
      py      :     1.049661
      dz2     :     0.015115  d :     0.074040
      dxz     :     0.010207
      dyz     :     0.018393
      dx2y2   :     0.020130
      dxy     :     0.010196

  2 P s       :     5.320812  s :     5.320812
      pz      :     3.331676  p :     8.992684
      px      :     2.786820
      py      :     2.874188
      dz2     :     0.026994  d :     0.220476
      dxz     :     0.057182
      dyz     :     0.031079
      dx2y2   :     0.061061
      dxy     :     0.044160

  3 C s       :     2.899423  s :     2.899423
      pz      :     1.067395  p :     3.205315
      px      :     1.064749
      py      :     1.073171
      dz2     :     0.022375  d :     0.074061
      dxz     :     0.008526
      dyz     :     0.012171
      dx2y2   :     0.020232
      dxy     :     0.010756

  4 C s       :     2.842020  s :     2.842020
      pz      :     1.054269  p :     3.150817
      px      :     1.055276
      py      :     1.041272
      dz2     :     0.022746  d :     0.073001
      dxz     :     0.008278
      dyz     :     0.008848
      dx2y2   :     0.020819
      dxy     :     0.012311

  5 C s       :     2.919312  s :     2.919312
      pz      :     1.082528  p :     3.166073
      px      :     1.090581
      py      :     0.992965
      dz2     :     0.024334  d :     0.090708
      dxz     :     0.030398
      dyz     :     0.013345
      dx2y2   :     0.012492
      dxy     :     0.010139

  6 C s       :     2.865569  s :     2.865569
      pz      :     1.052303  p :     3.071203
      px      :     1.045446
      py      :     0.973454
      dz2     :     0.022709  d :     0.091726
      dxz     :     0.033703
      dyz     :     0.011883
      dx2y2   :     0.012344
      dxy     :     0.011087

  7 C s       :     2.863628  s :     2.863628
      pz      :     1.028525  p :     3.072414
      px      :     1.065323
      py      :     0.978565
      dz2     :     0.021801  d :     0.090335
      dxz     :     0.028381
      dyz     :     0.007243
      dx2y2   :     0.017309
      dxy     :     0.015601

  8 C s       :     2.864377  s :     2.864377
      pz      :     1.051617  p :     3.066887
      px      :     1.039824
      py      :     0.975446
      dz2     :     0.024003  d :     0.089946
      dxz     :     0.030346
      dyz     :     0.013249
      dx2y2   :     0.013535
      dxy     :     0.008814

  9 C s       :     2.863895  s :     2.863895
      pz      :     1.048587  p :     3.072404
      px      :     1.046154
      py      :     0.977662
      dz2     :     0.023106  d :     0.089891
      dxz     :     0.031673
      dyz     :     0.011932
      dx2y2   :     0.012525
      dxy     :     0.010655

 10 C s       :     2.869961  s :     2.869961
      pz      :     1.032123  p :     3.068049
      px      :     1.067646
      py      :     0.968280
      dz2     :     0.022377  d :     0.091347
      dxz     :     0.028051
      dyz     :     0.007215
      dx2y2   :     0.017959
      dxy     :     0.015745

 11 H s       :     0.912642  s :     0.912642
      pz      :     0.023845  p :     0.063867
      px      :     0.021794
      py      :     0.018229

 12 H s       :     0.913167  s :     0.913167
      pz      :     0.032981  p :     0.064084
      px      :     0.012293
      py      :     0.018810

 13 H s       :     0.911073  s :     0.911073
      pz      :     0.015308  p :     0.064705
      px      :     0.037173
      py      :     0.012225

 14 H s       :     0.919320  s :     0.919320
      pz      :     0.036396  p :     0.068840
      px      :     0.013446
      py      :     0.018999

 15 H s       :     0.911029  s :     0.911029
      pz      :     0.015714  p :     0.067664
      px      :     0.038836
      py      :     0.013114

 16 H s       :     0.911248  s :     0.911248
      pz      :     0.014593  p :     0.067652
      px      :     0.038328
      py      :     0.014731

 17 H s       :     0.919224  s :     0.919224
      pz      :     0.039686  p :     0.068790
      px      :     0.012647
      py      :     0.016458

 18 H s       :     0.913260  s :     0.913260
      pz      :     0.038973  p :     0.064081
      px      :     0.012218
      py      :     0.012890

 19 H s       :     0.912649  s :     0.912649
      pz      :     0.012705  p :     0.063868
      px      :     0.015678
      py      :     0.035485

 20 H s       :     0.911036  s :     0.911036
      pz      :     0.014680  p :     0.064695
      px      :     0.037858
      py      :     0.012157

 21 H s       :     0.911909  s :     0.911909
      pz      :     0.019634  p :     0.067459
      px      :     0.031051
      py      :     0.016774

 22 H s       :     0.907171  s :     0.907171
      pz      :     0.038493  p :     0.066545
      px      :     0.011247
      py      :     0.016805

 23 H s       :     0.906569  s :     0.906569
      pz      :     0.016919  p :     0.066467
      px      :     0.036042
      py      :     0.013506

 24 H s       :     0.906296  s :     0.906296
      pz      :     0.019367  p :     0.066535
      px      :     0.030628
      py      :     0.016540

 25 H s       :     0.909220  s :     0.909220
      pz      :     0.039822  p :     0.067577
      px      :     0.011155
      py      :     0.016600



                      *****************************
                      * MAYER POPULATION ANALYSIS *
                      *****************************

  NA   - Mulliken gross atomic population
  ZA   - Total nuclear charge
  QA   - Mulliken gross atomic charge
  VA   - Mayer's total valence
  BVA  - Mayer's bonded valence
  FA   - Mayer's free valence

  ATOM       NA         ZA         QA         VA         BVA        FA
  0 C      5.9777     6.0000     0.0223     3.9878     3.9878    -0.0000
  1 C      6.1592     6.0000    -0.1592     3.9752     3.9752    -0.0000
  2 P     14.8032    15.0000     0.1968     2.9934     2.9934    -0.0000
  3 C      6.1581     6.0000    -0.1581     3.9744     3.9744    -0.0000
  4 C      5.9780     6.0000     0.0220     3.9878     3.9878    -0.0000
  5 C      6.1381     6.0000    -0.1381     3.7570     3.7570    -0.0000
  6 C      5.9881     6.0000     0.0119     3.8767     3.8767    -0.0000
  7 C      5.9764     6.0000     0.0236     3.8534     3.8534    -0.0000
  8 C      5.9779     6.0000     0.0221     3.8308     3.8308    -0.0000
  9 C      5.9784     6.0000     0.0216     3.8372     3.8372    -0.0000
 10 C      5.9801     6.0000     0.0199     3.8770     3.8770    -0.0000
 11 H      0.9863     1.0000     0.0137     0.9833     0.9833    -0.0000
 12 H      0.9825     1.0000     0.0175     0.9901     0.9901    -0.0000
 13 H      0.9745     1.0000     0.0255     0.9957     0.9957    -0.0000
 14 H      0.9826     1.0000     0.0174     0.9839     0.9839    -0.0000
 15 H      0.9709     1.0000     0.0291     0.9744     0.9744    -0.0000
 16 H      0.9710     1.0000     0.0290     0.9744     0.9744    -0.0000
 17 H      0.9826     1.0000     0.0174     0.9842     0.9842    -0.0000
 18 H      0.9826     1.0000     0.0174     0.9901     0.9901    -0.0000
 19 H      0.9863     1.0000     0.0137     0.9834     0.9834    -0.0000
 20 H      0.9744     1.0000     0.0256     0.9954     0.9954    -0.0000
 21 H      1.0213     1.0000    -0.0213     0.9862     0.9862    -0.0000
 22 H      1.0191     1.0000    -0.0191     0.9770     0.9770    -0.0000
 23 H      1.0150     1.0000    -0.0150     0.9773     0.9773     0.0000
 24 H      1.0157     1.0000    -0.0157     0.9776     0.9776    -0.0000
 25 H      1.0199     1.0000    -0.0199     0.9953     0.9953    -0.0000

  Mayer bond orders larger than 0.100000
B(  0-C ,  1-C ) :   1.0817 B(  0-C , 11-H ) :   0.9657 B(  0-C , 12-H ) :   0.9679 
B(  0-C , 13-H ) :   0.9715 B(  1-C ,  2-P ) :   0.9721 B(  1-C , 14-H ) :   0.9316 
B(  1-C , 15-H ) :   0.9450 B(  2-P ,  3-C ) :   0.9720 B(  2-P ,  5-C ) :   0.9104 
B(  3-C ,  4-C ) :   1.0816 B(  3-C , 16-H ) :   0.9452 B(  3-C , 17-H ) :   0.9319 
B(  4-C , 18-H ) :   0.9679 B(  4-C , 19-H ) :   0.9656 B(  4-C , 20-H ) :   0.9716 
B(  5-C ,  6-C ) :   1.3513 B(  5-C , 10-C ) :   1.3994 B(  6-C ,  7-C ) :   1.4130 
B(  6-C , 21-H ) :   0.9785 B(  7-C ,  8-C ) :   1.3709 B(  7-C , 22-H ) :   0.9830 
B(  8-C ,  9-C ) :   1.3925 B(  8-C , 23-H ) :   0.9843 B(  9-C , 10-C ) :   1.3781 
B(  9-C , 24-H ) :   0.9858 B( 10-C , 25-H ) :   0.9850 

-------
TIMINGS
-------

Total SCF time: 0 days 0 hours 0 min 5 sec 

Total time                  ....       5.009 sec
Sum of individual times     ....       4.961 sec  ( 99.0%)

SCF preparation             ....       0.099 sec  (  2.0%)
Fock matrix formation       ....       4.681 sec  ( 93.5%)
  Startup                   ....       0.014 sec  (  0.3% of F)
  Exchange formation        ....       3.266 sec  ( 69.8% of F)
  Split-RI-J                ....       0.459 sec  (  9.8% of F)
  XC integration            ....       0.903 sec  ( 19.3% of F)
    Basis function eval.    ....       0.237 sec  ( 26.2% of XC)
    Density eval.           ....       0.229 sec  ( 25.4% of XC)
    XC-Functional eval.     ....       0.018 sec  (  2.0% of XC)
    XC-Potential eval.      ....       0.215 sec  ( 23.8% of XC)
Diagonalization             ....       0.000 sec  (  0.0%)
Density matrix formation    ....       0.021 sec  (  0.4%)
Total Energy calculation    ....       0.009 sec  (  0.2%)
Population analysis         ....       0.056 sec  (  1.1%)
Orbital Transformation      ....       0.016 sec  (  0.3%)
Orbital Orthonormalization  ....       0.000 sec  (  0.0%)
DIIS solution               ....       0.021 sec  (  0.4%)
SOSCF solution              ....       0.058 sec  (  1.2%)
Finished LeanSCF after   5.0 sec

Maximum memory used throughout the entire LEANSCF-calculation: 23.9 MB


-------------------------------------------------------------------------------
                          DFT DISPERSION CORRECTION                            
                                                                               
                              DFTD3 V3.1  Rev 1                                
                          USING Becke-Johnson damping                          
-------------------------------------------------------------------------------
The B3LYP functional is recognized
Active option DFTDOPT                   ...         4   

molecular C6(AA) [au] = 7336.423781 


            DFT-D V3
 parameters
 s6 scaling factor         :     1.0000 
 a1 scaling factor         :     0.3981 
 s8 scaling factor         :     1.9889 
 a2 scaling factor         :     4.4211 
 ad hoc parameters k1-k3   :    16.0000     1.3333    -4.0000 

 Edisp/kcal,au: -32.427630652491  -0.051676713315 
 E6   /kcal   : -14.901408067 
 E8   /kcal   : -17.526222586 
 % E8         :  54.047188257 

-------------------------   ----------------
Dispersion correction           -0.051676713
-------------------------   ----------------


-------------------------   --------------------
FINAL SINGLE POINT ENERGY      -730.806434546638
-------------------------   --------------------

                                *** OPTIMIZATION RUN DONE ***



           ************************************************************
           *        Program running with 6 parallel MPI-processes     *
           *              working on a common directory               *
           ************************************************************

------------------------------------------------------------------------------
                              ORCA PROPERTY CALCULATIONS
------------------------------------------------------------------------------

GBWName                                 ... data/geom_opt/74149/74149.gbw
Number of atoms                         ...     26
Number of basis functions               ...    233
Max core memory                         ...   1024 MB

Electric properties:
Dipole moment                           ... YES
Quadrupole moment                       ...  NO
Static polarizability (Dipole/Dipole)   ...  NO
Static polarizability (Dipole/Quad.)    ...  NO
Static polarizability (Quad./Quad.)     ...  NO
Static polarizability (Velocity)        ...  NO

Atomic electric properties:
Dipole moment                           ...  NO
Quadrupole moment                       ...  NO
Static polarizability                   ...  NO

Choice of electric origin               ... Center of mass
Position of electric origin             ...     0.294644    -0.132928     0.220067

General magnetic properties:
Magnetizability                         ...  NO

EPR properties:
g-Tensor (aka g-matrix)                 ...  NO
Zero-Field splitting spin-orbit         ...  NO
Zero-field splitting spin-spin          ...  NO
Hyperfine couplings                     ...  NO (   0 nuclei)
Quadrupole couplings                    ...  NO (   0 nuclei)
Contact density                         ...  NO (   0 nuclei)

NMR properties:
Chemical shifts                         ...  NO (   0 nuclei)
Spin-rotation constants                 ...  NO (   0 nuclei)
Spin-spin couplings                     ...  NO (   0 nuclei,    0 pairs)

Choice of magnetic origin               ... GIAO
Position of magnetic origin             ...     0.000000     0.000000     0.000000

Properties with geometric perturbations:
SCF Hessian                             ...  NO
IR spectrum                             ...  NO
VCD spectrum                            ...  NO
X-ray spectroscopy properties:
SCF XES/XAS/RIXS spectra                ...  NO


-------------
DIPOLE MOMENT
-------------

Method             : SCF
Type of density    : Electron Density
Multiplicity       :   1
Irrep              :   0
Energy             :  -730.7547578333234242 Eh
Relativity type    : 
Basis              : AO
                                X                 Y                 Z
Electronic contribution:      5.044129708      -1.605440842       1.994343329
Nuclear contribution   :     -5.011239629       1.766345541      -2.435606211
                        -----------------------------------------
Total Dipole Moment    :      0.032890079       0.160904699      -0.441262883
                        -----------------------------------------
Magnitude (a.u.)       :      0.470834377
Magnitude (Debye)      :      1.196765879



--------------------
Rotational spectrum 
--------------------
 
Rotational constants in cm-1:             0.040709             0.024012             0.018949 
Rotational constants in MHz :          1220.425713           719.862701           568.069637 

Dipole components along the rotational axes: 
x,y,z [a.u.] :     0.150565    -0.004173     0.446092 
x,y,z [Debye]:     0.382705    -0.010606     1.133875 

 

Dipole moment calculation done in   0.0 sec 

Maximum memory used throughout the entire PROP-calculation: 11.5 MB

--------------------------------
SUGGESTED CITATIONS FOR THIS RUN
--------------------------------

Below you find a list of papers that are relevant to this ORCA run
We neither can nor want to force you to cite these papers, but we appreciate if you do
You receive ORCA, which is the product of decades of hard work by many enthusiastic individuals, for free
The only thing we kindly ask in return is that you cite our papers,
We deeply appreciate it, if you show your appreciation for ORCA by not just citing the generic ORCA reference.

Please note that relegating all ORCA citations to the supporting information does *not* help us.
SI sections are not indexed - citations you put there will not count into any citation statistics
But we need these citations in order to attract the funding resources that allow us to do what we are doing

Therefore, if you are a happy ORCA user, please consider citing a few of the papers listed below in the main body of your paper

In addition to the list printed below, the program has created the file data/geom_opt/74149/74149.bibtex that contains the list in bibtex format
You can import this file easily into all common literature databanks and citation aid programs


List of essential papers. We consider these as the minimum necessary citations

  1. Neese,F.
     Software update: the ORCA program system, version 5.0
     WIRES Comput. Molec. Sci., 2022 12(1)e1606
     doi.org/10.1002/wcms.1606

List of papers to cite with high priority. The work reported in these papers was absolutely
necessary for this run to complete.
Our perspective: the developers of density functionals and basis sets usually get cited in chemistry papers
Good! But without the algorithms to do something with them, the functionals or basis sets would not do anything.
Hence, in our opinion, the algorithm design and method developments papers are equally worthy of getting cited

  1. Neese,F.
     An improvement of the resolution of the identity approximation for the formation of the Coulomb matrix
     J. Comp. Chem., 2003 24(14)1740-1747
     doi.org/10.1002/jcc.10318
  2. Neese,F.
     The SHARK Integral Generation and Digestion System
     J. Comp. Chem., 2022  1-16
     doi.org/10.1002/jcc.26942
  3. Grimme,S.; Antony,J.; Ehrlich,S.; Krieg,H.
     A consistent and accurate ab initio parametrization of density functional dispersion correction (DFT-D) for the 94 elements H-Pu
     J. Chem. Phys., 2010 132 154104-XXXX
     doi.org/10.1063/1.3382344
  4. Grimme,S.; Ehrlich,S.; Goerigk,L.
     Effect of the damping function in dispersion corrected density functional theory
     J. Comput. Chem., 2011 32(7)1456-1465
     doi.org/10.1002/jcc.21759

List of suggested additional citations. These are papers that are important in the 'surrounding' of 
of this run, or papers that preceded the highly important papers. If you like your results we are grateful for a citation.

  1. Neese,F.
     The ORCA program system
     WIRES Comput. Molec. Sci., 2012 2(1)73-78
     doi.org/10.1002/wcms.81
  2. Neese,F.
     Software update: the ORCA program system, version 4.0
     WIRES Comput. Molec. Sci., 2018 8(1)1-6
     doi.org/10.1002/wcms.1327
  3. Neese,F.; Wennmohs,F.; Becker,U.; Riplinger,C.
     The ORCA quantum chemistry program package
     J. Chem. Phys., 2020 152 Art. No. L224108
     doi.org/10.1063/5.0004608

List of optional additional citations

  1. Neese,F.
     Approximate second-order SCF convergence for spin unrestricted wavefunctions
     Chem. Phys. Lett., 2000 325(1-3)93-98
     doi.org/10.1016/s0009-2614(00)00662-x

Timings for individual modules:

Sum of individual times          ...      126.367 sec (=   2.106 min)
Startup calculation              ...        5.812 sec (=   0.097 min)   4.6 %
SCF iterations                   ...       74.050 sec (=   1.234 min)  58.6 %
Property calculations            ...        0.154 sec (=   0.003 min)   0.1 %
SCF Gradient evaluation          ...       46.280 sec (=   0.771 min)  36.6 %
Geometry relaxation              ...        0.071 sec (=   0.001 min)   0.1 %
                             ****ORCA TERMINATED NORMALLY****
TOTAL RUN TIME: 0 days 0 hours 2 minutes 7 seconds 804 msec
