
                                 *****************
                                 * O   R   C   A *
                                 *****************

                                            #,                                       
                                            ###                                      
                                            ####                                     
                                            #####                                    
                                            ######                                   
                                           ########,                                 
                                     ,,################,,,,,                         
                               ,,#################################,,                 
                          ,,##########################################,,             
                       ,#########################################, ''#####,          
                    ,#############################################,,   '####,        
                  ,##################################################,,,,####,       
                ,###########''''           ''''###############################       
              ,#####''   ,,,,##########,,,,          '''####'''          '####       
            ,##' ,,,,###########################,,,                        '##       
           ' ,,###''''                  '''############,,,                           
         ,,##''                                '''############,,,,        ,,,,,,###''
      ,#''                                            '''#######################'''  
     '                                                          ''''####''''         
             ,#######,   #######,   ,#######,      ##                                
            ,#'     '#,  ##    ##  ,#'     '#,    #''#        ,####,   ,####,        
            ##       ##  ##   ,#'  ##            #'  '#       #'       #'  '#        
            ##       ##  #######   ##           ,######,      #####,   #    #        
            '#,     ,#'  ##    ##  '#,     ,#' ,#      #,     #,   #   #,  ,#        
             '#######'   ##     ##  '#######'  #'      '#     '####' # '####'        



                #########################################################
                #                        -***-                          #
                #          Department of theory and spectroscopy        #
                #                                                       #
                #                      Frank Neese                      #
                #                                                       #
                #     Directorship, Architecture, Infrastructure        #
                #                    SHARK, DRIVERS                     #
                #        Core code/Algorithms in most modules           #
                #                                                       #
                #        Max Planck Institute fuer Kohlenforschung      #
                #                Kaiser Wilhelm Platz 1                 #
                #                 D-45470 Muelheim/Ruhr                 #
                #                      Germany                          #
                #                                                       #
                #                  All rights reserved                  #
                #                        -***-                          #
                #########################################################


                         Program Version 6.0.0  -   RELEASE   -


 With contributions from (in alphabetic order):
   Daniel Aravena         : Magnetic Suceptibility
   Michael Atanasov       : Ab Initio Ligand Field Theory (pilot matlab implementation)
   Alexander A. Auer      : GIAO ZORA, VPT2 properties, NMR spectrum
   Ute Becker             : All parallelization in ORCA, NUMFREQ, NUMCALC
   Giovanni Bistoni       : ED, misc. LED, open-shell LED, HFLD
   Martin Brehm           : Molecular dynamics
   Dmytro Bykov           : pre 5.0 version of the SCF Hessian
   Marcos Casanova-Páez   : Triplet and SCS-CIS(D). UHF-(DLPNO)-IP/EA/STEOM-CCSD. UHF-CVS-IP/STEOM-CCSD
   Vijay G. Chilkuri      : MRCI spin determinant printing, contributions to CSF-ICE
   Pauline Colinet        : FMM embedding
   Dipayan Datta          : RHF DLPNO-CCSD density
   Achintya Kumar Dutta   : EOM-CC, STEOM-CC
   Nicolas Foglia         : Exact transition moments, OPA infrastructure, MCD improvements
   Dmitry Ganyushin       : Spin-Orbit,Spin-Spin,Magnetic field MRCI
   Miquel Garcia          : C-PCM and meta-GGA Hessian, CCSD/C-PCM, Gaussian charge scheme
   Tiago L. C. Gouveia    : GS-ROHF, GS-ROCIS
   Yang Guo               : DLPNO-NEVPT2, F12-NEVPT2, CIM, IAO-localization
   Andreas Hansen         : Spin unrestricted coupled pair/coupled cluster methods
   Ingolf Harden          : AUTO-CI MPn and infrastructure 
   Benjamin Helmich-Paris : MC-RPA, TRAH-(SCF,CASSCF), AVAS, COSX integrals, SCF dyn. polar.
   Lee Huntington         : MR-EOM, pCC
   Robert Izsak           : Overlap fitted RIJCOSX, COSX-SCS-MP3, EOM
   Riya Kayal             : Wick's Theorem for AUTO-CI, AUTO-CI UHF-CCSDT
   Emily Kempfer          : AUTO-CI, RHF CISDT and CCSDT
   Christian Kollmar      : KDIIS, OOCD, Brueckner-CCSD(T), CCSD density, CASPT2, CASPT2-K, improved NEVPT2
   Axel Koslowski         : Symmetry handling
   Simone Kossmann        : Meta GGA functionals, TD-DFT gradient, OOMP2, (MP2 Hessian; deprecated post 5.0)
   Lucas Lang             : DCDCAS
   Marvin Lechner         : AUTO-CI (C++ implementation), FIC-MRCC
   Spencer Leger          : CASSCF response
   Dagmar Lenk            : GEPOL surface, SMD, ORCA-2-JSON
   Dimitrios Liakos       : Extrapolation schemes; Compound Job, initial MDCI parallelization
   Dimitrios Manganas     : Further ROCIS development; embedding schemes. LFT, Crystal Embedding
   Dimitrios Pantazis     : SARC Basis sets
   Anastasios Papadopoulos: AUTO-CI, single reference methods and gradients
   Taras Petrenko         : pre 6.0 DFT Hessian and TD-DFT gradient, (ASA, deprecated), ECA, 1-Electron XAS/XES, NRVS
   Peter Pinski           : DLPNO-MP2, DLPNO-MP2 Gradient
   Christoph Reimann      : Effective Core Potentials
   Marius Retegan         : Local ZFS, SOC
   Christoph Riplinger    : Optimizer, TS searches, QM/MM, DLPNO-CCSD(T), (RO)-DLPNO pert. Triples
   Michael Roemelt        : Original ROCIS implementation
   Masaaki Saitow         : Open-shell DLPNO-CCSD energy and density
   Barbara Sandhoefer     : DKH picture change effects
   Kantharuban Sivalingam : CASSCF convergence/infrastructure, NEVPT2 and variants, FIC-MRCI
   Bernardo de Souza      : ESD, SOC TD-DFT
   Georgi Stoychev        : AutoAux, RI-MP2 NMR, DLPNO-MP2 response, X2C
   Van Anh Tran           : RI-MP2 g-tensors
   Willem Van den Heuvel  : Paramagnetic NMR
   Zikuan Wang            : NOTCH, Electric field optimization 
   Frank Wennmohs         : Technical directorship and infrastructure
   Hang Xu                : AUTO-CI-Response properties 


 We gratefully acknowledge several colleagues who have allowed us to
 interface, adapt or use parts of their codes:
   Stefan Grimme, W. Hujo, H. Kruse, P. Pracht,  : VdW corrections, initial TS optimization,
                  C. Bannwarth, S. Ehlert,         DFT functionals, gCP, sTDA/sTD-DF
                  L. Wittmann, M. Mueller
   Ed Valeev, F. Pavosevic, A. Kumar             : LibInt (2-el integral package), F12 methods
   Garnet Chan, S. Sharma, J. Yang, R. Olivares  : DMRG
   Ulf Ekstrom                                   : XCFun DFT Library
   Mihaly Kallay                                 : mrcc  (arbitrary order and MRCC methods)
   Frank Weinhold                                : gennbo (NPA and NBO analysis)
   Simon Mueller                                 : openCOSMO-RS
   Christopher J. Cramer and Donald G. Truhlar   : smd solvation model
   Lars Goerigk                                  : TD-DFT with DH, B97 family of functionals
   V. Asgeirsson, H. Jonsson                     : NEB implementation
   FAccTs GmbH                                   : IRC, NEB, NEB-TS, DLPNO-Multilevel, CI-OPT
                                                   MM, QMMM, 2- and 3-layer-ONIOM, Crystal-QMMM,
                                                   LR-CPCM, SF, NACMEs, symmetry and pop. for TD-DFT,
                                                   nearIR, NL-DFT gradient (VV10), updates on ESD,
                                                   ML-optimized integration grids, MBIS, APM,
                                                   GOAT, DOCKER, SOLVATOR, interface openCOSMO-RS
   S Lehtola, MJT Oliveira, MAL Marques          : LibXC Library
   Liviu Ungur et al                             : ANISO software


 Your calculation uses the libint2 library for the computation of 2-el integrals
 For citations please refer to: http://libint.valeyev.net

 Your ORCA version has been built with support for libXC version: 6.2.2
 For citations please refer to: https://libxc.gitlab.io

 This ORCA versions uses:
   CBLAS   interface :  Fast vector & matrix operations
   LAPACKE interface :  Fast linear algebra routines
   Shared memory     :  Shared parallel matrices


Your calculation utilizes the atom-pairwise dispersion correction
with the Becke-Johnson damping scheme (D3BJ)


Warning: RI is on but no J-basis has been assigned. Assigning Def2/J (nothing to worry about!)
================================================================================

----- Orbital basis set information -----
Your calculation utilizes the basis: def2-SVP
   F. Weigend and R. Ahlrichs, Phys. Chem. Chem. Phys. 7, 3297 (2005).

----- AuxJ basis set information -----
Your calculation utilizes the auxiliary basis: def2/J
   F. Weigend, Phys. Chem. Chem. Phys. 8, 1057 (2006).

================================================================================
                                        WARNINGS
                       Please study these warnings very carefully!
================================================================================


WARNING: Geometry Optimization
  ===> : Switching off AutoStart
         For restart on a previous wavefunction, please use MOREAD

================================================================================
                                       INPUT FILE
================================================================================
NAME = data/geom_opt/627824/627824.inp
|  1> ! RIJONX B3LYP def2-SVP D3BJ TIGHTSCF Opt
|  2> %pal
|  3> nprocs 6
|  4> end
|  5> 
|  6> * xyz 0 1
|  7> C     -2.923798   -3.507115    0.172678
|  8> C     -1.784779   -3.103210    0.863259
|  9> C     -1.023132   -2.026815    0.396558
| 10> C     -1.387953   -1.335052   -0.768095
| 11> C     -2.541489   -1.760369   -1.451289
| 12> C     -3.303197   -2.835626   -0.985283
| 13> P     -0.462648    0.076216   -1.455781
| 14> C     -1.274802    1.539507   -0.734402
| 15> C     -2.235571    1.487916    0.286084
| 16> C     -2.816136    2.657146    0.788979
| 17> C     -2.448646    3.898417    0.277664
| 18> C     -1.501566    3.972816   -0.738566
| 19> C     -0.922256    2.804165   -1.240777
| 20> C      1.148527   -0.002552   -0.605913
| 21> C      2.116775   -0.887768   -1.114398
| 22> C      3.378665   -1.004603   -0.519906
| 23> C      3.698510   -0.232290    0.599299
| 24> C      2.748262    0.653207    1.115595
| 25> C      1.487153    0.766366    0.517406
| 26> C      5.019414   -0.317986    1.267105
| 27> O      5.366561    0.316451    2.246014
| 28> O      5.847402   -1.197950    0.676632
| 29> H     -3.514164   -4.343840    0.536471
| 30> H     -1.484753   -3.624643    1.768745
| 31> H     -0.145712   -1.740240    0.970122
| 32> H     -2.862895   -1.252198   -2.359072
| 33> H     -4.191610   -3.146091   -1.529000
| 34> H     -2.551618    0.541060    0.716027
| 35> H     -3.557888    2.593565    1.581194
| 36> H     -2.901556    4.805355    0.669190
| 37> H     -1.211950    4.938790   -1.143903
| 38> H     -0.184010    2.892730   -2.036262
| 39> H      1.895676   -1.504110   -1.985085
| 40> H      4.099789   -1.701022   -0.940749
| 41> H      2.981658    1.262129    1.987240
| 42> H      0.778776    1.464471    0.957390
| 43> H      6.664962   -1.146827    1.214830
| 44> **                         ****END OF INPUT****
================================================================================

                       *****************************
                       * Geometry Optimization Run *
                       *****************************

Geometry optimization settings:
Update method            Update   .... BFGS
Choice of coordinates    CoordSys .... (2022) Redundant Internals
Initial Hessian          InHess   .... Almloef's Model
Max. no of cycles        MaxIter  .... 111

Convergence Tolerances:
Energy Change            TolE     ....  5.0000e-06 Eh
Max. Gradient            TolMAXG  ....  3.0000e-04 Eh/bohr
RMS Gradient             TolRMSG  ....  1.0000e-04 Eh/bohr
Max. Displacement        TolMAXD  ....  4.0000e-03 bohr
RMS Displacement         TolRMSD  ....  2.0000e-03 bohr
Strict Convergence                .... False

------------------------------------------------------------------------------
                        ORCA OPTIMIZATION COORDINATE SETUP
------------------------------------------------------------------------------

The optimization will be done in redundant internal coordinates (2022)
Making redundant internal coordinates   ...  (2022 redundants) done
Evaluating the initial hessian          ...  (Almloef) done
Evaluating the coordinates              ...  done
Calculating the B-matrix                .... done
Calculating the G-matrix                .... done
Diagonalizing the G-matrix              .... done
Small eigenvalue found = 3.706e-03
Small eigenvalue found = 5.169e-03
Small eigenvalue found = 8.225e-03
Small eigenvalue found = 2.510e-02
Small eigenvalue found = 2.593e-02
The first mode is                       ....   85
The number of degrees of freedom        ....  105

    -----------------------------------------------------------------
                    Redundant Internal Coordinates


    -----------------------------------------------------------------
         Definition                    Initial Value    Approx d2E/dq
    -----------------------------------------------------------------
      1. B(C   1,C   0)                  1.3919         0.620434   
      2. B(C   2,C   1)                  1.3988         0.605000   
      3. B(C   3,C   2)                  1.4029         0.595942   
      4. B(C   4,C   3)                  1.4065         0.588010   
      5. B(C   5,C   4)                  1.3977         0.607392   
      6. B(C   5,C   0)                  1.3913         0.621820   
      7. B(P   6,C   3)                  1.8223         0.429067   
      8. B(C   7,P   6)                  1.8224         0.428884   
      9. B(C   8,C   7)                  1.4025         0.596657   
     10. B(C   9,C   8)                  1.3989         0.604590   
     11. B(C  10,C   9)                  1.3918         0.620565   
     12. B(C  11,C  10)                  1.3911         0.622227   
     13. B(C  12,C  11)                  1.3977         0.607374   
     14. B(C  12,C   7)                  1.4071         0.586652   
     15. B(C  13,P   6)                  1.8233         0.427519   
     16. B(C  14,C  13)                  1.4070         0.586955   
     17. B(C  15,C  14)                  1.3998         0.602705   
     18. B(C  16,C  15)                  1.3969         0.609111   
     19. B(C  17,C  16)                  1.3977         0.607313   
     20. B(C  18,C  17)                  1.4004         0.601446   
     21. B(C  18,C  13)                  1.4028         0.596175   
     22. B(C  19,C  16)                  1.4826         0.444636   
     23. B(O  20,C  19)                  1.2171         1.056229   
     24. B(O  21,C  19)                  1.3448         0.660612   
     25. B(H  22,C   0)                  1.0867         0.364449   
     26. B(H  23,C   1)                  1.0871         0.363941   
     27. B(H  24,C   2)                  1.0867         0.364461   
     28. B(H  25,C   4)                  1.0889         0.361615   
     29. B(H  26,C   5)                  1.0869         0.364260   
     30. B(H  27,C   8)                  1.0869         0.364273   
     31. B(H  28,C   9)                  1.0871         0.363922   
     32. B(H  29,C  10)                  1.0867         0.364468   
     33. B(H  30,C  11)                  1.0869         0.364268   
     34. B(H  31,C  12)                  1.0889         0.361592   
     35. B(H  32,C  14)                  1.0894         0.360855   
     36. B(H  33,C  15)                  1.0873         0.363747   
     37. B(H  34,C  17)                  1.0886         0.361972   
     38. B(H  35,C  18)                  1.0875         0.363374   
     39. B(H  36,O  21)                  0.9801         0.482874   
     40. A(C   5,C   0,H  22)          120.1375         0.353803   
     41. A(C   1,C   0,H  22)          120.1248         0.353669   
     42. A(C   1,C   0,C   5)          119.7377         0.434350   
     43. A(C   2,C   1,H  23)          119.7844         0.352081   
     44. A(C   0,C   1,C   2)          120.2219         0.432213   
     45. A(C   0,C   1,H  23)          119.9938         0.353585   
     46. A(C   3,C   2,H  24)          121.2050         0.351269   
     47. A(C   1,C   2,C   3)          120.9877         0.429098   
     48. A(C   1,C   2,H  24)          117.8055         0.352166   
     49. A(C   2,C   3,P   6)          124.2723         0.430384   
     50. A(C   2,C   3,C   4)          117.8671         0.426913   
     51. A(C   4,C   3,P   6)          117.8604         0.429350   
     52. A(C   3,C   4,C   5)          121.1739         0.428371   
     53. A(C   5,C   4,H  25)          118.4336         0.351934   
     54. A(C   3,C   4,H  25)          120.3923         0.350011   
     55. A(C   0,C   5,C   4)          120.0118         0.432693   
     56. A(C   4,C   5,H  26)          119.8959         0.352368   
     57. A(C   0,C   5,H  26)          120.0923         0.353772   
     58. A(C   7,P   6,C  13)          104.1218         0.432532   
     59. A(C   3,P   6,C  13)          103.8476         0.432565   
     60. A(C   3,P   6,C   7)          104.2509         0.432813   
     61. A(C   8,C   7,C  12)          117.8083         0.426828   
     62. A(P   6,C   7,C  12)          117.8745         0.429139   
     63. A(P   6,C   7,C   8)          124.3156         0.430443   
     64. A(C   7,C   8,C   9)          121.0039         0.429139   
     65. A(C   9,C   8,H  27)          117.7261         0.352095   
     66. A(C   7,C   8,H  27)          121.2695         0.351310   
     67. A(C  10,C   9,H  28)          120.0009         0.353595   
     68. A(C   8,C   9,H  28)          119.7514         0.352038   
     69. A(C   8,C   9,C  10)          120.2476         0.432177   
     70. A(C   9,C  10,C  11)          119.7232         0.434417   
     71. A(C  11,C  10,H  29)          120.1519         0.353845   
     72. A(C   9,C  10,H  29)          120.1247         0.353685   
     73. A(C  12,C  11,H  30)          119.9124         0.352368   
     74. A(C  10,C  11,H  30)          120.0915         0.353812   
     75. A(C  10,C  11,C  12)          119.9961         0.432742   
     76. A(C   7,C  12,H  31)          120.3885         0.349871   
     77. A(C  11,C  12,H  31)          118.3920         0.351929   
     78. A(C   7,C  12,C  11)          121.2192         0.428192   
     79. A(C  14,C  13,C  18)          117.9139         0.426805   
     80. A(P   6,C  13,C  18)          124.2565         0.430135   
     81. A(P   6,C  13,C  14)          117.8289         0.428934   
     82. A(C  15,C  14,H  32)          118.3697         0.351349   
     83. A(C  13,C  14,H  32)          120.3386         0.349781   
     84. A(C  13,C  14,C  15)          121.2915         0.427639   
     85. A(C  14,C  15,H  33)          119.1424         0.351823   
     86. A(C  16,C  15,H  33)          120.8228         0.352453   
     87. A(C  14,C  15,C  16)          120.0349         0.430491   
     88. A(C  15,C  16,C  19)          122.2029         0.407772   
     89. A(C  17,C  16,C  19)          118.4209         0.407559   
     90. A(C  15,C  16,C  17)          119.3762         0.431080   
     91. A(C  18,C  17,H  34)          119.3351         0.351408   
     92. A(C  16,C  17,H  34)          120.2903         0.351985   
     93. A(C  16,C  17,C  18)          120.3746         0.430101   
     94. A(C  17,C  18,H  35)          117.7515         0.351638   
     95. A(C  13,C  18,H  35)          121.2384         0.351115   
     96. A(C  13,C  18,C  17)          121.0088         0.428675   
     97. A(C  16,C  19,O  21)          112.8667         0.411011   
     98. A(C  16,C  19,O  20)          125.8932         0.447097   
     99. A(O  20,C  19,O  21)          121.2401         0.477444   
    100. A(C  19,O  21,H  36)          103.7882         0.369446   
    101. D(H  23,C   1,C   0,C   5)    179.9733         0.026639   
    102. D(C   2,C   1,C   0,C   5)     -0.0058         0.026639   
    103. D(C   2,C   1,C   0,H  22)    179.9764         0.026639   
    104. D(H  23,C   1,C   0,H  22)     -0.0445         0.026639   
    105. D(C   3,C   2,C   1,H  23)   -179.9249         0.025256   
    106. D(C   3,C   2,C   1,C   0)      0.0543         0.025256   
    107. D(H  24,C   2,C   1,C   0)    179.5672         0.025256   
    108. D(H  24,C   2,C   1,H  23)     -0.4120         0.025256   
    109. D(P   6,C   3,C   2,H  24)      0.5371         0.024465   
    110. D(C   4,C   3,C   2,C   1)     -0.1165         0.024465   
    111. D(P   6,C   3,C   2,C   1)   -179.9667         0.024465   
    112. D(C   4,C   3,C   2,H  24)   -179.6127         0.024465   
    113. D(H  25,C   4,C   3,C   2)    179.9329         0.023786   
    114. D(C   5,C   4,C   3,C   2)      0.1344         0.023786   
    115. D(C   5,C   4,C   3,P   6)    179.9944         0.023786   
    116. D(H  25,C   4,C   3,P   6)     -0.2071         0.023786   
    117. D(H  26,C   5,C   4,H  25)      0.1249         0.025467   
    118. D(C   0,C   5,C   4,H  25)   -179.8922         0.025467   
    119. D(H  26,C   5,C   0,H  22)      0.0240         0.026765   
    120. D(H  26,C   5,C   0,C   1)   -179.9938         0.026765   
    121. D(C   4,C   5,C   0,H  22)   -179.9589         0.026765   
    122. D(H  26,C   5,C   4,C   3)    179.9273         0.025467   
    123. D(C   4,C   5,C   0,C   1)      0.0233         0.026765   
    124. D(C   0,C   5,C   4,C   3)     -0.0898         0.025467   
    125. D(C  13,P   6,C   3,C   4)   -164.2647         0.003792   
    126. D(C  13,P   6,C   3,C   2)     15.5855         0.003792   
    127. D(C   7,P   6,C   3,C   4)     86.9590         0.003792   
    128. D(C   7,P   6,C   3,C   2)    -93.1908         0.003792   
    129. D(C  12,C   7,P   6,C   3)   -170.0738         0.003790   
    130. D(C   8,C   7,P   6,C  13)    -99.1264         0.003790   
    131. D(C   8,C   7,P   6,C   3)      9.4479         0.003790   
    132. D(C  12,C   7,P   6,C  13)     81.3520         0.003790   
    133. D(H  27,C   8,C   7,C  12)    179.8216         0.024527   
    134. D(H  27,C   8,C   7,P   6)      0.2997         0.024527   
    135. D(C   9,C   8,C   7,C  12)     -0.4377         0.024527   
    136. D(C   9,C   8,C   7,P   6)   -179.9597         0.024527   
    137. D(H  28,C   9,C   8,H  27)     -0.1627         0.025220   
    138. D(H  28,C   9,C   8,C   7)   -179.9122         0.025220   
    139. D(C  10,C   9,C   8,H  27)    179.9203         0.025220   
    140. D(C  10,C   9,C   8,C   7)      0.1708         0.025220   
    141. D(H  29,C  10,C   9,H  28)      0.0291         0.026651   
    142. D(H  29,C  10,C   9,C   8)    179.9459         0.026651   
    143. D(C  11,C  10,C   9,H  28)   -179.8251         0.026651   
    144. D(C  11,C  10,C   9,C   8)      0.0917         0.026651   
    145. D(H  30,C  11,C  10,H  29)     -0.0021         0.026803   
    146. D(H  30,C  11,C  10,C   9)    179.8520         0.026803   
    147. D(C  12,C  11,C  10,H  29)   -179.9264         0.026803   
    148. D(C  12,C  11,C  10,C   9)     -0.0722         0.026803   
    149. D(H  31,C  12,C  11,H  30)      0.0621         0.025466   
    150. D(C   7,C  12,C  11,H  30)    179.8660         0.025466   
    151. D(C   7,C  12,C  11,C  10)     -0.2097         0.025466   
    152. D(H  31,C  12,C   7,C   8)   -179.7419         0.023671   
    153. D(H  31,C  12,C   7,P   6)     -0.1886         0.023671   
    154. D(H  31,C  12,C  11,C  10)    179.9865         0.025466   
    155. D(C  11,C  12,C   7,C   8)      0.4582         0.023671   
    156. D(C  11,C  12,C   7,P   6)   -179.9885         0.023671   
    157. D(C  18,C  13,P   6,C   7)     10.9820         0.003775   
    158. D(C  18,C  13,P   6,C   3)    -97.8900         0.003775   
    159. D(C  14,C  13,P   6,C   7)   -168.7013         0.003775   
    160. D(C  14,C  13,P   6,C   3)     82.4267         0.003775   
    161. D(H  32,C  14,C  13,P   6)     -0.3199         0.023697   
    162. D(C  15,C  14,C  13,C  18)      0.1806         0.023697   
    163. D(C  15,C  14,C  13,P   6)    179.8844         0.023697   
    164. D(H  32,C  14,C  13,C  18)    179.9763         0.023697   
    165. D(H  33,C  15,C  14,H  32)      0.0964         0.025054   
    166. D(H  33,C  15,C  14,C  13)    179.8960         0.025054   
    167. D(C  16,C  15,C  14,H  32)   -179.9077         0.025054   
    168. D(C  16,C  15,C  14,C  13)     -0.1081         0.025054   
    169. D(C  19,C  16,C  15,H  33)     -0.0398         0.025620   
    170. D(C  19,C  16,C  15,C  14)    179.9644         0.025620   
    171. D(C  17,C  16,C  15,H  33)   -179.9824         0.025620   
    172. D(C  17,C  16,C  15,C  14)      0.0218         0.025620   
    173. D(H  34,C  17,C  16,C  19)      0.0495         0.025460   
    174. D(H  34,C  17,C  16,C  15)    179.9943         0.025460   
    175. D(C  18,C  17,C  16,C  19)   -179.9584         0.025460   
    176. D(C  18,C  17,C  16,C  15)     -0.0137         0.025460   
    177. D(H  35,C  18,C  17,H  34)     -0.3346         0.024944   
    178. D(H  35,C  18,C  17,C  16)    179.6732         0.024944   
    179. D(C  13,C  18,C  17,H  34)   -179.9163         0.024944   
    180. D(C  13,C  18,C  17,C  16)      0.0915         0.024944   
    181. D(H  35,C  18,C  13,C  14)   -179.7389         0.024485   
    182. D(H  35,C  18,C  13,P   6)      0.5781         0.024485   
    183. D(C  17,C  18,C  13,C  14)     -0.1718         0.024485   
    184. D(C  17,C  18,C  13,P   6)   -179.8549         0.024485   
    185. D(O  21,C  19,C  16,C  17)   -179.7387         0.013483   
    186. D(O  21,C  19,C  16,C  15)      0.3182         0.013483   
    187. D(O  20,C  19,C  16,C  17)      0.2984         0.013483   
    188. D(O  20,C  19,C  16,C  15)   -179.6448         0.013483   
    189. D(H  36,O  21,C  19,O  20)     -0.1190         0.032340   
    190. D(H  36,O  21,C  19,C  16)    179.9161         0.032340   
    -----------------------------------------------------------------

Number of atoms                         .... 37
Number of degrees of freedom            .... 190


         *************************************************************
         *                GEOMETRY OPTIMIZATION CYCLE   1            *
         *************************************************************
---------------------------------
CARTESIAN COORDINATES (ANGSTROEM)
---------------------------------
  C     -2.923798   -3.507115    0.172678
  C     -1.784779   -3.103210    0.863259
  C     -1.023132   -2.026815    0.396558
  C     -1.387953   -1.335052   -0.768095
  C     -2.541489   -1.760369   -1.451289
  C     -3.303197   -2.835626   -0.985283
  P     -0.462648    0.076216   -1.455781
  C     -1.274802    1.539507   -0.734402
  C     -2.235571    1.487916    0.286084
  C     -2.816136    2.657146    0.788979
  C     -2.448646    3.898417    0.277664
  C     -1.501566    3.972816   -0.738566
  C     -0.922256    2.804165   -1.240777
  C      1.148527   -0.002552   -0.605913
  C      2.116775   -0.887768   -1.114398
  C      3.378665   -1.004603   -0.519906
  C      3.698510   -0.232290    0.599299
  C      2.748262    0.653207    1.115595
  C      1.487153    0.766366    0.517406
  C      5.019414   -0.317986    1.267105
  O      5.366561    0.316451    2.246014
  O      5.847402   -1.197950    0.676632
  H     -3.514164   -4.343840    0.536471
  H     -1.484753   -3.624643    1.768745
  H     -0.145712   -1.740240    0.970122
  H     -2.862895   -1.252198   -2.359072
  H     -4.191610   -3.146091   -1.529000
  H     -2.551618    0.541060    0.716027
  H     -3.557888    2.593565    1.581194
  H     -2.901556    4.805355    0.669190
  H     -1.211950    4.938790   -1.143903
  H     -0.184010    2.892730   -2.036262
  H      1.895676   -1.504110   -1.985085
  H      4.099789   -1.701022   -0.940749
  H      2.981658    1.262129    1.987240
  H      0.778776    1.464471    0.957390
  H      6.664962   -1.146827    1.214830

----------------------------
CARTESIAN COORDINATES (A.U.)
----------------------------
  NO LB      ZA    FRAG     MASS         X           Y           Z
   0 C     6.0000    0    12.011   -5.525177   -6.627487    0.326314
   1 C     6.0000    0    12.011   -3.372744   -5.864217    1.631323
   2 C     6.0000    0    12.011   -1.933439   -3.830125    0.749386
   3 C     6.0000    0    12.011   -2.622851   -2.522883   -1.451489
   4 C     6.0000    0    12.011   -4.802718   -3.326615   -2.742539
   5 C     6.0000    0    12.011   -6.242138   -5.358557   -1.861915
   6 P    15.0000    0    30.974   -0.874278    0.144027   -2.751027
   7 C     6.0000    0    12.011   -2.409027    2.909247   -1.387819
   8 C     6.0000    0    12.011   -4.224617    2.811754    0.540620
   9 C     6.0000    0    12.011   -5.321726    5.021278    1.490954
  10 C     6.0000    0    12.011   -4.627270    7.366940    0.524709
  11 C     6.0000    0    12.011   -2.837549    7.507534   -1.395687
  12 C     6.0000    0    12.011   -1.742811    5.299104   -2.344729
  13 C     6.0000    0    12.011    2.170401   -0.004823   -1.145010
  14 C     6.0000    0    12.011    4.000125   -1.677638   -2.105907
  15 C     6.0000    0    12.011    6.384752   -1.898425   -0.982480
  16 C     6.0000    0    12.011    6.989171   -0.438964    1.132511
  17 C     6.0000    0    12.011    5.193463    1.234382    2.108169
  18 C     6.0000    0    12.011    2.810312    1.448222    0.977756
  19 C     6.0000    0    12.011    9.485318   -0.600906    2.394481
  20 O     8.0000    0    15.999   10.141331    0.598006    4.244351
  21 O     8.0000    0    15.999   11.049988   -2.263797    1.278649
  22 H     1.0000    0     1.008   -6.640808   -8.208668    1.013783
  23 H     1.0000    0     1.008   -2.805777   -6.849583    3.342444
  24 H     1.0000    0     1.008   -0.275356   -3.288577    1.833265
  25 H     1.0000    0     1.008   -5.410088   -2.366311   -4.458000
  26 H     1.0000    0     1.008   -7.920995   -5.945250   -2.889391
  27 H     1.0000    0     1.008   -4.821859    1.022455    1.353095
  28 H     1.0000    0     1.008   -6.723434    4.901128    2.988024
  29 H     1.0000    0     1.008   -5.483146    9.080805    1.264586
  30 H     1.0000    0     1.008   -2.290254    9.332961   -2.161663
  31 H     1.0000    0     1.008   -0.347729    5.466467   -3.847978
  32 H     1.0000    0     1.008    3.582308   -2.842356   -3.751267
  33 H     1.0000    0     1.008    7.747478   -3.214466   -1.777758
  34 H     1.0000    0     1.008    5.634517    2.385078    3.755339
  35 H     1.0000    0     1.008    1.471673    2.767449    1.809205
  36 H     1.0000    0     1.008   12.594953   -2.167189    2.295696

--------------------------------
INTERNAL COORDINATES (ANGSTROEM)
--------------------------------
 C      0   0   0     0.000000000000     0.00000000     0.00000000
 C      1   0   0     1.391907198396     0.00000000     0.00000000
 C      2   1   0     1.398764516291   120.22186239     0.00000000
 C      3   2   1     1.402870992151   120.98767120     0.05429508
 C      4   3   2     1.406518359433   117.86706174   359.88354138
 C      1   2   3     1.391299664286   119.73765534     0.00000000
 P      4   3   2     1.822300399343   124.27234123   180.03334068
 C      7   4   3     1.822416618679   104.25090090   266.80922178
 C      8   7   4     1.402544252007   124.31555200     9.44786826
 C      9   8   7     1.398948852943   121.00390280   180.04034010
 C     10   9   8     1.391849713427   120.24761593     0.17076855
 C     11  10   9     1.391121544115   119.72324991     0.09166422
 C     12  11  10     1.397698509845   119.99605573   359.92779162
 C      7   4   3     1.823284096314   103.84757173    15.58551436
 C     14   7   4     1.407006947881   117.82885416    82.42669712
 C     15  14   7     1.399799102510   121.29147060   179.88438113
 C     16  15  14     1.396920909006   120.03485927   359.89188082
 C     17  16  15     1.397725923824   119.37622595     0.00000000
 C     18  17  16     1.400368147625   120.37455515     0.00000000
 C     17  16  15     1.482597732113   122.20285110   179.96437769
 O     20  17  16     1.217080185057   125.89320036   180.35523443
 O     20  17  16     1.344826804153   112.86665184     0.31816705
 H      1   2   3     1.086731837405   120.12482101   179.97637586
 H      2   1   3     1.087112170091   119.99377926   179.97915523
 H      3   2   1     1.086722940368   117.80550607   179.56715815
 H      5   4   3     1.088856995737   120.39228621   179.93293299
 H      6   1   2     1.086873659117   120.09230484   180.00624647
 H      9   8   7     1.086863825046   121.26949783     0.29970994
 H     10   9   8     1.087126110113   119.75141274   180.08777271
 H     11  10   9     1.086718276565   120.12467576   179.94586017
 H     12  11  10     1.086867645899   120.09150112   179.85201157
 H     13  12  11     1.088874327444   118.39195323   179.98650049
 H     15  14   7     1.089430163312   120.33855589   359.68007727
 H     16  15  14     1.087257134990   119.14238083   179.89602517
 H     18  17  16     1.088588398305   120.29032855   179.99425960
 H     19  18  17     1.087535969709   117.75152660   179.67321001
 H     22  20  17     0.980140297066   103.78821113   179.91609670

---------------------------
INTERNAL COORDINATES (A.U.)
---------------------------
 C      0   0   0     0.000000000000     0.00000000     0.00000000
 C      1   0   0     2.630323408802     0.00000000     0.00000000
 C      2   1   0     2.643281861637   120.22186239     0.00000000
 C      3   2   1     2.651041976388   120.98767120     0.05429508
 C      4   3   2     2.657934501660   117.86706174   359.88354138
 C      1   2   3     2.629175335718   119.73765534     0.00000000
 P      4   3   2     3.443648688493   124.27234123   180.03334068
 C      7   4   3     3.443868311210   104.25090090   266.80922178
 C      8   7   4     2.650424526999   124.31555200     9.44786826
 C      9   8   7     2.643630207425   121.00390280   180.04034010
 C     10   9   8     2.630214777953   120.24761593     0.17076855
 C     11  10   9     2.628838737375   119.72324991     0.09166422
 C     12  11  10     2.641267401396   119.99605573   359.92779162
 C      7   4   3     3.445507606368   103.84757173    15.58551436
 C     14   7   4     2.658857800019   117.82885416    82.42669712
 C     15  14   7     2.645236946253   121.29147060   179.88438113
 C     16  15  14     2.639797948770   120.03485927   359.89188082
 C     17  16  15     2.641319206309   119.37622595     0.00000000
 C     18  17  16     2.646312285678   120.37455515     0.00000000
 C     17  16  15     2.801703680467   122.20285110   179.96437769
 O     20  17  16     2.299948232780   125.89320036   180.35523443
 O     20  17  16     2.541354357406   112.86665184     0.31816705
 H      1   2   3     2.053625553709   120.12482101   179.97637586
 H      2   1   3     2.054344278326   119.99377926   179.97915523
 H      3   2   1     2.053608740744   117.80550607   179.56715815
 H      5   4   3     2.057641520948   120.39228621   179.93293299
 H      6   1   2     2.053893557905   120.09230484   180.00624647
 H      9   8   7     2.053874974203   121.26949783     0.29970994
 H     10   9   8     2.054370621149   119.75141274   180.08777271
 H     11  10   9     2.053599927434   120.12467576   179.94586017
 H     12  11  10     2.053882194568   120.09150112   179.85201157
 H     13  12  11     2.057674273126   118.39195323   179.98650049
 H     15  14   7     2.058724650693   120.33855589   359.68007727
 H     16  15  14     2.054618222282   119.14238083   179.89602517
 H     18  17  16     2.057133945361   120.29032855   179.99425960
 H     19  18  17     2.055145143538   117.75152660   179.67321001
 H     22  20  17     1.852196734275   103.78821113   179.91609670

---------------------
BASIS SET INFORMATION
---------------------
There are 4 groups of distinct atoms

 Group   1 Type C   : 7s4p1d contracted to 3s2p1d pattern {511/31/1}
 Group   2 Type P   : 10s7p1d contracted to 4s3p1d pattern {5311/511/1}
 Group   3 Type O   : 7s4p1d contracted to 3s2p1d pattern {511/31/1}
 Group   4 Type H   : 4s1p contracted to 2s1p pattern {31/1}

Atom   0C    basis set group =>   1
Atom   1C    basis set group =>   1
Atom   2C    basis set group =>   1
Atom   3C    basis set group =>   1
Atom   4C    basis set group =>   1
Atom   5C    basis set group =>   1
Atom   6P    basis set group =>   2
Atom   7C    basis set group =>   1
Atom   8C    basis set group =>   1
Atom   9C    basis set group =>   1
Atom  10C    basis set group =>   1
Atom  11C    basis set group =>   1
Atom  12C    basis set group =>   1
Atom  13C    basis set group =>   1
Atom  14C    basis set group =>   1
Atom  15C    basis set group =>   1
Atom  16C    basis set group =>   1
Atom  17C    basis set group =>   1
Atom  18C    basis set group =>   1
Atom  19C    basis set group =>   1
Atom  20O    basis set group =>   3
Atom  21O    basis set group =>   3
Atom  22H    basis set group =>   4
Atom  23H    basis set group =>   4
Atom  24H    basis set group =>   4
Atom  25H    basis set group =>   4
Atom  26H    basis set group =>   4
Atom  27H    basis set group =>   4
Atom  28H    basis set group =>   4
Atom  29H    basis set group =>   4
Atom  30H    basis set group =>   4
Atom  31H    basis set group =>   4
Atom  32H    basis set group =>   4
Atom  33H    basis set group =>   4
Atom  34H    basis set group =>   4
Atom  35H    basis set group =>   4
Atom  36H    basis set group =>   4
---------------------------------
AUXILIARY/J BASIS SET INFORMATION
---------------------------------
There are 4 groups of distinct atoms

 Group   1 Type C   : 12s5p4d2f1g contracted to 6s4p3d1f1g pattern {711111/2111/211/2/1}
 Group   2 Type P   : 14s5p5d2f1g contracted to 8s4p3d1f1g pattern {71111111/2111/311/2/1}
 Group   3 Type O   : 12s5p4d2f1g contracted to 6s4p3d1f1g pattern {711111/2111/211/2/1}
 Group   4 Type H   : 5s2p1d contracted to 3s1p1d pattern {311/2/1}

Atom   0C    basis set group =>   1
Atom   1C    basis set group =>   1
Atom   2C    basis set group =>   1
Atom   3C    basis set group =>   1
Atom   4C    basis set group =>   1
Atom   5C    basis set group =>   1
Atom   6P    basis set group =>   2
Atom   7C    basis set group =>   1
Atom   8C    basis set group =>   1
Atom   9C    basis set group =>   1
Atom  10C    basis set group =>   1
Atom  11C    basis set group =>   1
Atom  12C    basis set group =>   1
Atom  13C    basis set group =>   1
Atom  14C    basis set group =>   1
Atom  15C    basis set group =>   1
Atom  16C    basis set group =>   1
Atom  17C    basis set group =>   1
Atom  18C    basis set group =>   1
Atom  19C    basis set group =>   1
Atom  20O    basis set group =>   3
Atom  21O    basis set group =>   3
Atom  22H    basis set group =>   4
Atom  23H    basis set group =>   4
Atom  24H    basis set group =>   4
Atom  25H    basis set group =>   4
Atom  26H    basis set group =>   4
Atom  27H    basis set group =>   4
Atom  28H    basis set group =>   4
Atom  29H    basis set group =>   4
Atom  30H    basis set group =>   4
Atom  31H    basis set group =>   4
Atom  32H    basis set group =>   4
Atom  33H    basis set group =>   4
Atom  34H    basis set group =>   4
Atom  35H    basis set group =>   4
Atom  36H    basis set group =>   4


           ************************************************************
           *        Program running with 6 parallel MPI-processes     *
           *              working on a common directory               *
           ************************************************************
------------------------------------------------------------------------------
                             ORCA STARTUP CALCULATIONS
                           -- RI-GTO INTEGRALS CHOSEN --
------------------------------------------------------------------------------
------------------------------------------------------------------------------
                   ___                                                        
                  /   \      - P O W E R E D   B Y -                         
                 /     \                                                     
                 |  |  |   _    _      __       _____    __    __             
                 |  |  |  | |  | |    /  \     |  _  \  |  |  /  |          
                  \  \/   | |  | |   /    \    | | | |  |  | /  /          
                 / \  \   | |__| |  /  /\  \   | |_| |  |  |/  /          
                |  |  |   |  __  | /  /__\  \  |    /   |      \           
                |  |  |   | |  | | |   __   |  |    \   |  |\   \          
                \     /   | |  | | |  |  |  |  | |\  \  |  | \   \       
                 \___/    |_|  |_| |__|  |__|  |_| \__\ |__|  \__/        
                                                                              
                      - O R C A' S   B I G   F R I E N D -                    
                                      &                                       
                       - I N T E G R A L  F E E D E R -                       
                                                                              
 v1 FN, 2020, v2 2021, v3 2022-2024                                           
------------------------------------------------------------------------------


----------------------
SHARK INTEGRAL PACKAGE
----------------------

Number of atoms                             ...     37
Number of basis functions                   ...    387
Number of shells                            ...    179
Maximum angular momentum                    ...      2
Integral batch strategy                     ... SHARK/LIBINT Hybrid
RI-J (if used) integral strategy            ... SPLIT-RIJ (Revised 2003 algorithm where possible)
Printlevel                                  ...      1
Contraction scheme used                     ... SEGMENTED contraction
Prescreening option                         ... SCHWARTZ
   Thresh                                   ... 2.500e-11
   Tcut                                     ... 2.500e-12
   Tpresel                                  ... 2.500e-12 
Coulomb Range Separation                    ... NOT USED
Exchange Range Separation                   ... NOT USED
Multipole approximations                    ... NOT USED
Finite Nucleus Model                        ... NOT USED
CABS basis                                  ... NOT available
Auxiliary Coulomb fitting basis             ... AVAILABLE
   # of basis functions in Aux-J            ...   1245
   # of shells in Aux-J                     ...    407
   Maximum angular momentum in Aux-J        ...      4
Auxiliary J/K fitting basis                 ... NOT available
Auxiliary Correlation fitting basis         ... NOT available
Auxiliary 'external' fitting basis          ... NOT available

Checking pre-screening integrals            ... done (  0.0 sec) Dimension = 179
Check shell pair data                       ... done (  0.0 sec)
Shell pair information
Shell pair cut-off parameter TPreSel        ...   2.5e-12
Total number of shell pairs                 ...     16110
Shell pairs after pre-screening             ...     11603
Total number of primitive shell pairs       ...     60026
Primitive shell pairs kept                  ...     27461
          la=0 lb=0:   3506 shell pairs
          la=1 lb=0:   4325 shell pairs
          la=1 lb=1:   1367 shell pairs
          la=2 lb=0:   1394 shell pairs
          la=2 lb=1:    875 shell pairs
          la=2 lb=2:    136 shell pairs

Calculating one electron integrals          ... done (  0.0 sec)
Calculating RI/J V-Matrix + Cholesky decomp.... done (  0.1 sec)
Calculating Nuclear repulsion               ... done (  0.0 sec) ENN=   1745.403439861384 Eh

Diagonalization of the overlap matrix:
Smallest eigenvalue                        ... 2.638e-04
Time for diagonalization                   ...    0.021 sec
Threshold for overlap eigenvalues          ... 1.000e-07
Number of eigenvalues below threshold      ... 0
Time for construction of square roots      ...    0.012 sec
Total time needed                          ...    0.036 sec

-------------------
DFT GRID GENERATION
-------------------

General Integration Accuracy     IntAcc      ... 4.388
Radial Grid Type                 RadialGrid  ... OptM3 with GC (2021)
Angular Grid (max. ang.)         AngularGrid ... 4 (Lebedev-302)
Angular grid pruning method      GridPruning ... 4 (adaptive)
Weight generation scheme         WeightScheme... mBecke (2022)
Basis function cutoff            BFCut       ... 1.0000e-11
Integration weight cutoff        WCut        ... 1.0000e-14
Partially contracted basis set               ... off
Rotationally invariant grid construction     ... off
Angular grids for H and He will be reduced by one unit

Total number of grid points                  ...   180816
Total number of batches                      ...     2845
Average number of points per batch           ...       63
Average number of grid points per atom       ...     4887
Initializing property integral containers    ... done (  0.0 sec)

SHARK setup successfully completed in   1.3 seconds

Maximum memory used throughout the entire STARTUP-calculation: 48.4 MB


           ************************************************************
           *        Program running with 6 parallel MPI-processes     *
           *              working on a common directory               *
           ************************************************************
-------------------------------------------------------------------------------
                                 ORCA GUESS
                   Start orbitals & Density for SCF / CASSCF
-------------------------------------------------------------------------------

------------
SCF SETTINGS
------------
Hamiltonian:
 Density Functional     Method          .... DFT(GTOs)
 Exchange Functional    Exchange        .... B88
   X-Alpha parameter    XAlpha          ....  0.666667
   Becke's b parameter  XBeta           ....  0.004200
 Correlation Functional Correlation     .... LYP
 LDA part of GGA corr.  LDAOpt          .... VWN-5
 Gradients option       PostSCFGGA      .... off
 Hybrid DFT is turned on
   Fraction HF Exchange ScalHFX         ....  0.200000
   Scaling of DF-GGA-X  ScalDFX         ....  0.720000
   Scaling of DF-GGA-C  ScalDFC         ....  0.810000
   Scaling of DF-LDA-C  ScalLDAC        ....  1.000000
   Perturbative correction              ....  0.000000
   NL short-range parameter             ....  4.800000
 RI-approximation to the Coulomb term is turned on
   Number of AuxJ basis functions       .... 1245
   RIJ-ON(X) (HFX calculated with O(N)) .... on


General Settings:
 Integral files         IntName         .... data/geom_opt/627824/627824
 Hartree-Fock type      HFTyp           .... RHF
 Total Charge           Charge          ....    0
 Multiplicity           Mult            ....    1
 Number of Electrons    NEL             ....  160
 Basis Dimension        Dim             ....  387
 Nuclear Repulsion      ENuc            ....   1745.4034398614 Eh

Convergence Acceleration:
 AO-DIIS                CNVDIIS         .... on
   Start iteration      DIISMaxIt       ....    12
   Startup error        DIISStart       ....  0.200000
   # of expansion vecs  DIISMaxEq       ....     5
   Bias factor          DIISBfac        ....   1.050
   Max. coefficient     DIISMaxC        ....  10.000
 MO-DIIS                CNVKDIIS        .... off
 Trust-Rad. Augm. Hess. CNVTRAH         .... auto
   Auto Start mean grad. ratio tolernc. ....  1.125000
   Auto Start start iteration           ....    50
   Auto Start num. interpolation iter.  ....    10
   Max. Number of Micro iterations      ....    24
   Max. Number of Macro iterations      .... Maxiter - #DIIS iter
   Number of Davidson start vectors     ....     2
   Converg. threshold    (grad. norm)   ....   1.000e-05
   Grad. Scal. Fac. for Micro threshold ....   0.100
   Minimum threshold for Micro iter.    ....   1.000e-02
   NR start threshold (gradient norm)   ....   1.000e-04
   Initial trust radius                 ....   0.400
   Minimum AH scaling param. (alpha)    ....   1.000
   Maximum AH scaling param. (alpha)    .... 1000.000
   Quad. conv. algorithm                .... NR
   White noise on init. David. guess    .... on
   Maximum white noise                  ....   0.010
   Pseudo random numbers                .... off
   Inactive MOs                         .... canonical
   Orbital update algorithm             .... Taylor
   Preconditioner                       .... Diag
   Full preconditioner red. dimension   ....   250
   COSX micro iterations for RIJONX calc.... off
 SOSCF                  CNVSOSCF        .... on
   Start iteration      SOSCFMaxIt      ....   150
   Startup grad/error   SOSCFStart      ....  0.003300
   Hessian update       SOSCFHessUp     .... L-BFGS
 Level Shifting         CNVShift        .... on
   Level shift para.    LevelShift      ....    0.2500
   Turn off err/grad.   ShiftErr        ....    0.0010
 Zerner damping         CNVZerner       .... off
 Static damping         CNVDamp         .... on
   Fraction old density DampFac         ....    0.7000
   Max. Damping (<1)    DampMax         ....    0.9800
   Min. Damping (>=0)   DampMin         ....    0.0000
   Turn off err/grad.   DampErr         ....    0.1000

SCF Procedure:
 Maximum # iterations   MaxIter         ....   125
 SCF integral mode      SCFMode         .... Direct
   Integral package                     .... SHARK and LIBINT hybrid scheme
 Reset frequency        DirectResetFreq ....    20
 Integral Threshold     Thresh          ....  2.500e-11 Eh
 Primitive CutOff       TCut            ....  2.500e-12 Eh

Convergence Tolerance:
 Convergence Check Mode ConvCheckMode   .... Total+1el-Energy
 Convergence forced     ConvForced      .... 0
 Energy Change          TolE            ....  1.000e-08 Eh
 1-El. energy change                    ....  1.000e-05 Eh
 Orbital Gradient       TolG            ....  1.000e-05
 Orbital Rotation angle TolX            ....  1.000e-05
 DIIS Error             TolErr          ....  5.000e-07

------------------------------
INITIAL GUESS: MODEL POTENTIAL
------------------------------
Loading Hartree-Fock densities                     ... done
Calculating cut-offs                               ... done
Initializing the effective Hamiltonian             ... done
Setting up the integral package (SHARK)            ... done
Starting the Coulomb interaction                   ... done (   0.2 sec)
Making the grid                                    ... done (   0.3 sec)
Mapping shells                                     ... done
Starting the XC term evaluation                    ... done (   0.2 sec)
  promolecular density results
     # of electrons  =    159.979751656
     EX              =   -141.164475804
     EC              =     -5.524480442
     EX+EC           =   -146.688956246
Transforming the Hamiltonian                       ... done (   0.0 sec)
Diagonalizing the Hamiltonian                      ... done (   0.0 sec)
Back transforming the eigenvectors                 ... done (   0.0 sec)
Now organizing SCF variables                       ... done
                      ------------------
                      INITIAL GUESS DONE (   0.7 sec)
                      ------------------
             **** ENERGY FILE WAS UPDATED (data/geom_opt/627824/627824.en.tmp) ****
Finished Guess after   0.8 sec
Maximum memory used throughout the entire GUESS-calculation: 27.7 MB


           ************************************************************
           *        Program running with 6 parallel MPI-processes     *
           *              working on a common directory               *
           ************************************************************

-------------------------------------------------------------------------------------------
                                      ORCA LEAN-SCF
                              memory conserving SCF solver
-------------------------------------------------------------------------------------------

----------------------------------------D-I-I-S--------------------------------------------
Iteration    Energy (Eh)           Delta-E    RMSDP     MaxDP     DIISErr   Damp  Time(sec)
-------------------------------------------------------------------------------------------
               ***  Starting incremental Fock matrix formation  ***
    1    -1223.0700905366568350     0.00e+00  2.59e-03  8.91e-02  2.62e-01  0.700   5.0
    2    -1223.2943490759464567    -2.24e-01  1.77e-03  5.00e-02  9.77e-02  0.700   4.4
                               ***Turning on AO-DIIS***
    3    -1223.3845284878027542    -9.02e-02  7.97e-04  3.30e-02  3.54e-02  0.700   4.3
    4    -1223.4387865227715793    -5.43e-02  1.47e-03  8.31e-02  1.71e-02  0.000   4.2
    5    -1223.5571213596833786    -1.18e-01  2.25e-04  1.34e-02  5.07e-03  0.000   4.4
                              *** Initializing SOSCF ***
---------------------------------------S-O-S-C-F--------------------------------------
Iteration    Energy (Eh)           Delta-E    RMSDP     MaxDP     MaxGrad    Time(sec)
--------------------------------------------------------------------------------------
    6    -1223.5578228765996300    -7.02e-04  7.88e-05  4.05e-03  2.07e-03     3.9
               *** Restarting incremental Fock matrix formation ***
    7    -1223.5578632602075686    -4.04e-05  6.72e-05  2.94e-03  5.80e-04     5.0
    8    -1223.5578386276354195     2.46e-05  3.80e-05  2.11e-03  1.38e-03     3.4
    9    -1223.5578741473520950    -3.55e-05  1.22e-05  4.88e-04  7.67e-05     3.1
   10    -1223.5578736692971233     4.78e-07  6.78e-06  2.55e-04  1.01e-04     2.9
   11    -1223.5578746631620106    -9.94e-07  3.19e-06  1.93e-04  1.92e-05     2.9
   12    -1223.5578746416224476     2.15e-08  1.92e-06  9.75e-05  2.31e-05     2.5
   13    -1223.5578746953467544    -5.37e-08  5.37e-07  2.50e-05  3.66e-06     2.4
   14    -1223.5578746816411240     1.37e-08  3.12e-07  1.06e-05  5.94e-06     2.1
   15    -1223.5578746925168616    -1.09e-08  1.93e-07  1.24e-05  9.19e-07     1.9
                  *** Gradient check signals convergence ***

               *****************************************************
               *                     SUCCESS                       *
               *           SCF CONVERGED AFTER  15 CYCLES          *
               *****************************************************

             **** ENERGY FILE WAS UPDATED (data/geom_opt/627824/627824.en.tmp) ****

----------------
TOTAL SCF ENERGY
----------------

Total Energy       :      -1223.55787469251686 Eh          -33294.70244 eV

Components:
Nuclear Repulsion  :       1745.40343986138419 Eh           47494.84219 eV
Electronic Energy  :      -2968.96131455390105 Eh          -80789.54463 eV
One Electron Energy:      -5137.34009749692359 Eh         -139794.13105 eV
Two Electron Energy:       2168.37878294302254 Eh           59004.58642 eV

Virial components:
Potential Energy   :      -2437.52057744958256 Eh          -66328.30698 eV
Kinetic Energy     :       1213.96270275706593 Eh           33033.60454 eV
Virial Ratio       :          2.00790400884118

DFT components:
N(Alpha)           :       80.000041959368 electrons
N(Beta)            :       80.000041959368 electrons
N(Total)           :      160.000083918737 electrons
E(X)               :     -113.407011071863 Eh       
E(C)               :       -6.508127299803 Eh       
E(XC)              :     -119.915138371666 Eh       

---------------
SCF CONVERGENCE
---------------

  Last Energy change         ...    1.0876e-08  Tolerance :   1.0000e-08
  Last MAX-Density change    ...    1.2392e-05  Tolerance :   1.0000e-07
  Last RMS-Density change    ...    1.9348e-07  Tolerance :   5.0000e-09
  Last DIIS Error            ...    2.0750e-03  Tolerance :   5.0000e-07
  Last Orbital Gradient      ...    9.1896e-07  Tolerance :   1.0000e-05
  Last Orbital Rotation      ...    3.7743e-06  Tolerance :   1.0000e-05


----------------
ORBITAL ENERGIES
----------------

  NO   OCC          E(Eh)            E(eV) 
   0   2.0000     -77.054134     -2096.7496 
   1   2.0000     -19.180149      -521.9184 
   2   2.0000     -19.118864      -520.2507 
   3   2.0000     -10.315184      -280.6904 
   4   2.0000     -10.204723      -277.6846 
   5   2.0000     -10.204299      -277.6731 
   6   2.0000     -10.202047      -277.6118 
   7   2.0000     -10.200596      -277.5723 
   8   2.0000     -10.199841      -277.5518 
   9   2.0000     -10.198248      -277.5084 
  10   2.0000     -10.197765      -277.4953 
  11   2.0000     -10.196519      -277.4614 
  12   2.0000     -10.196292      -277.4552 
  13   2.0000     -10.195274      -277.4275 
  14   2.0000     -10.194993      -277.4199 
  15   2.0000     -10.194002      -277.3929 
  16   2.0000     -10.193539      -277.3803 
  17   2.0000     -10.193455      -277.3780 
  18   2.0000     -10.193176      -277.3704 
  19   2.0000     -10.192729      -277.3583 
  20   2.0000     -10.192346      -277.3478 
  21   2.0000     -10.191943      -277.3369 
  22   2.0000      -6.550922      -178.2596 
  23   2.0000      -4.716362      -128.3387 
  24   2.0000      -4.716313      -128.3374 
  25   2.0000      -4.713392      -128.2579 
  26   2.0000      -1.096558       -29.8389 
  27   2.0000      -0.996845       -27.1255 
  28   2.0000      -0.862904       -23.4808 
  29   2.0000      -0.853697       -23.2303 
  30   2.0000      -0.849587       -23.1184 
  31   2.0000      -0.780741       -21.2450 
  32   2.0000      -0.754137       -20.5211 
  33   2.0000      -0.747522       -20.3411 
  34   2.0000      -0.742047       -20.1921 
  35   2.0000      -0.741655       -20.1815 
  36   2.0000      -0.738873       -20.1058 
  37   2.0000      -0.672666       -18.3042 
  38   2.0000      -0.634211       -17.2578 
  39   2.0000      -0.613821       -16.7029 
  40   2.0000      -0.604366       -16.4456 
  41   2.0000      -0.603744       -16.4287 
  42   2.0000      -0.595422       -16.2023 
  43   2.0000      -0.584098       -15.8941 
  44   2.0000      -0.561113       -15.2687 
  45   2.0000      -0.529262       -14.4019 
  46   2.0000      -0.520811       -14.1720 
  47   2.0000      -0.505351       -13.7513 
  48   2.0000      -0.483633       -13.1603 
  49   2.0000      -0.464669       -12.6443 
  50   2.0000      -0.461374       -12.5546 
  51   2.0000      -0.459275       -12.4975 
  52   2.0000      -0.453307       -12.3351 
  53   2.0000      -0.452614       -12.3163 
  54   2.0000      -0.452029       -12.3003 
  55   2.0000      -0.444822       -12.1042 
  56   2.0000      -0.437194       -11.8967 
  57   2.0000      -0.428477       -11.6594 
  58   2.0000      -0.424967       -11.5640 
  59   2.0000      -0.423495       -11.5239 
  60   2.0000      -0.413343       -11.2476 
  61   2.0000      -0.400483       -10.8977 
  62   2.0000      -0.380621       -10.3572 
  63   2.0000      -0.375072       -10.2062 
  64   2.0000      -0.373364       -10.1597 
  65   2.0000      -0.370244       -10.0749 
  66   2.0000      -0.354703        -9.6520 
  67   2.0000      -0.351717        -9.5707 
  68   2.0000      -0.350074        -9.5260 
  69   2.0000      -0.336269        -9.1504 
  70   2.0000      -0.330950        -9.0056 
  71   2.0000      -0.320213        -8.7134 
  72   2.0000      -0.283537        -7.7154 
  73   2.0000      -0.278800        -7.5865 
  74   2.0000      -0.269989        -7.3468 
  75   2.0000      -0.267018        -7.2659 
  76   2.0000      -0.264804        -7.2057 
  77   2.0000      -0.258896        -7.0449 
  78   2.0000      -0.257109        -6.9963 
  79   2.0000      -0.214187        -5.8283 
  80   0.0000      -0.059120        -1.6087 
  81   0.0000      -0.029920        -0.8142 
  82   0.0000      -0.026628        -0.7246 
  83   0.0000      -0.015718        -0.4277 
  84   0.0000      -0.010871        -0.2958 
  85   0.0000      -0.007737        -0.2105 
  86   0.0000       0.039706         1.0805 
  87   0.0000       0.056826         1.5463 
  88   0.0000       0.061598         1.6762 
  89   0.0000       0.063286         1.7221 
  90   0.0000       0.072298         1.9673 
*Only the first 10 virtual orbitals were printed.

                    ********************************
                    * MULLIKEN POPULATION ANALYSIS *
                    ********************************

-----------------------
MULLIKEN ATOMIC CHARGES
-----------------------
   0 C :    0.027143
   1 C :    0.027990
   2 C :    0.015690
   3 C :   -0.141888
   4 C :    0.022118
   5 C :    0.024957
   6 P :    0.348308
   7 C :   -0.139777
   8 C :    0.010707
   9 C :    0.028976
  10 C :    0.026760
  11 C :    0.025278
  12 C :    0.018378
  13 C :   -0.127287
  14 C :    0.026107
  15 C :    0.023088
  16 C :   -0.024522
  17 C :    0.017428
  18 C :    0.016025
  19 C :    0.165561
  20 O :   -0.220297
  21 O :   -0.172317
  22 H :   -0.017255
  23 H :   -0.018701
  24 H :   -0.008507
  25 H :   -0.016444
  26 H :   -0.016929
  27 H :   -0.006152
  28 H :   -0.019764
  29 H :   -0.017753
  30 H :   -0.017008
  31 H :   -0.017122
  32 H :   -0.013745
  33 H :   -0.006566
  34 H :   -0.003928
  35 H :   -0.000521
  36 H :    0.181966
Sum of atomic charges:   -0.0000000

--------------------------------
MULLIKEN REDUCED ORBITAL CHARGES
--------------------------------
  0 C s       :     3.158989  s :     3.158989
      pz      :     0.950371  p :     2.778383
      px      :     0.934474
      py      :     0.893537
      dz2     :     0.008094  d :     0.035485
      dxz     :     0.008067
      dyz     :     0.006685
      dx2y2   :     0.005550
      dxy     :     0.007089

  1 C s       :     3.158745  s :     3.158745
      pz      :     0.875482  p :     2.778139
      px      :     0.956827
      py      :     0.945830
      dz2     :     0.006333  d :     0.035125
      dxz     :     0.006973
      dyz     :     0.006711
      dx2y2   :     0.007717
      dxy     :     0.007390

  2 C s       :     3.222798  s :     3.222798
      pz      :     0.925144  p :     2.726471
      px      :     0.873428
      py      :     0.927899
      dz2     :     0.007055  d :     0.035041
      dxz     :     0.007799
      dyz     :     0.007346
      dx2y2   :     0.006785
      dxy     :     0.006056

  3 C s       :     3.079844  s :     3.079844
      pz      :     0.991928  p :     3.025416
      px      :     1.020844
      py      :     1.012645
      dz2     :     0.008393  d :     0.036627
      dxz     :     0.008213
      dyz     :     0.007584
      dx2y2   :     0.005631
      dxy     :     0.006807

  4 C s       :     3.212681  s :     3.212681
      pz      :     0.881742  p :     2.730324
      px      :     0.940881
      py      :     0.907700
      dz2     :     0.006118  d :     0.034877
      dxz     :     0.007025
      dyz     :     0.006667
      dx2y2   :     0.007603
      dxy     :     0.007464

  5 C s       :     3.158796  s :     3.158796
      pz      :     0.936357  p :     2.781114
      px      :     0.882590
      py      :     0.962168
      dz2     :     0.007194  d :     0.035133
      dxz     :     0.007645
      dyz     :     0.007420
      dx2y2   :     0.006663
      dxy     :     0.006211

  6 P s       :     5.633762  s :     5.633762
      pz      :     3.343244  p :     8.837722
      px      :     2.745897
      py      :     2.748581
      dz2     :     0.014494  d :     0.180208
      dxz     :     0.038591
      dyz     :     0.034622
      dx2y2   :     0.044590
      dxy     :     0.047912

  7 C s       :     3.078581  s :     3.078581
      pz      :     0.991722  p :     3.024633
      px      :     1.021891
      py      :     1.011019
      dz2     :     0.007221  d :     0.036564
      dxz     :     0.005190
      dyz     :     0.009057
      dx2y2   :     0.007271
      dxy     :     0.007825

  8 C s       :     3.224629  s :     3.224629
      pz      :     0.938009  p :     2.729659
      px      :     0.962473
      py      :     0.829177
      dz2     :     0.006313  d :     0.035004
      dxz     :     0.005070
      dyz     :     0.008239
      dx2y2   :     0.007848
      dxy     :     0.007535

  9 C s       :     3.158041  s :     3.158041
      pz      :     0.901166  p :     2.777829
      px      :     0.915410
      py      :     0.961252
      dz2     :     0.004760  d :     0.035154
      dxz     :     0.004690
      dyz     :     0.008554
      dx2y2   :     0.008733
      dxy     :     0.008416

 10 C s       :     3.158799  s :     3.158799
      pz      :     0.950722  p :     2.778962
      px      :     0.948666
      py      :     0.879574
      dz2     :     0.006560  d :     0.035479
      dxz     :     0.004924
      dyz     :     0.008410
      dx2y2   :     0.007496
      dxy     :     0.008089

 11 C s       :     3.158571  s :     3.158571
      pz      :     0.954233  p :     2.780970
      px      :     0.967450
      py      :     0.859286
      dz2     :     0.006474  d :     0.035181
      dxz     :     0.005145
      dyz     :     0.008163
      dx2y2   :     0.008075
      dxy     :     0.007323

 12 C s       :     3.212268  s :     3.212268
      pz      :     0.902718  p :     2.734513
      px      :     0.907024
      py      :     0.924771
      dz2     :     0.004631  d :     0.034841
      dxz     :     0.004700
      dyz     :     0.008584
      dx2y2   :     0.008612
      dxy     :     0.008315

 13 C s       :     3.083860  s :     3.083860
      pz      :     0.981626  p :     3.006469
      px      :     1.013528
      py      :     1.011316
      dz2     :     0.008075  d :     0.036957
      dxz     :     0.009237
      dyz     :     0.005858
      dx2y2   :     0.007558
      dxy     :     0.006228

 14 C s       :     3.214288  s :     3.214288
      pz      :     0.886073  p :     2.725133
      px      :     0.908166
      py      :     0.930894
      dz2     :     0.005581  d :     0.034473
      dxz     :     0.008007
      dyz     :     0.005424
      dx2y2   :     0.007824
      dxy     :     0.007636

 15 C s       :     3.234426  s :     3.234426
      pz      :     0.942545  p :     2.707926
      px      :     0.859937
      py      :     0.905443
      dz2     :     0.007502  d :     0.034561
      dxz     :     0.008209
      dyz     :     0.005584
      dx2y2   :     0.005673
      dxy     :     0.007593

 16 C s       :     3.108791  s :     3.108791
      pz      :     0.943481  p :     2.876583
      px      :     0.942604
      py      :     0.990498
      dz2     :     0.007593  d :     0.039148
      dxz     :     0.009697
      dyz     :     0.006461
      dx2y2   :     0.008930
      dxy     :     0.006466

 17 C s       :     3.248087  s :     3.248087
      pz      :     0.855114  p :     2.699942
      px      :     0.931022
      py      :     0.913807
      dz2     :     0.005523  d :     0.034542
      dxz     :     0.008247
      dyz     :     0.005123
      dx2y2   :     0.007596
      dxy     :     0.008053

 18 C s       :     3.228902  s :     3.228902
      pz      :     0.927349  p :     2.720411
      px      :     0.859961
      py      :     0.933101
      dz2     :     0.006989  d :     0.034661
      dxz     :     0.008805
      dyz     :     0.005452
      dx2y2   :     0.005854
      dxy     :     0.007562

 19 C s       :     3.029486  s :     3.029486
      pz      :     0.893262  p :     2.671766
      px      :     0.942905
      py      :     0.835599
      dz2     :     0.027438  d :     0.133187
      dxz     :     0.034818
      dyz     :     0.022908
      dx2y2   :     0.023707
      dxy     :     0.024317

 20 O s       :     3.721068  s :     3.721068
      pz      :     1.351727  p :     4.481233
      px      :     1.674335
      py      :     1.455172
      dz2     :     0.005771  d :     0.017996
      dxz     :     0.003323
      dyz     :     0.005352
      dx2y2   :     0.001641
      dxy     :     0.001908

 21 O s       :     3.676965  s :     3.676965
      pz      :     1.605210  p :     4.481446
      px      :     1.258750
      py      :     1.617486
      dz2     :     0.001831  d :     0.013906
      dxz     :     0.004626
      dyz     :     0.002775
      dx2y2   :     0.002357
      dxy     :     0.002318

 22 H s       :     0.994288  s :     0.994288
      pz      :     0.005059  p :     0.022967
      px      :     0.007174
      py      :     0.010734

 23 H s       :     0.995730  s :     0.995730
      pz      :     0.011753  p :     0.022971
      px      :     0.004660
      py      :     0.006559

 24 H s       :     0.984908  s :     0.984908
      pz      :     0.006950  p :     0.023599
      px      :     0.011761
      py      :     0.004889

 25 H s       :     0.993363  s :     0.993363
      pz      :     0.011874  p :     0.023081
      px      :     0.004691
      py      :     0.006516

 26 H s       :     0.993916  s :     0.993916
      pz      :     0.006686  p :     0.023013
      px      :     0.011484
      py      :     0.004843

 27 H s       :     0.982492  s :     0.982492
      pz      :     0.005774  p :     0.023660
      px      :     0.005038
      py      :     0.012848

 28 H s       :     0.996801  s :     0.996801
      pz      :     0.010098  p :     0.022963
      px      :     0.009449
      py      :     0.003417

 29 H s       :     0.994776  s :     0.994776
      pz      :     0.005481  p :     0.022976
      px      :     0.006073
      py      :     0.011422

 30 H s       :     0.993993  s :     0.993993
      pz      :     0.005626  p :     0.023015
      px      :     0.004897
      py      :     0.012491

 31 H s       :     0.994043  s :     0.994043
      pz      :     0.010219  p :     0.023079
      px      :     0.009367
      py      :     0.003493

 32 H s       :     0.990676  s :     0.990676
      pz      :     0.011329  p :     0.023069
      px      :     0.004090
      py      :     0.007649

 33 H s       :     0.983291  s :     0.983291
      pz      :     0.005442  p :     0.023275
      px      :     0.009099
      py      :     0.008733

 34 H s       :     0.980678  s :     0.980678
      pz      :     0.011515  p :     0.023249
      px      :     0.004270
      py      :     0.007464

 35 H s       :     0.976906  s :     0.976906
      pz      :     0.005666  p :     0.023615
      px      :     0.008970
      py      :     0.008978

 36 H s       :     0.752599  s :     0.752599
      pz      :     0.020504  p :     0.065435
      px      :     0.030797
      py      :     0.014133



                     *******************************
                     * LOEWDIN POPULATION ANALYSIS *
                     *******************************

----------------------
LOEWDIN ATOMIC CHARGES
----------------------
   0 C :   -0.019156
   1 C :   -0.023535
   2 C :   -0.026974
   3 C :   -0.178754
   4 C :   -0.023149
   5 C :   -0.023800
   6 P :    0.524055
   7 C :   -0.180004
   8 C :   -0.028168
   9 C :   -0.023377
  10 C :   -0.020177
  11 C :   -0.023571
  12 C :   -0.024565
  13 C :   -0.161715
  14 C :   -0.023955
  15 C :    0.002900
  16 C :   -0.075133
  17 C :    0.014696
  18 C :   -0.028644
  19 C :    0.085222
  20 O :   -0.193358
  21 O :   -0.040780
  22 H :    0.026642
  23 H :    0.027090
  24 H :    0.027033
  25 H :    0.024803
  26 H :    0.027484
  27 H :    0.027482
  28 H :    0.026723
  29 H :    0.026455
  30 H :    0.027494
  31 H :    0.024360
  32 H :    0.026874
  33 H :    0.033086
  34 H :    0.036029
  35 H :    0.030405
  36 H :    0.099981

-------------------------------
LOEWDIN REDUCED ORBITAL CHARGES
-------------------------------
  0 C s       :     2.859756  s :     2.859756
      pz      :     1.033504  p :     3.067490
      px      :     1.026736
      py      :     1.007251
      dz2     :     0.020287  d :     0.091910
      dxz     :     0.022249
      dyz     :     0.017663
      dx2y2   :     0.013697
      dxy     :     0.018015

  1 C s       :     2.860607  s :     2.860607
      pz      :     1.017095  p :     3.071857
      px      :     1.034879
      py      :     1.019883
      dz2     :     0.015814  d :     0.091072
      dxz     :     0.018680
      dyz     :     0.017057
      dx2y2   :     0.019027
      dxy     :     0.020495

  2 C s       :     2.864960  s :     2.864960
      pz      :     1.022531  p :     3.070350
      px      :     1.022250
      py      :     1.025570
      dz2     :     0.017862  d :     0.091664
      dxz     :     0.020091
      dyz     :     0.021021
      dx2y2   :     0.016620
      dxy     :     0.016070

  3 C s       :     2.911631  s :     2.911631
      pz      :     1.065186  p :     3.175096
      px      :     1.053758
      py      :     1.056153
      dz2     :     0.020009  d :     0.092026
      dxz     :     0.022063
      dyz     :     0.020001
      dx2y2   :     0.013673
      dxy     :     0.016280

  4 C s       :     2.866015  s :     2.866015
      pz      :     1.017326  p :     3.066013
      px      :     1.031253
      py      :     1.017434
      dz2     :     0.015762  d :     0.091121
      dxz     :     0.018498
      dyz     :     0.017090
      dx2y2   :     0.018604
      dxy     :     0.021167

  5 C s       :     2.860024  s :     2.860024
      pz      :     1.031188  p :     3.072683
      px      :     1.016286
      py      :     1.025210
      dz2     :     0.018118  d :     0.091093
      dxz     :     0.019719
      dyz     :     0.020544
      dx2y2   :     0.016170
      dxy     :     0.016542

  6 P s       :     5.230183  s :     5.230183
      pz      :     3.415083  p :     8.996383
      px      :     2.789781
      py      :     2.791520
      dz2     :     0.021465  d :     0.249379
      dxz     :     0.052068
      dyz     :     0.045943
      dx2y2   :     0.062507
      dxy     :     0.067395

  7 C s       :     2.912246  s :     2.912246
      pz      :     1.047454  p :     3.175908
      px      :     1.047223
      py      :     1.081231
      dz2     :     0.015998  d :     0.091849
      dxz     :     0.014579
      dyz     :     0.023085
      dx2y2   :     0.018980
      dxy     :     0.019207

  8 C s       :     2.864672  s :     2.864672
      pz      :     1.006872  p :     3.071938
      px      :     1.014267
      py      :     1.050799
      dz2     :     0.014940  d :     0.091558
      dxz     :     0.014416
      dyz     :     0.021812
      dx2y2   :     0.020471
      dxy     :     0.019919

  9 C s       :     2.860569  s :     2.860569
      pz      :     1.004404  p :     3.071675
      px      :     0.999444
      py      :     1.067828
      dz2     :     0.011422  d :     0.091133
      dxz     :     0.011377
      dyz     :     0.022463
      dx2y2   :     0.023999
      dxy     :     0.021873

 10 C s       :     2.859616  s :     2.859616
      pz      :     1.014169  p :     3.068639
      px      :     1.006300
      py      :     1.048169
      dz2     :     0.015488  d :     0.091922
      dxz     :     0.013692
      dyz     :     0.022087
      dx2y2   :     0.020003
      dxy     :     0.020651

 11 C s       :     2.859949  s :     2.859949
      pz      :     1.017311  p :     3.072418
      px      :     1.012527
      py      :     1.042580
      dz2     :     0.015259  d :     0.091204
      dxz     :     0.014403
      dyz     :     0.021362
      dx2y2   :     0.021029
      dxy     :     0.019151

 12 C s       :     2.865606  s :     2.865606
      pz      :     1.005132  p :     3.067898
      px      :     0.998097
      py      :     1.064669
      dz2     :     0.011476  d :     0.091061
      dxz     :     0.011494
      dyz     :     0.022300
      dx2y2   :     0.024324
      dxy     :     0.021467

 13 C s       :     2.915541  s :     2.915541
      pz      :     1.049103  p :     3.153880
      px      :     1.078909
      py      :     1.025868
      dz2     :     0.018764  d :     0.092293
      dxz     :     0.023527
      dyz     :     0.016185
      dx2y2   :     0.017423
      dxy     :     0.016396

 14 C s       :     2.865456  s :     2.865456
      pz      :     1.015034  p :     3.068070
      px      :     1.049140
      py      :     1.003896
      dz2     :     0.014183  d :     0.090428
      dxz     :     0.021276
      dyz     :     0.013460
      dx2y2   :     0.020868
      dxy     :     0.020641

[...]
      dx2y2   :     0.021370
      dxy     :     0.022078

 15 C s       :     2.862929  s :     2.862929
      pz      :     1.007360  p :     3.045054
      px      :     1.037837
      py      :     0.999858
      dz2     :     0.017793  d :     0.090316
      dxz     :     0.021256
      dyz     :     0.014740
      dx2y2   :     0.015762
      dxy     :     0.020766

 16 C s       :     2.862995  s :     2.862995
      pz      :     1.034715  p :     3.108291
      px      :     1.025271
      py      :     1.048305
      dz2     :     0.016906  d :     0.103974
      dxz     :     0.024775
      dyz     :     0.018634
      dx2y2   :     0.024051
      dxy     :     0.019608

 17 C s       :     2.863292  s :     2.863292
      pz      :     0.999533  p :     3.032921
      px      :     1.036044
      py      :     0.997344
      dz2     :     0.012674  d :     0.089977
      dxz     :     0.020361
      dyz     :     0.013599
      dx2y2   :     0.020636
      dxy     :     0.022709

 18 C s       :     2.864790  s :     2.864790
      pz      :     1.016912  p :     3.076011
      px      :     1.041818
      py      :     1.017282
      dz2     :     0.016595  d :     0.091184
      dxz     :     0.022552
      dyz     :     0.014834
      dx2y2   :     0.016372
      dxy     :     0.020830

 19 C s       :     2.841375  s :     2.841375
      pz      :     0.943256  p :     2.782143
      px      :     0.956444
      py      :     0.882443
      dz2     :     0.052723  d :     0.291634
      dxz     :     0.070570
      dyz     :     0.054069
      dx2y2   :     0.057350
      dxy     :     0.056922

 20 O s       :     3.543476  s :     3.543476
      pz      :     1.435761  p :     4.609490
      px      :     1.671214
      py      :     1.502515
      dz2     :     0.007746  d :     0.031457
      dxz     :     0.005336
      dyz     :     0.011611
      dx2y2   :     0.003201
      dxy     :     0.003562

 21 O s       :     3.429460  s :     3.429460
      pz      :     1.649438  p :     4.586335
      px      :     1.333940
      py      :     1.602956
      dz2     :     0.002210  d :     0.026717
      dxz     :     0.008830
      dyz     :     0.004108
      dx2y2   :     0.005739
      dxy     :     0.005830

 22 H s       :     0.905480  s :     0.905480
      pz      :     0.015782  p :     0.066576
      px      :     0.020835
      py      :     0.029959

 23 H s       :     0.905143  s :     0.905143
      pz      :     0.033639  p :     0.066593
      px      :     0.014293
      py      :     0.018662

 24 H s       :     0.901562  s :     0.901562
      pz      :     0.019170  p :     0.069355
      px      :     0.034549
      py      :     0.015637

 25 H s       :     0.907275  s :     0.907275
      pz      :     0.034497  p :     0.067394
      px      :     0.013967
      py      :     0.018930

 26 H s       :     0.904987  s :     0.904987
      pz      :     0.018936  p :     0.066543
      px      :     0.032749
      py      :     0.014858

 27 H s       :     0.900772  s :     0.900772
      pz      :     0.016655  p :     0.069672
      px      :     0.014070
      py      :     0.038948

 28 H s       :     0.905377  s :     0.905377
      pz      :     0.031299  p :     0.066559
      px      :     0.024161
      py      :     0.011100

 29 H s       :     0.905415  s :     0.905415
      pz      :     0.017161  p :     0.066574
      px      :     0.017921
      py      :     0.031492

 30 H s       :     0.904886  s :     0.904886
      pz      :     0.016593  p :     0.066552
      px      :     0.013970
      py      :     0.035989

 31 H s       :     0.907421  s :     0.907421
      pz      :     0.032184  p :     0.067424
      px      :     0.024326
      py      :     0.010915

 32 H s       :     0.905211  s :     0.905211
      pz      :     0.030730  p :     0.067439
      px      :     0.012925
      py      :     0.023784

 33 H s       :     0.897614  s :     0.897614
      pz      :     0.014886  p :     0.069278
      px      :     0.026683
      py      :     0.027708

 34 H s       :     0.894004  s :     0.894004
      pz      :     0.031959  p :     0.069724
      px      :     0.014406
      py      :     0.023359

 35 H s       :     0.897865  s :     0.897865
      pz      :     0.015246  p :     0.070015
      px      :     0.026715
      py      :     0.028054

 36 H s       :     0.731174  s :     0.731174
      pz      :     0.059103  p :     0.173146
      px      :     0.076109
      py      :     0.037933



                      *****************************
                      * MAYER POPULATION ANALYSIS *
                      *****************************

  NA   - Mulliken gross atomic population
  ZA   - Total nuclear charge
  QA   - Mulliken gross atomic charge
  VA   - Mayer's total valence
  BVA  - Mayer's bonded valence
  FA   - Mayer's free valence

  ATOM       NA         ZA         QA         VA         BVA        FA
  0 C      5.9753     6.0000     0.0247     3.8258     3.8258    -0.0000
  1 C      5.9761     6.0000     0.0239     3.8356     3.8356    -0.0000
  2 C      5.9791     6.0000     0.0209     3.8738     3.8738    -0.0000
  3 C      6.1678     6.0000    -0.1678     3.8280     3.8280    -0.0000
  4 C      5.9718     6.0000     0.0282     3.8678     3.8678    -0.0000
  5 C      5.9787     6.0000     0.0213     3.8519     3.8519    -0.0000
  6 P     14.6320    15.0000     0.3680     2.9369     2.9369    -0.0000
  7 C      6.1700     6.0000    -0.1700     3.8167     3.8167    -0.0000
  8 C      5.9795     6.0000     0.0205     3.8784     3.8784    -0.0000
  9 C      5.9737     6.0000     0.0263     3.8338     3.8338    -0.0000
 10 C      5.9751     6.0000     0.0249     3.8254     3.8254    -0.0000
 11 C      5.9786     6.0000     0.0214     3.8527     3.8527    -0.0000
 12 C      5.9764     6.0000     0.0236     3.8698     3.8698    -0.0000
 13 C      6.1498     6.0000    -0.1498     3.7888     3.7888    -0.0000
 14 C      5.9697     6.0000     0.0303     3.8441     3.8441    -0.0000
 15 C      5.9768     6.0000     0.0232     3.8398     3.8398    -0.0000
 16 C      6.0386     6.0000    -0.0386     3.6919     3.6919    -0.0000
 17 C      5.9811     6.0000     0.0189     3.8528     3.8528    -0.0000
 18 C      5.9777     6.0000     0.0223     3.8389     3.8389    -0.0000
 19 C      5.8339     6.0000     0.1661     4.3254     4.3254    -0.0000
 20 O      8.2098     8.0000    -0.2098     2.3002     2.3002    -0.0000
 21 O      8.1765     8.0000    -0.1765     2.2682     2.2682    -0.0000
 22 H      1.0132     1.0000    -0.0132     0.9777     0.9777    -0.0000
 23 H      1.0151     1.0000    -0.0151     0.9778     0.9778    -0.0000
 24 H      1.0013     1.0000    -0.0013     0.9903     0.9903     0.0000
 25 H      1.0146     1.0000    -0.0146     0.9901     0.9901    -0.0000
 26 H      1.0134     1.0000    -0.0134     0.9779     0.9779    -0.0000
 27 H      1.0027     1.0000    -0.0027     0.9927     0.9927    -0.0000
 28 H      1.0157     1.0000    -0.0157     0.9777     0.9777     0.0000
 29 H      1.0130     1.0000    -0.0130     0.9777     0.9777    -0.0000
 30 H      1.0132     1.0000    -0.0132     0.9779     0.9779    -0.0000
 31 H      1.0143     1.0000    -0.0143     0.9900     0.9900    -0.0000
 32 H      1.0126     1.0000    -0.0126     0.9909     0.9909    -0.0000
 33 H      1.0055     1.0000    -0.0055     1.0027     1.0027    -0.0000
 34 H      1.0021     1.0000    -0.0021     1.0057     1.0057     0.0000
 35 H      0.9953     1.0000     0.0047     0.9918     0.9918    -0.0000
 36 H      0.8199     1.0000     0.1801     1.0346     1.0346    -0.0000

  Mayer bond orders larger than 0.100000
B(  0-C ,  1-C ) :   1.3801 B(  0-C ,  5-C ) :   1.3780 B(  0-C , 22-H ) :   0.9847 
B(  1-C ,  2-C ) :   1.3866 B(  1-C , 23-H ) :   0.9843 B(  2-C ,  3-C ) :   1.3793 
B(  2-C , 24-H ) :   0.9791 B(  3-C ,  4-C ) :   1.3733 B(  3-C ,  6-P ) :   0.9390 
B(  4-C ,  5-C ) :   1.4018 B(  4-C , 25-H ) :   0.9821 B(  5-C , 26-H ) :   0.9850 
B(  6-P ,  7-C ) :   0.9329 B(  6-P , 13-C ) :   0.9255 B(  7-C ,  8-C ) :   1.3826 
B(  7-C , 12-C ) :   1.3706 B(  8-C ,  9-C ) :   1.3870 B(  8-C , 27-H ) :   0.9798 
B(  9-C , 10-C ) :   1.3800 B(  9-C , 28-H ) :   0.9838 B( 10-C , 11-C ) :   1.3780 
B( 10-C , 29-H ) :   0.9846 B( 11-C , 12-C ) :   1.4023 B( 11-C , 30-H ) :   0.9852 
B( 12-C , 31-H ) :   0.9821 B( 13-C , 14-C ) :   1.3507 B( 13-C , 18-C ) :   1.3733 
B( 14-C , 15-C ) :   1.3958 B( 14-C , 32-H ) :   0.9823 B( 15-C , 16-C ) :   1.3421 
B( 15-C , 33-H ) :   0.9874 B( 16-C , 17-C ) :   1.3811 B( 16-C , 19-C ) :   0.9353 
B( 17-C , 18-C ) :   1.3590 B( 17-C , 34-H ) :   0.9883 B( 18-C , 35-H ) :   0.9827 
B( 19-C , 20-O ) :   2.1154 B( 19-C , 21-O ) :   1.2555 B( 21-O , 36-H ) :   0.9447 


-------
TIMINGS
-------

Total SCF time: 0 days 0 hours 0 min 21 sec 

Total time                  ....      21.264 sec
Sum of individual times     ....      21.177 sec  ( 99.6%)

SCF preparation             ....       0.120 sec  (  0.6%)
Fock matrix formation       ....      20.561 sec  ( 96.7%)
  Startup                   ....       0.026 sec  (  0.1% of F)
  Exchange formation        ....      16.070 sec  ( 78.2% of F)
  Split-RI-J                ....       1.648 sec  (  8.0% of F)
  XC integration            ....       2.730 sec  ( 13.3% of F)
    Basis function eval.    ....       0.838 sec  ( 30.7% of XC)
    Density eval.           ....       0.822 sec  ( 30.1% of XC)
    XC-Functional eval.     ....       0.064 sec  (  2.3% of XC)
    XC-Potential eval.      ....       0.597 sec  ( 21.9% of XC)
Diagonalization             ....       0.000 sec  (  0.0%)
Density matrix formation    ....       0.058 sec  (  0.3%)
Total Energy calculation    ....       0.021 sec  (  0.1%)
Population analysis         ....       0.092 sec  (  0.4%)
Orbital Transformation      ....       0.043 sec  (  0.2%)
Orbital Orthonormalization  ....       0.000 sec  (  0.0%)
DIIS solution               ....       0.057 sec  (  0.3%)
SOSCF solution              ....       0.225 sec  (  1.1%)
Finished LeanSCF after  21.3 sec

Maximum memory used throughout the entire LEANSCF-calculation: 40.0 MB


-------------------------------------------------------------------------------
                          DFT DISPERSION CORRECTION                            
                                                                               
                              DFTD3 V3.1  Rev 1                                
                          USING Becke-Johnson damping                          
-------------------------------------------------------------------------------
The B3LYP functional is recognized
Active option DFTDOPT                   ...         4   

molecular C6(AA) [au] = 19710.940570 


            DFT-D V3
 parameters
 s6 scaling factor         :     1.0000 
 a1 scaling factor         :     0.3981 
 s8 scaling factor         :     1.9889 
 a2 scaling factor         :     4.4211 
 ad hoc parameters k1-k3   :    16.0000     1.3333    -4.0000 

 Edisp/kcal,au: -58.560624398201  -0.093322285275 
 E6   /kcal   : -26.533742385 
 E8   /kcal   : -32.026882013 
 % E8         :  54.690130684 

-------------------------   ----------------
Dispersion correction           -0.093322285
-------------------------   ----------------


-------------------------   --------------------
FINAL SINGLE POINT ENERGY     -1223.653704351834
-------------------------   --------------------

                                *** OPTIMIZATION RUN DONE ***



           ************************************************************
           *        Program running with 6 parallel MPI-processes     *
           *              working on a common directory               *
           ************************************************************

------------------------------------------------------------------------------
                              ORCA PROPERTY CALCULATIONS
------------------------------------------------------------------------------

GBWName                                 ... data/geom_opt/627824/627824.gbw
Number of atoms                         ...     37
Number of basis functions               ...    387
Max core memory                         ...   1024 MB

Electric properties:
Dipole moment                           ... YES
Quadrupole moment                       ...  NO
Static polarizability (Dipole/Dipole)   ...  NO
Static polarizability (Dipole/Quad.)    ...  NO
Static polarizability (Quad./Quad.)     ...  NO
Static polarizability (Velocity)        ...  NO

Atomic electric properties:
Dipole moment                           ...  NO
Quadrupole moment                       ...  NO
Static polarizability                   ...  NO

Choice of electric origin               ... Center of mass
Position of electric origin             ...     0.630470    -0.007183    -0.145395

General magnetic properties:
Magnetizability                         ...  NO

EPR properties:
g-Tensor (aka g-matrix)                 ...  NO
Zero-Field splitting spin-orbit         ...  NO
Zero-field splitting spin-spin          ...  NO
Hyperfine couplings                     ...  NO (   0 nuclei)
Quadrupole couplings                    ...  NO (   0 nuclei)
Contact density                         ...  NO (   0 nuclei)

NMR properties:
Chemical shifts                         ...  NO (   0 nuclei)
Spin-rotation constants                 ...  NO (   0 nuclei)
Spin-spin couplings                     ...  NO (   0 nuclei,    0 pairs)

Choice of magnetic origin               ... GIAO
Position of magnetic origin             ...     0.000000     0.000000     0.000000

Properties with geometric perturbations:
SCF Hessian                             ...  NO
IR spectrum                             ...  NO
VCD spectrum                            ...  NO
X-ray spectroscopy properties:
SCF XES/XAS/RIXS spectra                ...  NO


-------------
DIPOLE MOMENT
-------------

Method             : SCF
Type of density    : Electron Density
Multiplicity       :   1
Irrep              :   0
Energy             : -1223.5603820665585317 Eh
Relativity type    : 
Basis              : AO
                                X                 Y                 Z
Electronic contribution:      8.987280113      -0.262324236      -3.004321061
Nuclear contribution   :     -9.532607309      -0.099216029       2.971691256
                        -----------------------------------------
Total Dipole Moment    :     -0.545327197      -0.361540265      -0.032629805
                        -----------------------------------------
Magnitude (a.u.)       :      0.655101380
Magnitude (Debye)      :      1.665135378



--------------------
Rotational spectrum 
--------------------
 
Rotational constants in cm-1:             0.011225             0.005843             0.004389 
Rotational constants in MHz :           336.523606           175.167401           131.567283 

Dipole components along the rotational axes: 
x,y,z [a.u.] :    -0.507610     0.403646     0.092523 
x,y,z [Debye]:    -1.290241     1.025985     0.235176 

 

Dipole moment calculation done in   0.0 sec 

Maximum memory used throughout the entire PROP-calculation: 20.5 MB

--------------------------------
SUGGESTED CITATIONS FOR THIS RUN
--------------------------------

Below you find a list of papers that are relevant to this ORCA run
We neither can nor want to force you to cite these papers, but we appreciate if you do
You receive ORCA, which is the product of decades of hard work by many enthusiastic individuals, for free
The only thing we kindly ask in return is that you cite our papers,
We deeply appreciate it, if you show your appreciation for ORCA by not just citing the generic ORCA reference.

Please note that relegating all ORCA citations to the supporting information does *not* help us.
SI sections are not indexed - citations you put there will not count into any citation statistics
But we need these citations in order to attract the funding resources that allow us to do what we are doing

Therefore, if you are a happy ORCA user, please consider citing a few of the papers listed below in the main body of your paper

In addition to the list printed below, the program has created the file data/geom_opt/627824/627824.bibtex that contains the list in bibtex format
You can import this file easily into all common literature databanks and citation aid programs


List of essential papers. We consider these as the minimum necessary citations

  1. Neese,F.
     Software update: the ORCA program system, version 5.0
     WIRES Comput. Molec. Sci., 2022 12(1)e1606
     doi.org/10.1002/wcms.1606

List of papers to cite with high priority. The work reported in these papers was absolutely
necessary for this run to complete.
Our perspective: the developers of density functionals and basis sets usually get cited in chemistry papers
Good! But without the algorithms to do something with them, the functionals or basis sets would not do anything.
Hence, in our opinion, the algorithm design and method developments papers are equally worthy of getting cited

  1. Neese,F.
     An improvement of the resolution of the identity approximation for the formation of the Coulomb matrix
     J. Comp. Chem., 2003 24(14)1740-1747
     doi.org/10.1002/jcc.10318
  2. Neese,F.
     The SHARK Integral Generation and Digestion System
     J. Comp. Chem., 2022  1-16
     doi.org/10.1002/jcc.26942
  3. Grimme,S.; Antony,J.; Ehrlich,S.; Krieg,H.
     A consistent and accurate ab initio parametrization of density functional dispersion correction (DFT-D) for the 94 elements H-Pu
     J. Chem. Phys., 2010 132 154104-XXXX
     doi.org/10.1063/1.3382344
  4. Grimme,S.; Ehrlich,S.; Goerigk,L.
     Effect of the damping function in dispersion corrected density functional theory
     J. Comput. Chem., 2011 32(7)1456-1465
     doi.org/10.1002/jcc.21759

List of suggested additional citations. These are papers that are important in the 'surrounding' of 
of this run, or papers that preceded the highly important papers. If you like your results we are grateful for a citation.

  1. Neese,F.
     The ORCA program system
     WIRES Comput. Molec. Sci., 2012 2(1)73-78
     doi.org/10.1002/wcms.81
  2. Neese,F.
     Software update: the ORCA program system, version 4.0
     WIRES Comput. Molec. Sci., 2018 8(1)1-6
     doi.org/10.1002/wcms.1327
  3. Neese,F.; Wennmohs,F.; Becker,U.; Riplinger,C.
     The ORCA quantum chemistry program package
     J. Chem. Phys., 2020 152 Art. No. L224108
     doi.org/10.1063/5.0004608

List of optional additional citations

  1. Neese,F.
     Approximate second-order SCF convergence for spin unrestricted wavefunctions
     Chem. Phys. Lett., 2000 325(1-3)93-98
     doi.org/10.1016/s0009-2614(00)00662-x

Timings for individual modules:

Sum of individual times          ...      477.595 sec (=   7.960 min)
Startup calculation              ...       12.874 sec (=   0.215 min)   2.7 %
SCF iterations                   ...      320.246 sec (=   5.337 min)  67.1 %
Property calculations            ...        0.174 sec (=   0.003 min)   0.0 %
SCF Gradient evaluation          ...      144.156 sec (=   2.403 min)  30.2 %
Geometry relaxation              ...        0.145 sec (=   0.002 min)   0.0 %
                             ****ORCA TERMINATED NORMALLY****
TOTAL RUN TIME: 0 days 0 hours 7 minutes 59 seconds 239 msec
