
                                 *****************
                                 * O   R   C   A *
                                 *****************

                                            #,                                       
                                            ###                                      
                                            ####                                     
                                            #####                                    
                                            ######                                   
                                           ########,                                 
                                     ,,################,,,,,                         
                               ,,#################################,,                 
                          ,,##########################################,,             
                       ,#########################################, ''#####,          
                    ,#############################################,,   '####,        
                  ,##################################################,,,,####,       
                ,###########''''           ''''###############################       
              ,#####''   ,,,,##########,,,,          '''####'''          '####       
            ,##' ,,,,###########################,,,                        '##       
           ' ,,###''''                  '''############,,,                           
         ,,##''                                '''############,,,,        ,,,,,,###''
      ,#''                                            '''#######################'''  
     '                                                          ''''####''''         
             ,#######,   #######,   ,#######,      ##                                
            ,#'     '#,  ##    ##  ,#'     '#,    #''#        ,####,   ,####,        
            ##       ##  ##   ,#'  ##            #'  '#       #'       #'  '#        
            ##       ##  #######   ##           ,######,      #####,   #    #        
            '#,     ,#'  ##    ##  '#,     ,#' ,#      #,     #,   #   #,  ,#        
             '#######'   ##     ##  '#######'  #'      '#     '####' # '####'        



                #########################################################
                #                        -***-                          #
                #          Department of theory and spectroscopy        #
                #                                                       #
                #                      Frank Neese                      #
                #                                                       #
                #     Directorship, Architecture, Infrastructure        #
                #                    SHARK, DRIVERS                     #
                #        Core code/Algorithms in most modules           #
                #                                                       #
                #        Max Planck Institute fuer Kohlenforschung      #
                #                Kaiser Wilhelm Platz 1                 #
                #                 D-45470 Muelheim/Ruhr                 #
                #                      Germany                          #
                #                                                       #
                #                  All rights reserved                  #
                #                        -***-                          #
                #########################################################


                         Program Version 6.0.0  -   RELEASE   -


 With contributions from (in alphabetic order):
   Daniel Aravena         : Magnetic Suceptibility
   Michael Atanasov       : Ab Initio Ligand Field Theory (pilot matlab implementation)
   Alexander A. Auer      : GIAO ZORA, VPT2 properties, NMR spectrum
   Ute Becker             : All parallelization in ORCA, NUMFREQ, NUMCALC
   Giovanni Bistoni       : ED, misc. LED, open-shell LED, HFLD
   Martin Brehm           : Molecular dynamics
   Dmytro Bykov           : pre 5.0 version of the SCF Hessian
   Marcos Casanova-Páez   : Triplet and SCS-CIS(D). UHF-(DLPNO)-IP/EA/STEOM-CCSD. UHF-CVS-IP/STEOM-CCSD
   Vijay G. Chilkuri      : MRCI spin determinant printing, contributions to CSF-ICE
   Pauline Colinet        : FMM embedding
   Dipayan Datta          : RHF DLPNO-CCSD density
   Achintya Kumar Dutta   : EOM-CC, STEOM-CC
   Nicolas Foglia         : Exact transition moments, OPA infrastructure, MCD improvements
   Dmitry Ganyushin       : Spin-Orbit,Spin-Spin,Magnetic field MRCI
   Miquel Garcia          : C-PCM and meta-GGA Hessian, CCSD/C-PCM, Gaussian charge scheme
   Tiago L. C. Gouveia    : GS-ROHF, GS-ROCIS
   Yang Guo               : DLPNO-NEVPT2, F12-NEVPT2, CIM, IAO-localization
   Andreas Hansen         : Spin unrestricted coupled pair/coupled cluster methods
   Ingolf Harden          : AUTO-CI MPn and infrastructure 
   Benjamin Helmich-Paris : MC-RPA, TRAH-(SCF,CASSCF), AVAS, COSX integrals, SCF dyn. polar.
   Lee Huntington         : MR-EOM, pCC
   Robert Izsak           : Overlap fitted RIJCOSX, COSX-SCS-MP3, EOM
   Riya Kayal             : Wick's Theorem for AUTO-CI, AUTO-CI UHF-CCSDT
   Emily Kempfer          : AUTO-CI, RHF CISDT and CCSDT
   Christian Kollmar      : KDIIS, OOCD, Brueckner-CCSD(T), CCSD density, CASPT2, CASPT2-K, improved NEVPT2
   Axel Koslowski         : Symmetry handling
   Simone Kossmann        : Meta GGA functionals, TD-DFT gradient, OOMP2, (MP2 Hessian; deprecated post 5.0)
   Lucas Lang             : DCDCAS
   Marvin Lechner         : AUTO-CI (C++ implementation), FIC-MRCC
   Spencer Leger          : CASSCF response
   Dagmar Lenk            : GEPOL surface, SMD, ORCA-2-JSON
   Dimitrios Liakos       : Extrapolation schemes; Compound Job, initial MDCI parallelization
   Dimitrios Manganas     : Further ROCIS development; embedding schemes. LFT, Crystal Embedding
   Dimitrios Pantazis     : SARC Basis sets
   Anastasios Papadopoulos: AUTO-CI, single reference methods and gradients
   Taras Petrenko         : pre 6.0 DFT Hessian and TD-DFT gradient, (ASA, deprecated), ECA, 1-Electron XAS/XES, NRVS
   Peter Pinski           : DLPNO-MP2, DLPNO-MP2 Gradient
   Christoph Reimann      : Effective Core Potentials
   Marius Retegan         : Local ZFS, SOC
   Christoph Riplinger    : Optimizer, TS searches, QM/MM, DLPNO-CCSD(T), (RO)-DLPNO pert. Triples
   Michael Roemelt        : Original ROCIS implementation
   Masaaki Saitow         : Open-shell DLPNO-CCSD energy and density
   Barbara Sandhoefer     : DKH picture change effects
   Kantharuban Sivalingam : CASSCF convergence/infrastructure, NEVPT2 and variants, FIC-MRCI
   Bernardo de Souza      : ESD, SOC TD-DFT
   Georgi Stoychev        : AutoAux, RI-MP2 NMR, DLPNO-MP2 response, X2C
   Van Anh Tran           : RI-MP2 g-tensors
   Willem Van den Heuvel  : Paramagnetic NMR
   Zikuan Wang            : NOTCH, Electric field optimization 
   Frank Wennmohs         : Technical directorship and infrastructure
   Hang Xu                : AUTO-CI-Response properties 


 We gratefully acknowledge several colleagues who have allowed us to
 interface, adapt or use parts of their codes:
   Stefan Grimme, W. Hujo, H. Kruse, P. Pracht,  : VdW corrections, initial TS optimization,
                  C. Bannwarth, S. Ehlert,         DFT functionals, gCP, sTDA/sTD-DF
                  L. Wittmann, M. Mueller
   Ed Valeev, F. Pavosevic, A. Kumar             : LibInt (2-el integral package), F12 methods
   Garnet Chan, S. Sharma, J. Yang, R. Olivares  : DMRG
   Ulf Ekstrom                                   : XCFun DFT Library
   Mihaly Kallay                                 : mrcc  (arbitrary order and MRCC methods)
   Frank Weinhold                                : gennbo (NPA and NBO analysis)
   Simon Mueller                                 : openCOSMO-RS
   Christopher J. Cramer and Donald G. Truhlar   : smd solvation model
   Lars Goerigk                                  : TD-DFT with DH, B97 family of functionals
   V. Asgeirsson, H. Jonsson                     : NEB implementation
   FAccTs GmbH                                   : IRC, NEB, NEB-TS, DLPNO-Multilevel, CI-OPT
                                                   MM, QMMM, 2- and 3-layer-ONIOM, Crystal-QMMM,
                                                   LR-CPCM, SF, NACMEs, symmetry and pop. for TD-DFT,
                                                   nearIR, NL-DFT gradient (VV10), updates on ESD,
                                                   ML-optimized integration grids, MBIS, APM,
                                                   GOAT, DOCKER, SOLVATOR, interface openCOSMO-RS
   S Lehtola, MJT Oliveira, MAL Marques          : LibXC Library
   Liviu Ungur et al                             : ANISO software


 Your calculation uses the libint2 library for the computation of 2-el integrals
 For citations please refer to: http://libint.valeyev.net

 Your ORCA version has been built with support for libXC version: 6.2.2
 For citations please refer to: https://libxc.gitlab.io

 This ORCA versions uses:
   CBLAS   interface :  Fast vector & matrix operations
   LAPACKE interface :  Fast linear algebra routines
   Shared memory     :  Shared parallel matrices


Your calculation utilizes the atom-pairwise dispersion correction
with the Becke-Johnson damping scheme (D3BJ)


Warning: RI is on but no J-basis has been assigned. Assigning Def2/J (nothing to worry about!)
================================================================================

----- Orbital basis set information -----
Your calculation utilizes the basis: def2-SVP
   F. Weigend and R. Ahlrichs, Phys. Chem. Chem. Phys. 7, 3297 (2005).

----- AuxJ basis set information -----
Your calculation utilizes the auxiliary basis: def2/J
   F. Weigend, Phys. Chem. Chem. Phys. 8, 1057 (2006).

================================================================================
                                        WARNINGS
                       Please study these warnings very carefully!
================================================================================


WARNING: Geometry Optimization
  ===> : Switching off AutoStart
         For restart on a previous wavefunction, please use MOREAD

================================================================================
                                       INPUT FILE
================================================================================
NAME = data/geom_opt_PO_BP86/292611/292611.inp
|  1> ! RI BP86 def2-SVP D3BJ TIGHTSCF Opt
|  2> %pal
|  3> nprocs 6
|  4> end
|  5> 
|  6> * xyz 0 1
|  7> C      3.732652   -1.706081   -1.128638
|  8> C      2.690824   -1.166598   -0.164026
|  9> C      1.274678   -1.390347   -0.680281
| 10> P     -0.004640   -0.786663    0.455502
| 11> O      0.072299   -1.544108    1.758623
| 12> C     -1.535633   -1.220539   -0.415651
| 13> C     -2.794035   -0.835176    0.352445
| 14> C     -4.053908   -1.235594   -0.395424
| 15> C      0.113264    0.976818    0.576023
| 16> C      0.055844    1.795961   -0.559341
| 17> C      0.151074    3.183447   -0.438342
| 18> C      0.304588    3.765723    0.818267
| 19> C      0.363036    2.962148    1.954566
| 20> C      0.267825    1.575741    1.833077
| 21> H      3.659083   -1.211210   -2.102299
| 22> H      4.739233   -1.533469   -0.735115
| 23> H      3.607160   -2.782962   -1.279876
| 24> H      2.807125   -1.652889    0.810940
| 25> H      2.861841   -0.096487   -0.004113
| 26> H      1.145569   -0.900346   -1.651579
| 27> H      1.103584   -2.461739   -0.835886
| 28> H     -1.525587   -2.302878   -0.588304
| 29> H     -1.531890   -0.738573   -1.399462
| 30> H     -2.784156   -1.315023    1.337438
| 31> H     -2.803360    0.245834    0.529325
| 32> H     -4.104192   -0.742147   -1.371287
| 33> H     -4.941804   -0.948502    0.176484
| 34> H     -4.088177   -2.317991   -0.555234
| 35> H     -0.063576    1.360483   -1.548051
| 36> H      0.105637    3.812058   -1.324168
| 37> H      0.378771    4.846013    0.912890
| 38> H      0.482736    3.413117    2.936387
| 39> H      0.314135    0.951979    2.725109
| 40> **                         ****END OF INPUT****
================================================================================

                       *****************************
                       * Geometry Optimization Run *
                       *****************************

Geometry optimization settings:
Update method            Update   .... BFGS
Choice of coordinates    CoordSys .... (2022) Redundant Internals
Initial Hessian          InHess   .... Almloef's Model
Max. no of cycles        MaxIter  .... 99

Convergence Tolerances:
Energy Change            TolE     ....  5.0000e-06 Eh
Max. Gradient            TolMAXG  ....  3.0000e-04 Eh/bohr
RMS Gradient             TolRMSG  ....  1.0000e-04 Eh/bohr
Max. Displacement        TolMAXD  ....  4.0000e-03 bohr
RMS Displacement         TolRMSD  ....  2.0000e-03 bohr
Strict Convergence                .... False

------------------------------------------------------------------------------
                        ORCA OPTIMIZATION COORDINATE SETUP
------------------------------------------------------------------------------

The optimization will be done in redundant internal coordinates (2022)
Making redundant internal coordinates   ...  (2022 redundants) done
Evaluating the initial hessian          ...  (Almloef) done
Evaluating the coordinates              ...  done
Calculating the B-matrix                .... done
Calculating the G-matrix                .... done
Diagonalizing the G-matrix              .... done
Small eigenvalue found = 6.209e-03
Small eigenvalue found = 6.854e-03
Small eigenvalue found = 1.475e-02
Small eigenvalue found = 2.502e-02
The first mode is                       ....   65
The number of degrees of freedom        ....   93

    -----------------------------------------------------------------
                    Redundant Internal Coordinates


    -----------------------------------------------------------------
         Definition                    Initial Value    Approx d2E/dq
    -----------------------------------------------------------------
      1. B(C   1,C   0)                  1.5189         0.389186   
      2. B(C   2,C   1)                  1.5238         0.382142   
      3. B(P   3,C   2)                  1.8141         0.442129   
      4. B(O   4,P   3)                  1.5092         1.213808   
      5. B(C   5,P   3)                  1.8141         0.442128   
      6. B(C   6,C   5)                  1.5238         0.382142   
      7. B(C   7,C   6)                  1.5189         0.389186   
      8. B(C   8,P   3)                  1.7715         0.517056   
      9. B(C   9,C   8)                  1.4012         0.599625   
     10. B(C  10,C   9)                  1.3960         0.611167   
     11. B(C  11,C  10)                  1.3934         0.616948   
     12. B(C  12,C  11)                  1.3930         0.618050   
     13. B(C  13,C  12)                  1.3950         0.613486   
     14. B(C  13,C   8)                  1.4010         0.600066   
     15. B(H  14,C   0)                  1.0947         0.353961   
     16. B(H  15,C   0)                  1.0945         0.354237   
     17. B(H  16,C   0)                  1.0947         0.353980   
     18. B(H  17,C   1)                  1.0957         0.352635   
     19. B(H  18,C   1)                  1.0954         0.352994   
     20. B(H  19,C   2)                  1.0955         0.352856   
     21. B(H  20,C   2)                  1.0961         0.352161   
     22. B(H  21,C   5)                  1.0961         0.352160   
     23. B(H  22,C   5)                  1.0955         0.352856   
     24. B(H  23,C   6)                  1.0957         0.352636   
     25. B(H  24,C   6)                  1.0954         0.352994   
     26. B(H  25,C   7)                  1.0947         0.353960   
     27. B(H  26,C   7)                  1.0945         0.354238   
     28. B(H  27,C   7)                  1.0947         0.353978   
     29. B(H  28,C   9)                  1.0869         0.364164   
     30. B(H  29,C  10)                  1.0872         0.363885   
     31. B(H  30,C  11)                  1.0870         0.364143   
     32. B(H  31,C  12)                  1.0870         0.364026   
     33. B(H  32,C  13)                  1.0895         0.360802   
     34. A(H  14,C   0,H  16)          108.3086         0.289277   
     35. A(C   1,C   0,H  14)          110.9904         0.325587   
     36. A(H  14,C   0,H  15)          108.0784         0.289310   
     37. A(C   1,C   0,H  16)          111.0099         0.325590   
     38. A(C   1,C   0,H  15)          110.2721         0.325629   
     39. A(H  15,C   0,H  16)          108.0749         0.289312   
     40. A(C   0,C   1,H  18)          109.4271         0.325440   
     41. A(C   0,C   1,H  17)          109.5521         0.325386   
     42. A(C   0,C   1,C   2)          111.7244         0.367330   
     43. A(H  17,C   1,H  18)          106.6840         0.288981   
     44. A(C   2,C   1,H  18)          109.7541         0.324465   
     45. A(C   2,C   1,H  17)          109.5684         0.324411   
     46. A(C   1,C   2,H  20)          109.6754         0.324339   
     47. A(H  19,C   2,H  20)          107.0340         0.288902   
     48. A(P   3,C   2,H  20)          107.7026         0.352901   
     49. A(C   1,C   2,H  19)          110.1340         0.324444   
     50. A(C   1,C   2,P   3)          113.2281         0.399822   
     51. A(P   3,C   2,H  19)          108.8524         0.353019   
     52. A(C   2,P   3,O   4)          109.7317         0.524093   
     53. A(O   4,P   3,C   5)          109.7317         0.524092   
     54. A(C   2,P   3,C   5)          102.4098         0.437546   
     55. A(C   5,P   3,C   8)          109.0816         0.450117   
     56. A(O   4,P   3,C   8)          115.9421         0.539786   
     57. A(C   2,P   3,C   8)          109.0816         0.450117   
     58. A(H  21,C   5,H  22)          107.0340         0.288902   
     59. A(P   3,C   5,C   6)          113.2282         0.399822   
     60. A(C   6,C   5,H  22)          110.1341         0.324444   
     61. A(P   3,C   5,H  22)          108.8524         0.353019   
     62. A(C   6,C   5,H  21)          109.6754         0.324339   
     63. A(P   3,C   5,H  21)          107.7025         0.352901   
     64. A(C   5,C   6,C   7)          111.7244         0.367330   
     65. A(H  23,C   6,H  24)          106.6840         0.288981   
     66. A(C   5,C   6,H  24)          109.7541         0.324465   
     67. A(C   7,C   6,H  23)          109.5521         0.325386   
     68. A(C   5,C   6,H  23)          109.5684         0.324411   
     69. A(C   7,C   6,H  24)          109.4271         0.325441   
     70. A(H  25,C   7,H  26)          108.0785         0.289310   
     71. A(H  26,C   7,H  27)          108.0750         0.289312   
     72. A(H  25,C   7,H  27)          108.3085         0.289277   
     73. A(C   6,C   7,H  27)          111.0098         0.325590   
     74. A(C   6,C   7,H  26)          110.2722         0.325629   
     75. A(C   6,C   7,H  25)          110.9904         0.325587   
     76. A(P   3,C   8,C  13)          119.6001         0.445662   
     77. A(P   3,C   8,C   9)          121.6075         0.445603   
     78. A(C   9,C   8,C  13)          118.7924         0.428942   
     79. A(C  10,C   9,H  28)          118.9821         0.352722   
     80. A(C   8,C   9,H  28)          120.4866         0.351587   
     81. A(C   8,C   9,C  10)          120.5313         0.430356   
     82. A(C  11,C  10,H  29)          119.8536         0.353239   
     83. A(C   9,C  10,C  11)          120.0661         0.432563   
     84. A(C   9,C  10,H  29)          120.0803         0.352676   
     85. A(C  10,C  11,C  12)          119.9473         0.433435   
     86. A(C  12,C  11,H  30)          119.9648         0.353388   
     87. A(C  10,C  11,H  30)          120.0879         0.353281   
     88. A(C  13,C  12,H  31)          119.8998         0.352926   
     89. A(C  11,C  12,H  31)          120.1376         0.353369   
     90. A(C  11,C  12,C  13)          119.9626         0.432997   
     91. A(C  12,C  13,H  32)          119.6574         0.352395   
     92. A(C   8,C  13,H  32)          119.6424         0.351080   
     93. A(C   8,C  13,C  12)          120.7002         0.430705   
     94. D(H  17,C   1,C   0,H  16)     61.3711         0.012044   
     95. D(C   2,C   1,C   0,H  14)     60.2790         0.012044   
     96. D(C   2,C   1,C   0,H  15)   -179.9830         0.012044   
     97. D(H  17,C   1,C   0,H  14)   -178.1130         0.012044   
     98. D(C   2,C   1,C   0,H  16)    -60.2368         0.012044   
     99. D(H  17,C   1,C   0,H  15)    -58.3750         0.012044   
    100. D(H  19,C   2,C   1,H  17)    179.5209         0.011632   
    101. D(H  19,C   2,C   1,H  18)     62.6876         0.011632   
    102. D(P   3,C   2,C   1,H  17)     57.3891         0.011632   
    103. D(P   3,C   2,C   1,C   0)    178.9877         0.011632   
    104. D(P   3,C   2,C   1,H  18)    -59.4442         0.011632   
    105. D(H  19,C   2,C   1,C   0)    -58.8805         0.011632   
    106. D(O   4,P   3,C   2,H  20)     58.9358         0.004373   
    107. D(O   4,P   3,C   2,H  19)    174.6523         0.004373   
    108. D(C   5,P   3,C   2,H  20)    -57.5631         0.004373   
    109. D(C   5,P   3,C   2,H  19)     58.1534         0.004373   
    110. D(C   5,P   3,C   2,C   1)   -179.0023         0.004373   
    111. D(O   4,P   3,C   2,C   1)    -62.5034         0.004373   
    112. D(H  21,C   5,P   3,C   8)    173.0512         0.004373   
    113. D(H  21,C   5,P   3,O   4)    -58.9353         0.004373   
    114. D(H  21,C   5,P   3,C   2)     57.5636         0.004373   
    115. D(C   6,C   5,P   3,C   8)    -65.5097         0.004373   
    116. D(C   6,C   5,P   3,O   4)     62.5038         0.004373   
    117. D(C   6,C   5,P   3,C   2)    179.0027         0.004373   
    118. D(H  23,C   6,C   5,H  22)   -179.5205         0.011632   
    119. D(H  23,C   6,C   5,H  21)     62.9345         0.011632   
    120. D(H  23,C   6,C   5,P   3)    -57.3886         0.011632   
    121. D(C   7,C   6,C   5,H  22)     58.8809         0.011632   
    122. D(C   7,C   6,C   5,H  21)    -58.6640         0.011632   
    123. D(C   7,C   6,C   5,P   3)   -178.9872         0.011632   
    124. D(H  25,C   7,C   6,C   5)    -60.2787         0.012044   
    125. D(H  26,C   7,C   6,H  24)    -58.2599         0.012044   
    126. D(H  26,C   7,C   6,H  23)     58.3752         0.012044   
    127. D(H  26,C   7,C   6,C   5)    179.9832         0.012044   
    128. D(H  25,C   7,C   6,H  24)     61.4782         0.012044   
    129. D(H  25,C   7,C   6,H  23)    178.1134         0.012044   
    130. D(C  13,C   8,P   3,O   4)      0.0002         0.005183   
    131. D(C  13,C   8,P   3,C   2)   -124.4412         0.005183   
    132. D(C   9,C   8,P   3,C   5)    -55.5585         0.005183   
    133. D(C   9,C   8,P   3,O   4)   -179.9997         0.005183   
    134. D(C   9,C   8,P   3,C   2)     55.5589         0.005183   
    135. D(H  28,C   9,C   8,C  13)   -179.9998         0.024785   
    136. D(H  28,C   9,C   8,P   3)      0.0001         0.024785   
    137. D(C  10,C   9,C   8,C  13)      0.0001         0.024785   
    138. D(C  10,C   9,C   8,P   3)    180.0000         0.024785   
    139. D(H  29,C  10,C   9,H  28)      0.0000         0.025803   
    140. D(H  29,C  10,C   9,C   8)   -179.9998         0.025803   
    141. D(C  11,C  10,C   9,H  28)    179.9998         0.025803   
    142. D(C  11,C  10,C   9,C   8)     -0.0000         0.025803   
    143. D(H  30,C  11,C  10,H  29)     -0.0001         0.026323   
    144. D(H  30,C  11,C  10,C   9)   -179.9999         0.026323   
    145. D(C  12,C  11,C  10,H  29)    179.9998         0.026323   
    146. D(C  12,C  11,C  10,C   9)      0.0000         0.026323   
    147. D(H  31,C  12,C  11,H  30)      0.0002         0.026422   
    148. D(H  31,C  12,C  11,C  10)   -179.9998         0.026422   
    149. D(C  13,C  12,C  11,H  30)    179.9999         0.026422   
    150. D(C  13,C  12,C  11,C  10)     -0.0000         0.026422   
    151. D(C   8,C  13,C  12,C  11)      0.0001         0.026011   
    152. D(H  32,C  13,C   8,C   9)    179.9999         0.024823   
    153. D(H  32,C  13,C   8,P   3)      0.0000         0.024823   
    154. D(C  12,C  13,C   8,C   9)     -0.0001         0.024823   
    155. D(C   8,C  13,C  12,H  31)    179.9998         0.026011   
    156. D(C  12,C  13,C   8,P   3)   -180.0000         0.024823   
    157. D(H  32,C  13,C  12,H  31)     -0.0002         0.026011   
    158. D(H  32,C  13,C  12,C  11)   -179.9999         0.026011   
    -----------------------------------------------------------------

Number of atoms                         .... 33
Number of degrees of freedom            .... 158


         *************************************************************
         *                GEOMETRY OPTIMIZATION CYCLE   1            *
         *************************************************************
---------------------------------
CARTESIAN COORDINATES (ANGSTROEM)
---------------------------------
  C      3.732652   -1.706081   -1.128638
  C      2.690824   -1.166598   -0.164026
  C      1.274678   -1.390347   -0.680281
  P     -0.004640   -0.786663    0.455502
  O      0.072299   -1.544108    1.758623
  C     -1.535633   -1.220539   -0.415651
  C     -2.794035   -0.835176    0.352445
  C     -4.053908   -1.235594   -0.395424
  C      0.113264    0.976818    0.576023
  C      0.055844    1.795961   -0.559341
  C      0.151074    3.183447   -0.438342
  C      0.304588    3.765723    0.818267
  C      0.363036    2.962148    1.954566
  C      0.267825    1.575741    1.833077
  H      3.659083   -1.211210   -2.102299
  H      4.739233   -1.533469   -0.735115
  H      3.607160   -2.782962   -1.279876
  H      2.807125   -1.652889    0.810940
  H      2.861841   -0.096487   -0.004113
  H      1.145569   -0.900346   -1.651579
  H      1.103584   -2.461739   -0.835886
  H     -1.525587   -2.302878   -0.588304
  H     -1.531890   -0.738573   -1.399462
  H     -2.784156   -1.315023    1.337438
  H     -2.803360    0.245834    0.529325
  H     -4.104192   -0.742147   -1.371287
  H     -4.941804   -0.948502    0.176484
  H     -4.088177   -2.317991   -0.555234
  H     -0.063576    1.360483   -1.548051
  H      0.105637    3.812058   -1.324168
  H      0.378771    4.846013    0.912890
  H      0.482736    3.413117    2.936387
  H      0.314135    0.951979    2.725109

----------------------------
CARTESIAN COORDINATES (A.U.)
----------------------------
  NO LB      ZA    FRAG     MASS         X           Y           Z
   0 C     6.0000    0    12.011    7.053690   -3.224026   -2.132817
   1 C     6.0000    0    12.011    5.084920   -2.204551   -0.309964
   2 C     6.0000    0    12.011    2.408792   -2.627375   -1.285545
   3 P    15.0000    0    30.974   -0.008768   -1.486578    0.860774
   4 O     8.0000    0    15.999    0.136625   -2.917941    3.323316
   5 C     6.0000    0    12.011   -2.901926   -2.306484   -0.785467
   6 C     6.0000    0    12.011   -5.279961   -1.578254    0.666025
   7 C     6.0000    0    12.011   -7.660776   -2.334934   -0.747243
   8 C     6.0000    0    12.011    0.214038    1.845919    1.088526
   9 C     6.0000    0    12.011    0.105530    3.393874   -1.057001
  10 C     6.0000    0    12.011    0.285488    6.015843   -0.828346
  11 C     6.0000    0    12.011    0.575588    7.116185    1.546301
  12 C     6.0000    0    12.011    0.686039    5.597648    3.693594
  13 C     6.0000    0    12.011    0.506116    2.977719    3.464014
  14 H     1.0000    0     1.008    6.914665   -2.288855   -3.972769
  15 H     1.0000    0     1.008    8.955852   -2.897836   -1.389166
  16 H     1.0000    0     1.008    6.816545   -5.259036   -2.418615
  17 H     1.0000    0     1.008    5.304697   -3.123508    1.532455
  18 H     1.0000    0     1.008    5.408096   -0.182334   -0.007772
  19 H     1.0000    0     1.008    2.164812   -1.701407   -3.121032
  20 H     1.0000    0     1.008    2.085472   -4.652013   -1.579596
  21 H     1.0000    0     1.008   -2.882942   -4.351809   -1.111733
  22 H     1.0000    0     1.008   -2.894853   -1.395701   -2.644600
  23 H     1.0000    0     1.008   -5.261292   -2.485033    2.527392
  24 H     1.0000    0     1.008   -5.297583    0.464559    1.000279
  25 H     1.0000    0     1.008   -7.755799   -1.402455   -2.591357
  26 H     1.0000    0     1.008   -9.338656   -1.792409    0.333506
  27 H     1.0000    0     1.008   -7.725535   -4.380368   -1.049240
  28 H     1.0000    0     1.008   -0.120141    2.570940   -2.925392
  29 H     1.0000    0     1.008    0.199625    7.203746   -2.502315
  30 H     1.0000    0     1.008    0.715773    9.157637    1.725112
  31 H     1.0000    0     1.008    0.912239    6.449856    5.548967
  32 H     1.0000    0     1.008    0.593629    1.798980    5.149710

--------------------------------
INTERNAL COORDINATES (ANGSTROEM)
--------------------------------
 C      0   0   0     0.000000000000     0.00000000     0.00000000
 C      1   0   0     1.518856082523     0.00000000     0.00000000
 C      2   1   0     1.523828183668   111.72441072     0.00000000
 P      3   2   1     1.814136692774   113.22814157   178.98765202
 O      4   3   2     1.509227245443   109.73173711   297.49660218
 C      4   3   2     1.814137673616   102.40976925   180.99768438
 C      6   4   3     1.523827976049   113.22817757   179.00274526
 C      7   6   4     1.518855685052   111.72439925   181.01284603
 C      4   3   2     1.771522481375   109.08163667    65.51010630
 C      9   4   3     1.401193678028   121.60747712    55.55890611
 C     10   9   4     1.396003907981   120.53134605   179.99998694
 C     11  10   9     1.393441088548   120.06609704     0.00000000
 C     12  11  10     1.392955263722   119.94728926     0.00000000
 C     13  12  11     1.394972788728   119.96262047     0.00000000
 H      1   2   3     1.094680522949   110.99038533    60.27900743
 H      1   2   3     1.094468164742   110.27211478   180.01699502
 H      1   2   3     1.094666096519   111.00985308   299.76316253
 H      2   1   3     1.095702313787   109.55210660   121.60798367
 H      2   1   3     1.095425275488   109.42712582   238.24314582
 H      3   2   1     1.095531797204   110.13403446   301.11949046
 H      3   2   1     1.096068834757   109.67542126    58.66439098
 H      6   4   3     1.096069200117   107.70248598    57.56361084
 H      6   4   3     1.095531523474   108.85240567   301.84717176
 H      7   6   4     1.095701578031   109.56837917   302.61142911
 H      7   6   4     1.095425081932   109.75411315    59.44469681
 H      8   7   6     1.094681240012   110.99036673   299.72131857
 H      8   7   6     1.094467854139   110.27216698   179.98320905
 H      8   7   6     1.094667468261   111.00978962    60.23702375
 H     10   9   4     1.086945117742   120.48658318     0.00000000
 H     11  10   9     1.087154088695   120.08034164   180.00018207
 H     12  11  10     1.086960493173   120.08790166   180.00009609
 H     13  12  11     1.087048115311   120.13756645   180.00024644
 H     14  13  12     1.089469934311   119.65739205   180.00005007

---------------------------
INTERNAL COORDINATES (A.U.)
---------------------------
 C      0   0   0     0.000000000000     0.00000000     0.00000000
 C      1   0   0     2.870222032809     0.00000000     0.00000000
 C      2   1   0     2.879617942284   111.72441072     0.00000000
 P      3   2   1     3.428221518841   113.22814157   178.98765202
 O      4   3   2     2.852026167739   109.73173711   297.49660218
 C      4   3   2     3.428223372364   102.40976925   180.99768438
 C      6   4   3     2.879617549940   113.22817757   179.00274526
 C      7   6   4     2.870221281697   111.72439925   181.01284603
 C      4   3   2     3.347692329884   109.08163667    65.51010630
 C      9   4   3     2.647872312054   121.60747712    55.55890611
 C     10   9   4     2.638065067967   120.53134605   179.99998694
 C     11  10   9     2.633222041108   120.06609704     0.00000000
 C     12  11  10     2.632303965238   119.94728926     0.00000000
 C     13  12  11     2.636116534968   119.96262047     0.00000000
 H      1   2   3     2.068646392511   110.99038533    60.27900743
 H      1   2   3     2.068245093658   110.27211478   180.01699502
 H      1   2   3     2.068619130510   111.00985308   299.76316253
 H      2   1   3     2.070577297361   109.55210660   121.60798367
 H      2   1   3     2.070053770848   109.42712582   238.24314582
 H      3   2   1     2.070255067719   110.13403446   301.11949046
 H      3   2   1     2.071269921616   109.67542126    58.66439098
 H      6   4   3     2.071270612048   107.70248598    57.56361084
 H      6   4   3     2.070254550444   108.85240567   301.84717176
 H      7   6   4     2.070575906983   109.56837917   302.61142911
 H      7   6   4     2.070053405079   109.75411315    59.44469681
 H      8   7   6     2.068647747564   110.99036673   299.72131857
 H      8   7   6     2.068244506704   110.27216698   179.98320905
 H      8   7   6     2.068621722727   111.00978962    60.23702375
 H     10   9   4     2.054028595136   120.48658318     0.00000000
 H     11  10   9     2.054423493006   120.08034164   180.00018207
 H     12  11  10     2.054057650488   120.08790166   180.00009609
 H     13  12  11     2.054223232334   120.13756645   180.00024644
 H     14  13  12     2.058799806989   119.65739205   180.00005007

---------------------
BASIS SET INFORMATION
---------------------
There are 4 groups of distinct atoms

 Group   1 Type C   : 7s4p1d contracted to 3s2p1d pattern {511/31/1}
 Group   2 Type P   : 10s7p1d contracted to 4s3p1d pattern {5311/511/1}
 Group   3 Type O   : 7s4p1d contracted to 3s2p1d pattern {511/31/1}
 Group   4 Type H   : 4s1p contracted to 2s1p pattern {31/1}

Atom   0C    basis set group =>   1
Atom   1C    basis set group =>   1
Atom   2C    basis set group =>   1
Atom   3P    basis set group =>   2
Atom   4O    basis set group =>   3
Atom   5C    basis set group =>   1
Atom   6C    basis set group =>   1
Atom   7C    basis set group =>   1
Atom   8C    basis set group =>   1
Atom   9C    basis set group =>   1
Atom  10C    basis set group =>   1
Atom  11C    basis set group =>   1
Atom  12C    basis set group =>   1
Atom  13C    basis set group =>   1
Atom  14H    basis set group =>   4
Atom  15H    basis set group =>   4
Atom  16H    basis set group =>   4
Atom  17H    basis set group =>   4
Atom  18H    basis set group =>   4
Atom  19H    basis set group =>   4
Atom  20H    basis set group =>   4
Atom  21H    basis set group =>   4
Atom  22H    basis set group =>   4
Atom  23H    basis set group =>   4
Atom  24H    basis set group =>   4
Atom  25H    basis set group =>   4
Atom  26H    basis set group =>   4
Atom  27H    basis set group =>   4
Atom  28H    basis set group =>   4
Atom  29H    basis set group =>   4
Atom  30H    basis set group =>   4
Atom  31H    basis set group =>   4
Atom  32H    basis set group =>   4
---------------------------------
AUXILIARY/J BASIS SET INFORMATION
---------------------------------
There are 4 groups of distinct atoms

 Group   1 Type C   : 12s5p4d2f1g contracted to 6s4p3d1f1g pattern {711111/2111/211/2/1}
 Group   2 Type P   : 14s5p5d2f1g contracted to 8s4p3d1f1g pattern {71111111/2111/311/2/1}
 Group   3 Type O   : 12s5p4d2f1g contracted to 6s4p3d1f1g pattern {711111/2111/211/2/1}
 Group   4 Type H   : 5s2p1d contracted to 3s1p1d pattern {311/2/1}

Atom   0C    basis set group =>   1
Atom   1C    basis set group =>   1
Atom   2C    basis set group =>   1
Atom   3P    basis set group =>   2
Atom   4O    basis set group =>   3
Atom   5C    basis set group =>   1
Atom   6C    basis set group =>   1
Atom   7C    basis set group =>   1
Atom   8C    basis set group =>   1
Atom   9C    basis set group =>   1
Atom  10C    basis set group =>   1
Atom  11C    basis set group =>   1
Atom  12C    basis set group =>   1
Atom  13C    basis set group =>   1
Atom  14H    basis set group =>   4
Atom  15H    basis set group =>   4
Atom  16H    basis set group =>   4
Atom  17H    basis set group =>   4
Atom  18H    basis set group =>   4
Atom  19H    basis set group =>   4
Atom  20H    basis set group =>   4
Atom  21H    basis set group =>   4
Atom  22H    basis set group =>   4
Atom  23H    basis set group =>   4
Atom  24H    basis set group =>   4
Atom  25H    basis set group =>   4
Atom  26H    basis set group =>   4
Atom  27H    basis set group =>   4
Atom  28H    basis set group =>   4
Atom  29H    basis set group =>   4
Atom  30H    basis set group =>   4
Atom  31H    basis set group =>   4
Atom  32H    basis set group =>   4


           ************************************************************
           *        Program running with 6 parallel MPI-processes     *
           *              working on a common directory               *
           ************************************************************
------------------------------------------------------------------------------
                             ORCA STARTUP CALCULATIONS
                           -- RI-GTO INTEGRALS CHOSEN --
------------------------------------------------------------------------------
------------------------------------------------------------------------------
                   ___                                                        
                  /   \      - P O W E R E D   B Y -                         
                 /     \                                                     
                 |  |  |   _    _      __       _____    __    __             
                 |  |  |  | |  | |    /  \     |  _  \  |  |  /  |          
                  \  \/   | |  | |   /    \    | | | |  |  | /  /          
                 / \  \   | |__| |  /  /\  \   | |_| |  |  |/  /          
                |  |  |   |  __  | /  /__\  \  |    /   |      \           
                |  |  |   | |  | | |   __   |  |    \   |  |\   \          
                \     /   | |  | | |  |  |  |  | |\  \  |  | \   \       
                 \___/    |_|  |_| |__|  |__|  |_| \__\ |__|  \__/        
                                                                              
                      - O R C A' S   B I G   F R I E N D -                    
                                      &                                       
                       - I N T E G R A L  F E E D E R -                       
                                                                              
 v1 FN, 2020, v2 2021, v3 2022-2024                                           
------------------------------------------------------------------------------


----------------------
SHARK INTEGRAL PACKAGE
----------------------

Number of atoms                             ...     33
Number of basis functions                   ...    295
Number of shells                            ...    143
Maximum angular momentum                    ...      2
Integral batch strategy                     ... SHARK/LIBINT Hybrid
RI-J (if used) integral strategy            ... SPLIT-RIJ (Revised 2003 algorithm where possible)
Printlevel                                  ...      1
Contraction scheme used                     ... SEGMENTED contraction
Prescreening option                         ... SCHWARTZ
   Thresh                                   ... 2.500e-11
   Tcut                                     ... 2.500e-12
   Tpresel                                  ... 2.500e-12 
Coulomb Range Separation                    ... NOT USED
Exchange Range Separation                   ... NOT USED
Multipole approximations                    ... NOT USED
Finite Nucleus Model                        ... NOT USED
CABS basis                                  ... NOT available
Auxiliary Coulomb fitting basis             ... AVAILABLE
   # of basis functions in Aux-J            ...    897
   # of shells in Aux-J                     ...    307
   Maximum angular momentum in Aux-J        ...      4
Auxiliary J/K fitting basis                 ... NOT available
Auxiliary Correlation fitting basis         ... NOT available
Auxiliary 'external' fitting basis          ... NOT available

Checking pre-screening integrals            ... done (  0.0 sec) Dimension = 143
Check shell pair data                       ... done (  0.0 sec)
Shell pair information
Shell pair cut-off parameter TPreSel        ...   2.5e-12
Total number of shell pairs                 ...     10296
Shell pairs after pre-screening             ...      8473
Total number of primitive shell pairs       ...     36564
Primitive shell pairs kept                  ...     20172
          la=0 lb=0:   2839 shell pairs
          la=1 lb=0:   3217 shell pairs
          la=1 lb=1:    936 shell pairs
          la=2 lb=0:    902 shell pairs
          la=2 lb=1:    505 shell pairs
          la=2 lb=2:     74 shell pairs

Calculating one electron integrals          ... done (  0.0 sec)
Calculating RI/J V-Matrix + Cholesky decomp.... done (  0.0 sec)
Calculating Nuclear repulsion               ... done (  0.0 sec) ENN=   1030.462530600828 Eh

Diagonalization of the overlap matrix:
Smallest eigenvalue                        ... 2.868e-04
Time for diagonalization                   ...    0.010 sec
Threshold for overlap eigenvalues          ... 1.000e-07
Number of eigenvalues below threshold      ... 0
Time for construction of square roots      ...    0.008 sec
Total time needed                          ...    0.019 sec

-------------------
DFT GRID GENERATION
-------------------

General Integration Accuracy     IntAcc      ... 4.388
Radial Grid Type                 RadialGrid  ... OptM3 with GC (2021)
Angular Grid (max. ang.)         AngularGrid ... 4 (Lebedev-302)
Angular grid pruning method      GridPruning ... 4 (adaptive)
Weight generation scheme         WeightScheme... mBecke (2022)
Basis function cutoff            BFCut       ... 1.0000e-11
Integration weight cutoff        WCut        ... 1.0000e-14
Partially contracted basis set               ... off
Rotationally invariant grid construction     ... off
Angular grids for H and He will be reduced by one unit

Total number of grid points                  ...   145477
Total number of batches                      ...     2292
Average number of points per batch           ...       63
Average number of grid points per atom       ...     4408
Initializing property integral containers    ... done (  0.0 sec)

SHARK setup successfully completed in   0.9 seconds

Maximum memory used throughout the entire STARTUP-calculation: 40.4 MB


           ************************************************************
           *        Program running with 6 parallel MPI-processes     *
           *              working on a common directory               *
           ************************************************************
-------------------------------------------------------------------------------
                                 ORCA GUESS
                   Start orbitals & Density for SCF / CASSCF
-------------------------------------------------------------------------------

------------
SCF SETTINGS
------------
Hamiltonian:
 Density Functional     Method          .... DFT(GTOs)
 Exchange Functional    Exchange        .... B88
   X-Alpha parameter    XAlpha          ....  0.666667
   Becke's b parameter  XBeta           ....  0.004200
 Correlation Functional Correlation     .... P86
 LDA part of GGA corr.  LDAOpt          .... PW91-LDA
 Gradients option       PostSCFGGA      .... off
   NL short-range parameter             ....  4.400000
 RI-approximation to the Coulomb term is turned on
   Number of AuxJ basis functions       .... 897


General Settings:
 Integral files         IntName         .... data/geom_opt_PO_BP86/292611/292611
 Hartree-Fock type      HFTyp           .... RHF
 Total Charge           Charge          ....    0
 Multiplicity           Mult            ....    1
 Number of Electrons    NEL             ....  114
 Basis Dimension        Dim             ....  295
 Nuclear Repulsion      ENuc            ....   1030.4625306008 Eh

Convergence Acceleration:
 AO-DIIS                CNVDIIS         .... on
   Start iteration      DIISMaxIt       ....    12
   Startup error        DIISStart       ....  0.200000
   # of expansion vecs  DIISMaxEq       ....     5
   Bias factor          DIISBfac        ....   1.050
   Max. coefficient     DIISMaxC        ....  10.000
 MO-DIIS                CNVKDIIS        .... off
 Trust-Rad. Augm. Hess. CNVTRAH         .... auto
   Auto Start mean grad. ratio tolernc. ....  1.125000
   Auto Start start iteration           ....    50
   Auto Start num. interpolation iter.  ....    10
   Max. Number of Micro iterations      ....    24
   Max. Number of Macro iterations      .... Maxiter - #DIIS iter
   Number of Davidson start vectors     ....     2
   Converg. threshold    (grad. norm)   ....   1.000e-05
   Grad. Scal. Fac. for Micro threshold ....   0.100
   Minimum threshold for Micro iter.    ....   1.000e-02
   NR start threshold (gradient norm)   ....   1.000e-04
   Initial trust radius                 ....   0.400
   Minimum AH scaling param. (alpha)    ....   1.000
   Maximum AH scaling param. (alpha)    .... 1000.000
   Quad. conv. algorithm                .... NR
   White noise on init. David. guess    .... on
   Maximum white noise                  ....   0.010
   Pseudo random numbers                .... off
   Inactive MOs                         .... canonical
   Orbital update algorithm             .... Taylor
   Preconditioner                       .... Diag
   Full preconditioner red. dimension   ....   250
 SOSCF                  CNVSOSCF        .... on
   Start iteration      SOSCFMaxIt      ....   150
   Startup grad/error   SOSCFStart      ....  0.003300
   Hessian update       SOSCFHessUp     .... L-BFGS
 Level Shifting         CNVShift        .... on
   Level shift para.    LevelShift      ....    0.2500
   Turn off err/grad.   ShiftErr        ....    0.0010
 Zerner damping         CNVZerner       .... off
 Static damping         CNVDamp         .... on
   Fraction old density DampFac         ....    0.7000
   Max. Damping (<1)    DampMax         ....    0.9800
   Min. Damping (>=0)   DampMin         ....    0.0000
   Turn off err/grad.   DampErr         ....    0.1000

SCF Procedure:
 Maximum # iterations   MaxIter         ....   125
 SCF integral mode      SCFMode         .... Direct
   Integral package                     .... SHARK and LIBINT hybrid scheme
 Reset frequency        DirectResetFreq ....    20
 Integral Threshold     Thresh          ....  2.500e-11 Eh
 Primitive CutOff       TCut            ....  2.500e-12 Eh

Convergence Tolerance:
 Convergence Check Mode ConvCheckMode   .... Total+1el-Energy
 Convergence forced     ConvForced      .... 0
 Energy Change          TolE            ....  1.000e-08 Eh
 1-El. energy change                    ....  1.000e-05 Eh
 Orbital Gradient       TolG            ....  1.000e-05
 Orbital Rotation angle TolX            ....  1.000e-05
 DIIS Error             TolErr          ....  5.000e-07

------------------------------
INITIAL GUESS: MODEL POTENTIAL
------------------------------
Loading Hartree-Fock densities                     ... done
Calculating cut-offs                               ... done
Initializing the effective Hamiltonian             ... done
Setting up the integral package (SHARK)            ... done
Starting the Coulomb interaction                   ... done (   0.1 sec)
Making the grid                                    ... done (   0.2 sec)
Mapping shells                                     ... done
Starting the XC term evaluation                    ... done (   0.1 sec)
  promolecular density results
     # of electrons  =    113.983505673
     EX              =    -98.241117326
     EC              =     -4.217525260
     EX+EC           =   -102.458642586
Transforming the Hamiltonian                       ... done (   0.0 sec)
Diagonalizing the Hamiltonian                      ... done (   0.0 sec)
Back transforming the eigenvectors                 ... done (   0.0 sec)
Now organizing SCF variables                       ... done
                      ------------------
                      INITIAL GUESS DONE (   0.4 sec)
                      ------------------
             **** ENERGY FILE WAS UPDATED (data/geom_opt_PO_BP86/292611/292611.en.tmp) ****
Finished Guess after   0.5 sec
Maximum memory used throughout the entire GUESS-calculation: 22.0 MB


           ************************************************************
           *        Program running with 6 parallel MPI-processes     *
           *              working on a common directory               *
           ************************************************************

-------------------------------------------------------------------------------------------
                                      ORCA LEAN-SCF
                              memory conserving SCF solver
-------------------------------------------------------------------------------------------

----------------------------------------D-I-I-S--------------------------------------------
Iteration    Energy (Eh)           Delta-E    RMSDP     MaxDP     DIISErr   Damp  Time(sec)
-------------------------------------------------------------------------------------------
               ***  Starting incremental Fock matrix formation  ***
    1    -884.3980745468793430     0.00e+00  4.04e-03  1.66e-01  3.38e-01  0.700   0.6
    2    -884.6247569544448197    -2.27e-01  2.37e-03  8.93e-02  8.38e-02  0.700   0.6
                               ***Turning on AO-DIIS***
    3    -884.6941618661251141    -6.94e-02  7.76e-04  1.96e-02  2.62e-02  0.700   0.6
    4    -884.7410569165087963    -4.69e-02  1.30e-03  4.18e-02  1.52e-02  0.000   0.6
    5    -884.8471934206561400    -1.06e-01  3.44e-04  8.15e-03  8.44e-03  0.000   0.7
                              *** Initializing SOSCF ***
---------------------------------------S-O-S-C-F--------------------------------------
Iteration    Energy (Eh)           Delta-E    RMSDP     MaxDP     MaxGrad    Time(sec)
--------------------------------------------------------------------------------------
    6    -884.8483761664124359    -1.18e-03  1.19e-04  2.45e-03  1.85e-03     0.7
               *** Restarting incremental Fock matrix formation ***
    7    -884.8484552316265308    -7.91e-05  1.09e-04  3.01e-03  4.33e-04     0.6
    8    -884.8484435718876284     1.17e-05  5.33e-05  1.85e-03  9.16e-04     0.5
    9    -884.8484653631990113    -2.18e-05  3.25e-05  8.84e-04  2.31e-04     0.5
   10    -884.8484635359063759     1.83e-06  1.86e-05  5.10e-04  2.31e-04     0.6
   11    -884.8484671043008802    -3.57e-06  9.39e-06  3.78e-04  5.42e-05     0.6
   12    -884.8484668419923764     2.62e-07  6.72e-06  3.38e-04  1.03e-04     0.5
   13    -884.8484671850301311    -3.43e-07  3.12e-06  1.14e-04  1.39e-05     0.5
   14    -884.8484671522901408     3.27e-08  1.87e-06  9.35e-05  2.60e-05     0.5
   15    -884.8484672033325751    -5.10e-08  7.58e-07  3.39e-05  6.28e-06     0.5
   16    -884.8484672015442811     1.79e-09  4.54e-07  1.86e-05  1.14e-05     0.5
                 **** Energy Check signals convergence ****

               *****************************************************
               *                     SUCCESS                       *
               *           SCF CONVERGED AFTER  16 CYCLES          *
               *****************************************************

             **** ENERGY FILE WAS UPDATED (data/geom_opt_PO_BP86/292611/292611.en.tmp) ****

----------------
TOTAL SCF ENERGY
----------------

Total Energy       :       -884.84846720154428 Eh          -24077.95089 eV

Components:
Nuclear Repulsion  :       1030.46253060082768 Eh           28040.31100 eV
Electronic Energy  :      -1915.31099780237196 Eh          -52118.26189 eV
One Electron Energy:      -3253.42857145149446 Eh          -88530.29222 eV
Two Electron Energy:       1338.11757364912251 Eh           36412.03033 eV

Virial components:
Potential Energy   :      -1762.44232381622942 Eh          -47958.49379 eV
Kinetic Energy     :        877.59385661468502 Eh           23880.54290 eV
Virial Ratio       :          2.00826647831702

DFT components:
N(Alpha)           :       56.999944407950 electrons
N(Beta)            :       56.999944407950 electrons
N(Total)           :      113.999888815901 electrons
E(X)               :      -99.923852147766 Eh       
E(C)               :       -4.218338492021 Eh       
E(XC)              :     -104.142190639787 Eh       

---------------
SCF CONVERGENCE
---------------

  Last Energy change         ...   -1.7883e-09  Tolerance :   1.0000e-08
  Last MAX-Density change    ...    1.8619e-05  Tolerance :   1.0000e-07
  Last RMS-Density change    ...    4.5403e-07  Tolerance :   5.0000e-09
  Last DIIS Error            ...    1.8475e-03  Tolerance :   5.0000e-07
  Last Orbital Gradient      ...    1.1354e-05  Tolerance :   1.0000e-05
  Last Orbital Rotation      ...    1.7890e-05  Tolerance :   1.0000e-05


----------------
ORBITAL ENERGIES
----------------

  NO   OCC          E(Eh)            E(eV) 
   0   2.0000     -76.396386     -2078.8514 
   1   2.0000     -18.697292      -508.7792 
   2   2.0000      -9.936521      -270.3865 
   3   2.0000      -9.931221      -270.2423 
   4   2.0000      -9.930960      -270.2351 
   5   2.0000      -9.929610      -270.1984 
   6   2.0000      -9.928244      -270.1612 
   7   2.0000      -9.927702      -270.1465 
   8   2.0000      -9.911307      -269.7004 
   9   2.0000      -9.911289      -269.6999 
  10   2.0000      -9.910614      -269.6815 
  11   2.0000      -9.910610      -269.6814 
  12   2.0000      -9.903116      -269.4775 
  13   2.0000      -9.903106      -269.4772 
  14   2.0000      -6.357703      -173.0019 
  15   2.0000      -4.578850      -124.5968 
  16   2.0000      -4.578531      -124.5882 
  17   2.0000      -4.578510      -124.5876 
  18   2.0000      -0.840527       -22.8719 
  19   2.0000      -0.788736       -21.4626 
  20   2.0000      -0.722723       -19.6663 
  21   2.0000      -0.713835       -19.4244 
  22   2.0000      -0.691882       -18.8271 
  23   2.0000      -0.684581       -18.6284 
  24   2.0000      -0.641535       -17.4571 
  25   2.0000      -0.613247       -16.6873 
  26   2.0000      -0.565547       -15.3893 
  27   2.0000      -0.557003       -15.1568 
  28   2.0000      -0.538662       -14.6577 
  29   2.0000      -0.520642       -14.1674 
  30   2.0000      -0.501225       -13.6390 
  31   2.0000      -0.460560       -12.5325 
  32   2.0000      -0.427978       -11.6459 
  33   2.0000      -0.420840       -11.4516 
  34   2.0000      -0.420313       -11.4373 
  35   2.0000      -0.412086       -11.2134 
  36   2.0000      -0.398591       -10.8462 
  37   2.0000      -0.391917       -10.6646 
  38   2.0000      -0.387876       -10.5546 
  39   2.0000      -0.370508       -10.0820 
  40   2.0000      -0.370135       -10.0719 
  41   2.0000      -0.352663        -9.5964 
  42   2.0000      -0.350297        -9.5321 
  43   2.0000      -0.342572        -9.3219 
  44   2.0000      -0.335977        -9.1424 
  45   2.0000      -0.318756        -8.6738 
  46   2.0000      -0.315605        -8.5880 
  47   2.0000      -0.304306        -8.2806 
  48   2.0000      -0.302596        -8.2341 
  49   2.0000      -0.295838        -8.0502 
  50   2.0000      -0.291005        -7.9186 
  51   2.0000      -0.289199        -7.8695 
  52   2.0000      -0.282524        -7.6879 
  53   2.0000      -0.247109        -6.7242 
  54   2.0000      -0.245903        -6.6914 
  55   2.0000      -0.205832        -5.6010 
  56   2.0000      -0.199086        -5.4174 
  57   0.0000      -0.069040        -1.8787 
  58   0.0000      -0.055072        -1.4986 
  59   0.0000       0.020415         0.5555 
  60   0.0000       0.043985         1.1969 
  61   0.0000       0.047618         1.2957 
  62   0.0000       0.049130         1.3369 
  63   0.0000       0.057233         1.5574 
  64   0.0000       0.065271         1.7761 
  65   0.0000       0.066376         1.8062 
  66   0.0000       0.084242         2.2923 
  67   0.0000       0.089996         2.4489 
*Only the first 10 virtual orbitals were printed.

                    ********************************
                    * MULLIKEN POPULATION ANALYSIS *
                    ********************************

-----------------------
MULLIKEN ATOMIC CHARGES
-----------------------
   0 C :   -0.023712
   1 C :   -0.033426
   2 C :   -0.118183
   3 P :    0.458670
   4 O :   -0.472047
   5 C :   -0.118450
   6 C :   -0.033493
   7 C :   -0.023750
   8 C :   -0.095170
   9 C :   -0.006765
  10 C :    0.009827
  11 C :    0.016280
  12 C :    0.011927
  13 C :    0.003627
  14 H :    0.018262
  15 H :    0.027728
  16 H :    0.024930
  17 H :    0.040009
  18 H :    0.024197
  19 H :    0.017691
  20 H :    0.049150
  21 H :    0.049138
  22 H :    0.017827
  23 H :    0.040057
  24 H :    0.024206
  25 H :    0.018317
  26 H :    0.027725
  27 H :    0.024928
  28 H :   -0.003095
  29 H :   -0.000347
  30 H :    0.003280
  31 H :    0.004752
  32 H :    0.015908
Sum of atomic charges:   -0.0000000

--------------------------------
MULLIKEN REDUCED ORBITAL CHARGES
--------------------------------
  0 C s       :     2.995850  s :     2.995850
      pz      :     0.993951  p :     3.000962
      px      :     0.996596
      py      :     1.010415
      dz2     :     0.006830  d :     0.026900
      dxz     :     0.004670
      dyz     :     0.004671
      dx2y2   :     0.008529
      dxy     :     0.002200

  1 C s       :     3.022696  s :     3.022696
      pz      :     1.020690  p :     2.975354
      px      :     0.934859
      py      :     1.019804
      dz2     :     0.008050  d :     0.035376
      dxz     :     0.007244
      dyz     :     0.005027
      dx2y2   :     0.009984
      dxy     :     0.005072

  2 C s       :     3.052149  s :     3.052149
      pz      :     1.018425  p :     3.038576
      px      :     1.004196
      py      :     1.015955
      dz2     :     0.005564  d :     0.027458
      dxz     :     0.006329
      dyz     :     0.004051
      dx2y2   :     0.006790
      dxy     :     0.004725

  3 P s       :     5.272655  s :     5.272655
      pz      :     2.893607  p :     8.777644
      px      :     2.961155
      py      :     2.922882
      dz2     :     0.104537  d :     0.491031
      dxz     :     0.148001
      dyz     :     0.087698
      dx2y2   :     0.101098
      dxy     :     0.049698

  4 O s       :     3.819610  s :     3.819610
      pz      :     1.432679  p :     4.640496
      px      :     1.654388
      py      :     1.553429
      dz2     :     0.003811  d :     0.011940
      dxz     :     0.002480
      dyz     :     0.003771
      dx2y2   :     0.000927
      dxy     :     0.000952

  5 C s       :     3.052282  s :     3.052282
      pz      :     1.016071  p :     3.038710
      px      :     1.004288
      py      :     1.018351
      dz2     :     0.006361  d :     0.027458
      dxz     :     0.005622
      dyz     :     0.004377
      dx2y2   :     0.007630
      dxy     :     0.003468

  6 C s       :     3.022721  s :     3.022721
      pz      :     1.018183  p :     2.975395
      px      :     0.938523
      py      :     1.018689
      dz2     :     0.007852  d :     0.035377
      dxz     :     0.007594
      dyz     :     0.004846
      dx2y2   :     0.010205
      dxy     :     0.004880

  7 C s       :     2.995845  s :     2.995845
      pz      :     0.998641  p :     3.001005
      px      :     0.990052
      py      :     1.012311
      dz2     :     0.005753  d :     0.026900
      dxz     :     0.006054
      dyz     :     0.004156
      dx2y2   :     0.007923
      dxy     :     0.003014

  8 C s       :     3.065817  s :     3.065817
      pz      :     0.971487  p :     2.995880
      px      :     1.029906
      py      :     0.994488
      dz2     :     0.009996  d :     0.033472
      dxz     :     0.006431
      dyz     :     0.009292
      dx2y2   :     0.004919
      dxy     :     0.002834

  9 C s       :     3.223778  s :     3.223778
      pz      :     0.865670  p :     2.749818
      px      :     0.972513
      py      :     0.911635
      dz2     :     0.008471  d :     0.033168
      dxz     :     0.002896
      dyz     :     0.011287
      dx2y2   :     0.004797
      dxy     :     0.005718

 10 C s       :     3.171305  s :     3.171305
      pz      :     0.880479  p :     2.786154
      px      :     0.984453
      py      :     0.921222
      dz2     :     0.007853  d :     0.032714
      dxz     :     0.003476
      dyz     :     0.012201
      dx2y2   :     0.004424
      dxy     :     0.004760

 11 C s       :     3.169504  s :     3.169504
      pz      :     0.965160  p :     2.781145
      px      :     0.965897
      py      :     0.850088
      dz2     :     0.010490  d :     0.033071
      dxz     :     0.006140
      dyz     :     0.009709
      dx2y2   :     0.004399
      dxy     :     0.002332

 12 C s       :     3.173862  s :     3.173862
      pz      :     0.862750  p :     2.781464
      px      :     0.978414
      py      :     0.940300
      dz2     :     0.008339  d :     0.032747
      dxz     :     0.002994
      dyz     :     0.011526
      dx2y2   :     0.004733
      dxy     :     0.005156

 13 C s       :     3.249095  s :     3.249095
      pz      :     0.906829  p :     2.714486
      px      :     0.939659
      py      :     0.867998
      dz2     :     0.007861  d :     0.032792
      dxz     :     0.003518
      dyz     :     0.011989
      dx2y2   :     0.004447
      dxy     :     0.004977

 14 H s       :     0.958813  s :     0.958813
      pz      :     0.011050  p :     0.022925
      px      :     0.005065
      py      :     0.006811

 15 H s       :     0.949503  s :     0.949503
      pz      :     0.005927  p :     0.022769
      px      :     0.011396
      py      :     0.005446

 16 H s       :     0.952127  s :     0.952127
      pz      :     0.005227  p :     0.022943
      px      :     0.005077
      py      :     0.012639

 17 H s       :     0.938109  s :     0.938109
      pz      :     0.011202  p :     0.021882
      px      :     0.004075
      py      :     0.006605

 18 H s       :     0.953590  s :     0.953590
      pz      :     0.005169  p :     0.022213
      px      :     0.004473
      py      :     0.012572

 19 H s       :     0.959218  s :     0.959218
      pz      :     0.011305  p :     0.023091
      px      :     0.004847
      py      :     0.006940

 20 H s       :     0.927952  s :     0.927952
      pz      :     0.005355  p :     0.022898
      px      :     0.004604
      py      :     0.012938

 21 H s       :     0.927965  s :     0.927965
      pz      :     0.005284  p :     0.022897
      px      :     0.004536
      py      :     0.013078

 22 H s       :     0.959087  s :     0.959087
      pz      :     0.011269  p :     0.023086
      px      :     0.004967
      py      :     0.006849

 23 H s       :     0.938062  s :     0.938062
      pz      :     0.011221  p :     0.021880
      px      :     0.004062
      py      :     0.006596

 24 H s       :     0.953582  s :     0.953582
      pz      :     0.005175  p :     0.022212
      px      :     0.004301
      py      :     0.012737

 25 H s       :     0.958760  s :     0.958760
      pz      :     0.011173  p :     0.022922
      px      :     0.004847
      py      :     0.006902

 26 H s       :     0.949506  s :     0.949506
      pz      :     0.007135  p :     0.022768
      px      :     0.009816
      py      :     0.005817

 27 H s       :     0.952130  s :     0.952130
      pz      :     0.005423  p :     0.022942
      px      :     0.004808
      py      :     0.012711

 28 H s       :     0.980493  s :     0.980493
      pz      :     0.011905  p :     0.022602
      px      :     0.005319
      py      :     0.005378

 29 H s       :     0.977942  s :     0.977942
      pz      :     0.010321  p :     0.022405
      px      :     0.005021
      py      :     0.007063

 30 H s       :     0.974422  s :     0.974422
      pz      :     0.003787  p :     0.022298
      px      :     0.004908
      py      :     0.013603

 31 H s       :     0.972919  s :     0.972919
      pz      :     0.011919  p :     0.022328
      px      :     0.005023
      py      :     0.005386

 32 H s       :     0.961295  s :     0.961295
      pz      :     0.010424  p :     0.022798
      px      :     0.004541
      py      :     0.007832



                     *******************************
                     * LOEWDIN POPULATION ANALYSIS *
                     *******************************

----------------------
LOEWDIN ATOMIC CHARGES
----------------------
   0 C :   -0.066563
   1 C :   -0.053503
   2 C :   -0.185339
   3 P :    0.866993
   4 O :   -0.510118
   5 C :   -0.185366
   6 C :   -0.053526
   7 C :   -0.066578
   8 C :   -0.193990
   9 C :   -0.027482
  10 C :   -0.026118
  11 C :   -0.015422
  12 C :   -0.023227
  13 C :   -0.007546
  14 H :    0.022821
  15 H :    0.028837
  16 H :    0.025740
  17 H :    0.031979
  18 H :    0.025227
  19 H :    0.020618
  20 H :    0.037027
  21 H :    0.037020
  22 H :    0.020645
  23 H :    0.031994
  24 H :    0.025228
  25 H :    0.022836
  26 H :    0.028835
  27 H :    0.025738
  28 H :    0.025942
  29 H :    0.032406
  30 H :    0.032936
  31 H :    0.034263
  32 H :    0.037694

-------------------------------
LOEWDIN REDUCED ORBITAL CHARGES
-------------------------------
  0 C s       :     2.840180  s :     2.840180
      pz      :     1.049427  p :     3.155624
      px      :     1.043796
      py      :     1.062401
      dz2     :     0.016734  d :     0.070759
      dxz     :     0.013853
      dyz     :     0.012152
      dx2y2   :     0.022498
      dxy     :     0.005522

  1 C s       :     2.835359  s :     2.835359
      pz      :     1.057761  p :     3.128937
      px      :     1.005570
      py      :     1.065605
      dz2     :     0.019211  d :     0.089207
      dxz     :     0.019283
      dyz     :     0.012697
      dx2y2   :     0.026931
      dxy     :     0.011085

  2 C s       :     2.892412  s :     2.892412
      pz      :     1.078896  p :     3.221331
      px      :     1.062604
      py      :     1.079831
      dz2     :     0.014323  d :     0.071596
      dxz     :     0.016419
      dyz     :     0.010688
      dx2y2   :     0.019812
      dxy     :     0.010354

  3 P s       :     4.929145  s :     4.929145
      pz      :     2.802743  p :     8.518245
      px      :     2.871243
      py      :     2.844259
      dz2     :     0.147075  d :     0.685618
      dxz     :     0.211479
      dyz     :     0.118645
      dx2y2   :     0.148124
      dxy     :     0.060295

  4 O s       :     3.657501  s :     3.657501
      pz      :     1.545720  p :     4.834001
      px      :     1.677050
      py      :     1.611231
      dz2     :     0.006243  d :     0.018617
      dxz     :     0.002900
      dyz     :     0.007088
      dx2y2   :     0.001276
      dxy     :     0.001109

  5 C s       :     2.892416  s :     2.892416
      pz      :     1.072149  p :     3.221354
      px      :     1.070695
      py      :     1.078510
      dz2     :     0.015643  d :     0.071597
      dxz     :     0.015598
      dyz     :     0.011170
      dx2y2   :     0.021428
      dxy     :     0.007758

  6 C s       :     2.835357  s :     2.835357
      pz      :     1.055934  p :     3.128962
      px      :     1.007976
      py      :     1.065052
      dz2     :     0.018437  d :     0.089207
      dxz     :     0.020846
      dyz     :     0.011992
      dx2y2   :     0.027355
      dxy     :     0.010577

  7 C s       :     2.840180  s :     2.840180
      pz      :     1.056390  p :     3.155639
      px      :     1.034401
      py      :     1.064847
      dz2     :     0.014345  d :     0.070759
      dxz     :     0.016983
      dyz     :     0.010779
      dx2y2   :     0.021683
      dxy     :     0.006970

  8 C s       :     2.908113  s :     2.908113
      pz      :     1.089353  p :     3.195206
      px      :     1.010136
      py      :     1.095716
      dz2     :     0.029461  d :     0.090672
      dxz     :     0.013817
      dyz     :     0.029625
      dx2y2   :     0.012266
      dxy     :     0.005502

  9 C s       :     2.864717  s :     2.864717
      pz      :     1.043770  p :     3.071800
      px      :     0.963473
      py      :     1.064558
      dz2     :     0.024446  d :     0.090964
      dxz     :     0.005839
      dyz     :     0.033663
      dx2y2   :     0.014663
      dxy     :     0.012353

 10 C s       :     2.863625  s :     2.863625
      pz      :     1.050252  p :     3.073686
      px      :     0.967630
      py      :     1.055805
      dz2     :     0.023360  d :     0.088807
      dxz     :     0.007066
      dyz     :     0.034953
      dx2y2   :     0.013178
      dxy     :     0.010250

 11 C s       :     2.864848  s :     2.864848
      pz      :     1.069485  p :     3.061229
      px      :     0.949486
      py      :     1.042258
      dz2     :     0.030685  d :     0.089346
      dxz     :     0.013582
      dyz     :     0.029766
      dx2y2   :     0.011104
      dxy     :     0.004208

 12 C s       :     2.863814  s :     2.863814
      pz      :     1.045287  p :     3.070478
      px      :     0.961696
      py      :     1.063495
      dz2     :     0.023923  d :     0.088935
      dxz     :     0.005794
      dyz     :     0.033880
      dx2y2   :     0.014219
      dxy     :     0.011119

 13 C s       :     2.868191  s :     2.868191
      pz      :     1.054543  p :     3.049949
      px      :     0.935964
      py      :     1.059442
      dz2     :     0.023044  d :     0.089406
      dxz     :     0.007306
      dyz     :     0.035361
      dx2y2   :     0.013079
      dxy     :     0.010616

 14 H s       :     0.911636  s :     0.911636
      pz      :     0.034208  p :     0.065542
      px      :     0.013145
      py      :     0.018190

 15 H s       :     0.905423  s :     0.905423
      pz      :     0.016414  p :     0.065740
      px      :     0.035788
      py      :     0.013538

 16 H s       :     0.908670  s :     0.908670
      pz      :     0.013470  p :     0.065590
      px      :     0.013333
      py      :     0.038786

 17 H s       :     0.900460  s :     0.900460
      pz      :     0.036082  p :     0.067561
      px      :     0.013063
      py      :     0.018416

 18 H s       :     0.908010  s :     0.908010
      pz      :     0.014097  p :     0.066763
      px      :     0.013804
      py      :     0.038863

 19 H s       :     0.906775  s :     0.906775
      pz      :     0.038034  p :     0.072607
      px      :     0.015846
      py      :     0.018726

 20 H s       :     0.892233  s :     0.892233
      pz      :     0.014687  p :     0.070739
      px      :     0.014970
      py      :     0.041082

 21 H s       :     0.892241  s :     0.892241
      pz      :     0.014431  p :     0.070739
      px      :     0.014961
      py      :     0.041348

 22 H s       :     0.906747  s :     0.906747
      pz      :     0.037646  p :     0.072608
      px      :     0.016465
      py      :     0.018497

 23 H s       :     0.900443  s :     0.900443
      pz      :     0.036271  p :     0.067563
      px      :     0.013005
      py      :     0.018286

 24 H s       :     0.908008  s :     0.908008
      pz      :     0.014175  p :     0.066764
      px      :     0.013230
      py      :     0.039359

 25 H s       :     0.911622  s :     0.911622
      pz      :     0.034205  p :     0.065542
      px      :     0.013182
      py      :     0.018155

 26 H s       :     0.905425  s :     0.905425
      pz      :     0.020129  p :     0.065740
      px      :     0.030960
      py      :     0.014652

 27 H s       :     0.908672  s :     0.908672
      pz      :     0.013477  p :     0.065589
      px      :     0.013109
      py      :     0.039003

 28 H s       :     0.904797  s :     0.904797
      pz      :     0.037254  p :     0.069261
      px      :     0.015119
      py      :     0.016888

 29 H s       :     0.899343  s :     0.899343
      pz      :     0.031807  p :     0.068251
      px      :     0.014562
      py      :     0.021882

 30 H s       :     0.899000  s :     0.899000
      pz      :     0.012021  p :     0.068064
      px      :     0.014232
      py      :     0.041812

 31 H s       :     0.897572  s :     0.897572
      pz      :     0.036685  p :     0.068164
      px      :     0.014683
      py      :     0.016797

 32 H s       :     0.891082  s :     0.891082
      pz      :     0.033155  p :     0.071224
      px      :     0.013446
      py      :     0.024623



                      *****************************
                      * MAYER POPULATION ANALYSIS *
                      *****************************

  NA   - Mulliken gross atomic population
  ZA   - Total nuclear charge
  QA   - Mulliken gross atomic charge
  VA   - Mayer's total valence
  BVA  - Mayer's bonded valence
  FA   - Mayer's free valence

  ATOM       NA         ZA         QA         VA         BVA        FA
  0 C      6.0237     6.0000    -0.0237     4.0323     4.0323    -0.0000
  1 C      6.0334     6.0000    -0.0334     4.1111     4.1111    -0.0000
  2 C      6.1182     6.0000    -0.1182     3.9046     3.9046    -0.0000
  3 P     14.5413    15.0000     0.4587     4.8777     4.8777    -0.0000
  4 O      8.4720     8.0000    -0.4720     2.1221     2.1221    -0.0000
  5 C      6.1184     6.0000    -0.1184     3.9046     3.9046    -0.0000
  6 C      6.0335     6.0000    -0.0335     4.1111     4.1111    -0.0000
  7 C      6.0237     6.0000    -0.0237     4.0323     4.0323    -0.0000
  8 C      6.0952     6.0000    -0.0952     3.6838     3.6838    -0.0000
  9 C      6.0068     6.0000    -0.0068     3.8527     3.8527    -0.0000
 10 C      5.9902     6.0000     0.0098     3.8621     3.8621    -0.0000
 11 C      5.9837     6.0000     0.0163     3.8273     3.8273    -0.0000
 12 C      5.9881     6.0000     0.0119     3.8257     3.8257    -0.0000
 13 C      5.9964     6.0000     0.0036     3.8978     3.8978    -0.0000
 14 H      0.9817     1.0000     0.0183     0.9892     0.9892    -0.0000
 15 H      0.9723     1.0000     0.0277     0.9847     0.9847    -0.0000
 16 H      0.9751     1.0000     0.0249     0.9900     0.9900    -0.0000
 17 H      0.9600     1.0000     0.0400     0.9968     0.9968    -0.0000
 18 H      0.9758     1.0000     0.0242     0.9832     0.9832    -0.0000
 19 H      0.9823     1.0000     0.0177     0.9914     0.9914    -0.0000
 20 H      0.9508     1.0000     0.0492     0.9960     0.9960    -0.0000
 21 H      0.9509     1.0000     0.0491     0.9960     0.9960    -0.0000
 22 H      0.9822     1.0000     0.0178     0.9914     0.9914    -0.0000
 23 H      0.9599     1.0000     0.0401     0.9968     0.9968    -0.0000
 24 H      0.9758     1.0000     0.0242     0.9832     0.9832    -0.0000
 25 H      0.9817     1.0000     0.0183     0.9892     0.9892    -0.0000
 26 H      0.9723     1.0000     0.0277     0.9847     0.9847    -0.0000
 27 H      0.9751     1.0000     0.0249     0.9900     0.9900    -0.0000
 28 H      1.0031     1.0000    -0.0031     0.9842     0.9842     0.0000
 29 H      1.0003     1.0000    -0.0003     0.9789     0.9789    -0.0000
 30 H      0.9967     1.0000     0.0033     0.9787     0.9787    -0.0000
 31 H      0.9952     1.0000     0.0048     0.9796     0.9796    -0.0000
 32 H      0.9841     1.0000     0.0159     1.0152     1.0152    -0.0000

  Mayer bond orders larger than 0.100000
B(  0-C ,  1-C ) :   1.1184 B(  0-C , 14-H ) :   0.9654 B(  0-C , 15-H ) :   0.9611 
B(  0-C , 16-H ) :   0.9674 B(  1-C ,  2-C ) :   1.0712 B(  1-C , 17-H ) :   0.9335 
B(  1-C , 18-H ) :   0.9398 B(  2-C ,  3-P ) :   0.9385 B(  2-C , 19-H ) :   0.9079 
B(  2-C , 20-H ) :   0.9237 B(  3-P ,  4-O ) :   1.9031 B(  3-P ,  5-C ) :   0.9383 
B(  3-P ,  8-C ) :   0.8789 B(  5-C ,  6-C ) :   1.0713 B(  5-C , 21-H ) :   0.9237 
B(  5-C , 22-H ) :   0.9080 B(  6-C ,  7-C ) :   1.1184 B(  6-C , 23-H ) :   0.9335 
B(  6-C , 24-H ) :   0.9397 B(  7-C , 25-H ) :   0.9654 B(  7-C , 26-H ) :   0.9611 
B(  7-C , 27-H ) :   0.9674 B(  8-C ,  9-C ) :   1.3244 B(  8-C , 13-C ) :   1.3763 
B(  9-C , 10-C ) :   1.4011 B(  9-C , 28-H ) :   0.9803 B( 10-C , 11-C ) :   1.3766 
B( 10-C , 29-H ) :   0.9808 B( 11-C , 12-C ) :   1.3786 B( 11-C , 30-H ) :   0.9808 
B( 12-C , 13-C ) :   1.3712 B( 12-C , 31-H ) :   0.9840 B( 13-C , 32-H ) :   0.9807 


-------
TIMINGS
-------

Total SCF time: 0 days 0 hours 0 min 9 sec 

Total time                  ....       9.351 sec
Sum of individual times     ....       9.282 sec  ( 99.3%)

SCF preparation             ....       0.105 sec  (  1.1%)
Fock matrix formation       ....       8.448 sec  ( 90.3%)
  Startup                   ....       0.040 sec  (  0.5% of F)
  Split-RI-J                ....       2.667 sec  ( 31.6% of F)
  XC integration            ....       5.554 sec  ( 65.7% of F)
    Basis function eval.    ....       1.659 sec  ( 29.9% of XC)
    Density eval.           ....       1.590 sec  ( 28.6% of XC)
    XC-Functional eval.     ....       0.172 sec  (  3.1% of XC)
[...]
      pz      :     1.058590  p :     3.151343
      px      :     1.028386
      py      :     1.064366
      dz2     :     0.012528  d :     0.067460
      dxz     :     0.017135
      dyz     :     0.010084
      dx2y2   :     0.020600
      dxy     :     0.007113

  8 C s       :     2.925080  s :     2.925080
      pz      :     1.086564  p :     3.176583
      px      :     0.999784
      py      :     1.090235
      dz2     :     0.028294  d :     0.086423
      dxz     :     0.013344
      dyz     :     0.028558
      dx2y2   :     0.011155
      dxy     :     0.005072

  9 C s       :     2.873548  s :     2.873548
      pz      :     1.041610  p :     3.076168
      px      :     0.970830
      py      :     1.063728
      dz2     :     0.023808  d :     0.088089
      dxz     :     0.005441
      dyz     :     0.032343
      dx2y2   :     0.014459
      dxy     :     0.012038

 10 C s       :     2.872950  s :     2.872950
      pz      :     1.047771  p :     3.071715
      px      :     0.970496
      py      :     1.053448
      dz2     :     0.022520  d :     0.085870
      dxz     :     0.007025
      dyz     :     0.033715
      dx2y2   :     0.012725
      dxy     :     0.009884

 11 C s       :     2.874619  s :     2.874619
      pz      :     1.065069  p :     3.062869
      px      :     0.958313
      py      :     1.039488
      dz2     :     0.029331  d :     0.085528
      dxz     :     0.012952
      dyz     :     0.028734
      dx2y2   :     0.010466
      dxy     :     0.004045

 12 C s       :     2.873221  s :     2.873221
      pz      :     1.041946  p :     3.067911
      px      :     0.963881
      py      :     1.062084
      dz2     :     0.022949  d :     0.085982
      dxz     :     0.005406
      dyz     :     0.032650
      dx2y2   :     0.013949
      dxy     :     0.011028

 13 C s       :     2.876969  s :     2.876969
      pz      :     1.058362  p :     3.054928
      px      :     0.939874
      py      :     1.056692
      dz2     :     0.022255  d :     0.086792
      dxz     :     0.007295
      dyz     :     0.034572
      dx2y2   :     0.012722
      dxy     :     0.009948

 14 H s       :     0.911113  s :     0.911113
      pz      :     0.033126  p :     0.063058
      px      :     0.012106
      py      :     0.017826

 15 H s       :     0.904704  s :     0.904704
      pz      :     0.017092  p :     0.063401
      px      :     0.033560
      py      :     0.012749

 16 H s       :     0.909108  s :     0.909108
      pz      :     0.013022  p :     0.063117
      px      :     0.012205
      py      :     0.037890

 17 H s       :     0.899572  s :     0.899572
      pz      :     0.035585  p :     0.065693
      px      :     0.011963
      py      :     0.018145

 18 H s       :     0.905257  s :     0.905257
      pz      :     0.013581  p :     0.064245
      px      :     0.012333
      py      :     0.038331

 19 H s       :     0.903089  s :     0.903089
      pz      :     0.035694  p :     0.069197
      px      :     0.014418
      py      :     0.019085

 20 H s       :     0.896238  s :     0.896238
      pz      :     0.014471  p :     0.068307
      px      :     0.014257
      py      :     0.039578

 21 H s       :     0.896138  s :     0.896138
      pz      :     0.014079  p :     0.068314
      px      :     0.014385
      py      :     0.039849

 22 H s       :     0.903003  s :     0.903003
      pz      :     0.035465  p :     0.069214
      px      :     0.014995
      py      :     0.018754

 23 H s       :     0.899669  s :     0.899669
      pz      :     0.035307  p :     0.065679
      px      :     0.012468
      py      :     0.017904

 24 H s       :     0.905206  s :     0.905206
      pz      :     0.013446  p :     0.064259
      px      :     0.012063
      py      :     0.038749

 25 H s       :     0.911136  s :     0.911136
      pz      :     0.032905  p :     0.063060
      px      :     0.012554
      py      :     0.017602

 26 H s       :     0.904678  s :     0.904678
      pz      :     0.021235  p :     0.063398
      px      :     0.028236
      py      :     0.013927

 27 H s       :     0.909043  s :     0.909043
      pz      :     0.012841  p :     0.063114
      px      :     0.012177
      py      :     0.038097

 28 H s       :     0.906853  s :     0.906853
      pz      :     0.036460  p :     0.066528
      px      :     0.014453
      py      :     0.015616

 29 H s       :     0.900212  s :     0.900212
      pz      :     0.030315  p :     0.065984
      px      :     0.013877
      py      :     0.021792

 30 H s       :     0.899631  s :     0.899631
      pz      :     0.011285  p :     0.065843
      px      :     0.013727
      py      :     0.040831

 31 H s       :     0.898626  s :     0.898626
      pz      :     0.036394  p :     0.065910
      px      :     0.013999
      py      :     0.015517

 32 H s       :     0.890737  s :     0.890737
      pz      :     0.030525  p :     0.070730
      px      :     0.012852
      py      :     0.027354



                      *****************************
                      * MAYER POPULATION ANALYSIS *
                      *****************************

  NA   - Mulliken gross atomic population
  ZA   - Total nuclear charge
  QA   - Mulliken gross atomic charge
  VA   - Mayer's total valence
  BVA  - Mayer's bonded valence
  FA   - Mayer's free valence

  ATOM       NA         ZA         QA         VA         BVA        FA
  0 C      6.0378     6.0000    -0.0378     4.0183     4.0183    -0.0000
  1 C      6.0553     6.0000    -0.0553     4.0977     4.0977    -0.0000
  2 C      6.1387     6.0000    -0.1387     3.8879     3.8879    -0.0000
  3 P     14.5114    15.0000     0.4886     4.7806     4.7806    -0.0000
  4 O      8.4672     8.0000    -0.4672     2.1297     2.1297    -0.0000
  5 C      6.1387     6.0000    -0.1387     3.8884     3.8884    -0.0000
  6 C      6.0552     6.0000    -0.0552     4.0974     4.0974    -0.0000
  7 C      6.0382     6.0000    -0.0382     4.0187     4.0187    -0.0000
  8 C      6.1395     6.0000    -0.1395     3.7448     3.7448    -0.0000
  9 C      6.0103     6.0000    -0.0103     3.8521     3.8521    -0.0000
 10 C      6.0029     6.0000    -0.0029     3.8698     3.8698    -0.0000
 11 C      5.9926     6.0000     0.0074     3.8300     3.8300    -0.0000
 12 C      5.9971     6.0000     0.0029     3.8234     3.8234     0.0000
 13 C      5.9941     6.0000     0.0059     3.8842     3.8842    -0.0000
 14 H      0.9753     1.0000     0.0247     0.9867     0.9867     0.0000
 15 H      0.9648     1.0000     0.0352     0.9840     0.9840    -0.0000
 16 H      0.9704     1.0000     0.0296     0.9879     0.9879     0.0000
 17 H      0.9510     1.0000     0.0490     0.9986     0.9986     0.0000
 18 H      0.9632     1.0000     0.0368     0.9839     0.9839    -0.0000
 19 H      0.9650     1.0000     0.0350     0.9914     0.9914    -0.0000
 20 H      0.9455     1.0000     0.0545     0.9891     0.9891    -0.0000
 21 H      0.9454     1.0000     0.0546     0.9893     0.9893    -0.0000
 22 H      0.9647     1.0000     0.0353     0.9912     0.9912    -0.0000
 23 H      0.9510     1.0000     0.0490     0.9987     0.9987    -0.0000
 24 H      0.9631     1.0000     0.0369     0.9838     0.9838    -0.0000
 25 H      0.9753     1.0000     0.0247     0.9866     0.9866    -0.0000
 26 H      0.9648     1.0000     0.0352     0.9840     0.9840    -0.0000
 27 H      0.9702     1.0000     0.0298     0.9880     0.9880    -0.0000
 28 H      1.0000     1.0000     0.0000     0.9842     0.9842     0.0000
 29 H      0.9948     1.0000     0.0052     0.9790     0.9790    -0.0000
 30 H      0.9910     1.0000     0.0090     0.9788     0.9788    -0.0000
 31 H      0.9896     1.0000     0.0104     0.9798     0.9798    -0.0000
 32 H      0.9758     1.0000     0.0242     1.0204     1.0204    -0.0000

  Mayer bond orders larger than 0.100000
B(  0-C ,  1-C ) :   1.1115 B(  0-C , 14-H ) :   0.9653 B(  0-C , 15-H ) :   0.9625 
B(  0-C , 16-H ) :   0.9673 B(  1-C ,  2-C ) :   1.0614 B(  1-C , 17-H ) :   0.9336 
B(  1-C , 18-H ) :   0.9418 B(  2-C ,  3-P ) :   0.9196 B(  2-C , 19-H ) :   0.9130 
B(  2-C , 20-H ) :   0.9249 B(  3-P ,  4-O ) :   1.8664 B(  3-P ,  5-C ) :   0.9196 
B(  3-P ,  8-C ) :   0.8632 B(  5-C ,  6-C ) :   1.0618 B(  5-C , 21-H ) :   0.9248 
B(  5-C , 22-H ) :   0.9129 B(  6-C ,  7-C ) :   1.1119 B(  6-C , 23-H ) :   0.9334 
B(  6-C , 24-H ) :   0.9416 B(  7-C , 25-H ) :   0.9654 B(  7-C , 26-H ) :   0.9625 
B(  7-C , 27-H ) :   0.9673 B(  8-C ,  9-C ) :   1.3373 B(  8-C , 13-C ) :   1.3935 
B(  9-C , 10-C ) :   1.4039 B(  9-C , 28-H ) :   0.9718 B( 10-C , 11-C ) :   1.3785 
B( 10-C , 29-H ) :   0.9751 B( 11-C , 12-C ) :   1.3842 B( 11-C , 30-H ) :   0.9757 
B( 12-C , 13-C ) :   1.3626 B( 12-C , 31-H ) :   0.9793 B( 13-C , 32-H ) :   0.9687 


-------
TIMINGS
-------

Total SCF time: 0 days 0 hours 0 min 3 sec 

Total time                  ....       3.635 sec
Sum of individual times     ....       3.567 sec  ( 98.1%)

SCF preparation             ....       0.100 sec  (  2.8%)
Fock matrix formation       ....       3.153 sec  ( 86.7%)
  Startup                   ....       0.016 sec  (  0.5% of F)
  Split-RI-J                ....       0.992 sec  ( 31.5% of F)
  XC integration            ....       2.079 sec  ( 65.9% of F)
    Basis function eval.    ....       0.639 sec  ( 30.7% of XC)
    Density eval.           ....       0.570 sec  ( 27.4% of XC)
    XC-Functional eval.     ....       0.057 sec  (  2.7% of XC)
    XC-Potential eval.      ....       0.439 sec  ( 21.1% of XC)
Diagonalization             ....       0.000 sec  (  0.0%)
Density matrix formation    ....       0.036 sec  (  1.0%)
Total Energy calculation    ....       0.017 sec  (  0.5%)
Population analysis         ....       0.074 sec  (  2.0%)
Orbital Transformation      ....       0.027 sec  (  0.7%)
Orbital Orthonormalization  ....       0.000 sec  (  0.0%)
DIIS solution               ....       0.031 sec  (  0.9%)
SOSCF solution              ....       0.129 sec  (  3.5%)
Finished LeanSCF after   3.7 sec

Maximum memory used throughout the entire LEANSCF-calculation: 30.9 MB


-------------------------------------------------------------------------------
                          DFT DISPERSION CORRECTION                            
                                                                               
                              DFTD3 V3.1  Rev 1                                
                          USING Becke-Johnson damping                          
-------------------------------------------------------------------------------
The BP86 functional is recognized
Active option DFTDOPT                   ...         4   

molecular C6(AA) [au] = 10961.841648 


            DFT-D V3
 parameters
 s6 scaling factor         :     1.0000 
 a1 scaling factor         :     0.3946 
 s8 scaling factor         :     3.2822 
 a2 scaling factor         :     4.8516 
 ad hoc parameters k1-k3   :    16.0000     1.3333    -4.0000 

 Edisp/kcal,au: -38.693494607493  -0.061662002056 
 E6   /kcal   : -14.498469523 
 E8   /kcal   : -24.195025084 
 % E8         :  62.529955822 

-------------------------   ----------------
Dispersion correction           -0.061662002
-------------------------   ----------------


-------------------------   --------------------
FINAL SINGLE POINT ENERGY      -884.921266437138
-------------------------   --------------------

                                *** OPTIMIZATION RUN DONE ***



           ************************************************************
           *        Program running with 6 parallel MPI-processes     *
           *              working on a common directory               *
           ************************************************************

------------------------------------------------------------------------------
                              ORCA PROPERTY CALCULATIONS
------------------------------------------------------------------------------

GBWName                                 ... data/geom_opt_PO_BP86/292611/292611.gbw
Number of atoms                         ...     33
Number of basis functions               ...    295
Max core memory                         ...   1024 MB

Electric properties:
Dipole moment                           ... YES
Quadrupole moment                       ...  NO
Static polarizability (Dipole/Dipole)   ...  NO
Static polarizability (Dipole/Quad.)    ...  NO
Static polarizability (Quad./Quad.)     ...  NO
Static polarizability (Velocity)        ...  NO

Atomic electric properties:
Dipole moment                           ...  NO
Quadrupole moment                       ...  NO
Static polarizability                   ...  NO

Choice of electric origin               ... Center of mass
Position of electric origin             ...     0.059085     0.211046     0.493664

General magnetic properties:
Magnetizability                         ...  NO

EPR properties:
g-Tensor (aka g-matrix)                 ...  NO
Zero-Field splitting spin-orbit         ...  NO
Zero-field splitting spin-spin          ...  NO
Hyperfine couplings                     ...  NO (   0 nuclei)
Quadrupole couplings                    ...  NO (   0 nuclei)
Contact density                         ...  NO (   0 nuclei)

NMR properties:
Chemical shifts                         ...  NO (   0 nuclei)
Spin-rotation constants                 ...  NO (   0 nuclei)
Spin-spin couplings                     ...  NO (   0 nuclei,    0 pairs)

Choice of magnetic origin               ... GIAO
Position of magnetic origin             ...     0.000000     0.000000     0.000000

Properties with geometric perturbations:
SCF Hessian                             ...  NO
IR spectrum                             ...  NO
VCD spectrum                            ...  NO
X-ray spectroscopy properties:
SCF XES/XAS/RIXS spectra                ...  NO


-------------
DIPOLE MOMENT
-------------

Method             : SCF
Type of density    : Electron Density
Multiplicity       :   1
Irrep              :   0
Energy             :  -884.8596044350816783 Eh
Relativity type    : 
Basis              : AO
                                X                 Y                 Z
Electronic contribution:      1.005339971       5.781584460       7.009782143
Nuclear contribution   :     -1.076449694      -5.072391074      -8.202220968
                        -----------------------------------------
Total Dipole Moment    :     -0.071109723       0.709193386      -1.192438825
                        -----------------------------------------
Magnitude (a.u.)       :      1.389216399
Magnitude (Debye)      :      3.531107464



--------------------
Rotational spectrum 
--------------------
 
Rotational constants in cm-1:             0.018131             0.017580             0.010998 
Rotational constants in MHz :           543.542558           527.043295           329.709765 

Dipole components along the rotational axes: 
x,y,z [a.u.] :     0.001842     0.459013    -1.311193 
x,y,z [Debye]:     0.004683     1.166718    -3.332787 

 

Dipole moment calculation done in   0.0 sec 

Maximum memory used throughout the entire PROP-calculation: 15.1 MB

--------------------------------
SUGGESTED CITATIONS FOR THIS RUN
--------------------------------

Below you find a list of papers that are relevant to this ORCA run
We neither can nor want to force you to cite these papers, but we appreciate if you do
You receive ORCA, which is the product of decades of hard work by many enthusiastic individuals, for free
The only thing we kindly ask in return is that you cite our papers,
We deeply appreciate it, if you show your appreciation for ORCA by not just citing the generic ORCA reference.

Please note that relegating all ORCA citations to the supporting information does *not* help us.
SI sections are not indexed - citations you put there will not count into any citation statistics
But we need these citations in order to attract the funding resources that allow us to do what we are doing

Therefore, if you are a happy ORCA user, please consider citing a few of the papers listed below in the main body of your paper

In addition to the list printed below, the program has created the file data/geom_opt_PO_BP86/292611/292611.bibtex that contains the list in bibtex format
You can import this file easily into all common literature databanks and citation aid programs


List of essential papers. We consider these as the minimum necessary citations

  1. Neese,F.
     Software update: the ORCA program system, version 5.0
     WIRES Comput. Molec. Sci., 2022 12(1)e1606
     doi.org/10.1002/wcms.1606

List of papers to cite with high priority. The work reported in these papers was absolutely
necessary for this run to complete.
Our perspective: the developers of density functionals and basis sets usually get cited in chemistry papers
Good! But without the algorithms to do something with them, the functionals or basis sets would not do anything.
Hence, in our opinion, the algorithm design and method developments papers are equally worthy of getting cited

  1. Neese,F.
     An improvement of the resolution of the identity approximation for the formation of the Coulomb matrix
     J. Comp. Chem., 2003 24(14)1740-1747
     doi.org/10.1002/jcc.10318
  2. Neese,F.
     The SHARK Integral Generation and Digestion System
     J. Comp. Chem., 2022  1-16
     doi.org/10.1002/jcc.26942
  3. Grimme,S.; Antony,J.; Ehrlich,S.; Krieg,H.
     A consistent and accurate ab initio parametrization of density functional dispersion correction (DFT-D) for the 94 elements H-Pu
     J. Chem. Phys., 2010 132 154104-XXXX
     doi.org/10.1063/1.3382344
  4. Grimme,S.; Ehrlich,S.; Goerigk,L.
     Effect of the damping function in dispersion corrected density functional theory
     J. Comput. Chem., 2011 32(7)1456-1465
     doi.org/10.1002/jcc.21759

List of suggested additional citations. These are papers that are important in the 'surrounding' of 
of this run, or papers that preceded the highly important papers. If you like your results we are grateful for a citation.

  1. Neese,F.
     The ORCA program system
     WIRES Comput. Molec. Sci., 2012 2(1)73-78
     doi.org/10.1002/wcms.81
  2. Neese,F.
     Software update: the ORCA program system, version 4.0
     WIRES Comput. Molec. Sci., 2018 8(1)1-6
     doi.org/10.1002/wcms.1327
  3. Neese,F.; Wennmohs,F.; Becker,U.; Riplinger,C.
     The ORCA quantum chemistry program package
     J. Chem. Phys., 2020 152 Art. No. L224108
     doi.org/10.1063/5.0004608

List of optional additional citations

  1. Neese,F.
     Approximate second-order SCF convergence for spin unrestricted wavefunctions
     Chem. Phys. Lett., 2000 325(1-3)93-98
     doi.org/10.1016/s0009-2614(00)00662-x

Timings for individual modules:

Sum of individual times          ...       99.917 sec (=   1.665 min)
Startup calculation              ...        8.843 sec (=   0.147 min)   8.9 %
SCF iterations                   ...       58.476 sec (=   0.975 min)  58.5 %
Property calculations            ...        0.158 sec (=   0.003 min)   0.2 %
SCF Gradient evaluation          ...       32.326 sec (=   0.539 min)  32.4 %
Geometry relaxation              ...        0.114 sec (=   0.002 min)   0.1 %
                             ****ORCA TERMINATED NORMALLY****
TOTAL RUN TIME: 0 days 0 hours 1 minutes 41 seconds 565 msec
