
                                 *****************
                                 * O   R   C   A *
                                 *****************

                                            #,                                       
                                            ###                                      
                                            ####                                     
                                            #####                                    
                                            ######                                   
                                           ########,                                 
                                     ,,################,,,,,                         
                               ,,#################################,,                 
                          ,,##########################################,,             
                       ,#########################################, ''#####,          
                    ,#############################################,,   '####,        
                  ,##################################################,,,,####,       
                ,###########''''           ''''###############################       
              ,#####''   ,,,,##########,,,,          '''####'''          '####       
            ,##' ,,,,###########################,,,                        '##       
           ' ,,###''''                  '''############,,,                           
         ,,##''                                '''############,,,,        ,,,,,,###''
      ,#''                                            '''#######################'''  
     '                                                          ''''####''''         
             ,#######,   #######,   ,#######,      ##                                
            ,#'     '#,  ##    ##  ,#'     '#,    #''#        ,####,   ,####,        
            ##       ##  ##   ,#'  ##            #'  '#       #'       #'  '#        
            ##       ##  #######   ##           ,######,      #####,   #    #        
            '#,     ,#'  ##    ##  '#,     ,#' ,#      #,     #,   #   #,  ,#        
             '#######'   ##     ##  '#######'  #'      '#     '####' # '####'        



                #########################################################
                #                        -***-                          #
                #          Department of theory and spectroscopy        #
                #                                                       #
                #                      Frank Neese                      #
                #                                                       #
                #     Directorship, Architecture, Infrastructure        #
                #                    SHARK, DRIVERS                     #
                #        Core code/Algorithms in most modules           #
                #                                                       #
                #        Max Planck Institute fuer Kohlenforschung      #
                #                Kaiser Wilhelm Platz 1                 #
                #                 D-45470 Muelheim/Ruhr                 #
                #                      Germany                          #
                #                                                       #
                #                  All rights reserved                  #
                #                        -***-                          #
                #########################################################


                         Program Version 6.0.0  -   RELEASE   -


 With contributions from (in alphabetic order):
   Daniel Aravena         : Magnetic Suceptibility
   Michael Atanasov       : Ab Initio Ligand Field Theory (pilot matlab implementation)
   Alexander A. Auer      : GIAO ZORA, VPT2 properties, NMR spectrum
   Ute Becker             : All parallelization in ORCA, NUMFREQ, NUMCALC
   Giovanni Bistoni       : ED, misc. LED, open-shell LED, HFLD
   Martin Brehm           : Molecular dynamics
   Dmytro Bykov           : pre 5.0 version of the SCF Hessian
   Marcos Casanova-Páez   : Triplet and SCS-CIS(D). UHF-(DLPNO)-IP/EA/STEOM-CCSD. UHF-CVS-IP/STEOM-CCSD
   Vijay G. Chilkuri      : MRCI spin determinant printing, contributions to CSF-ICE
   Pauline Colinet        : FMM embedding
   Dipayan Datta          : RHF DLPNO-CCSD density
   Achintya Kumar Dutta   : EOM-CC, STEOM-CC
   Nicolas Foglia         : Exact transition moments, OPA infrastructure, MCD improvements
   Dmitry Ganyushin       : Spin-Orbit,Spin-Spin,Magnetic field MRCI
   Miquel Garcia          : C-PCM and meta-GGA Hessian, CCSD/C-PCM, Gaussian charge scheme
   Tiago L. C. Gouveia    : GS-ROHF, GS-ROCIS
   Yang Guo               : DLPNO-NEVPT2, F12-NEVPT2, CIM, IAO-localization
   Andreas Hansen         : Spin unrestricted coupled pair/coupled cluster methods
   Ingolf Harden          : AUTO-CI MPn and infrastructure 
   Benjamin Helmich-Paris : MC-RPA, TRAH-(SCF,CASSCF), AVAS, COSX integrals, SCF dyn. polar.
   Lee Huntington         : MR-EOM, pCC
   Robert Izsak           : Overlap fitted RIJCOSX, COSX-SCS-MP3, EOM
   Riya Kayal             : Wick's Theorem for AUTO-CI, AUTO-CI UHF-CCSDT
   Emily Kempfer          : AUTO-CI, RHF CISDT and CCSDT
   Christian Kollmar      : KDIIS, OOCD, Brueckner-CCSD(T), CCSD density, CASPT2, CASPT2-K, improved NEVPT2
   Axel Koslowski         : Symmetry handling
   Simone Kossmann        : Meta GGA functionals, TD-DFT gradient, OOMP2, (MP2 Hessian; deprecated post 5.0)
   Lucas Lang             : DCDCAS
   Marvin Lechner         : AUTO-CI (C++ implementation), FIC-MRCC
   Spencer Leger          : CASSCF response
   Dagmar Lenk            : GEPOL surface, SMD, ORCA-2-JSON
   Dimitrios Liakos       : Extrapolation schemes; Compound Job, initial MDCI parallelization
   Dimitrios Manganas     : Further ROCIS development; embedding schemes. LFT, Crystal Embedding
   Dimitrios Pantazis     : SARC Basis sets
   Anastasios Papadopoulos: AUTO-CI, single reference methods and gradients
   Taras Petrenko         : pre 6.0 DFT Hessian and TD-DFT gradient, (ASA, deprecated), ECA, 1-Electron XAS/XES, NRVS
   Peter Pinski           : DLPNO-MP2, DLPNO-MP2 Gradient
   Christoph Reimann      : Effective Core Potentials
   Marius Retegan         : Local ZFS, SOC
   Christoph Riplinger    : Optimizer, TS searches, QM/MM, DLPNO-CCSD(T), (RO)-DLPNO pert. Triples
   Michael Roemelt        : Original ROCIS implementation
   Masaaki Saitow         : Open-shell DLPNO-CCSD energy and density
   Barbara Sandhoefer     : DKH picture change effects
   Kantharuban Sivalingam : CASSCF convergence/infrastructure, NEVPT2 and variants, FIC-MRCI
   Bernardo de Souza      : ESD, SOC TD-DFT
   Georgi Stoychev        : AutoAux, RI-MP2 NMR, DLPNO-MP2 response, X2C
   Van Anh Tran           : RI-MP2 g-tensors
   Willem Van den Heuvel  : Paramagnetic NMR
   Zikuan Wang            : NOTCH, Electric field optimization 
   Frank Wennmohs         : Technical directorship and infrastructure
   Hang Xu                : AUTO-CI-Response properties 


 We gratefully acknowledge several colleagues who have allowed us to
 interface, adapt or use parts of their codes:
   Stefan Grimme, W. Hujo, H. Kruse, P. Pracht,  : VdW corrections, initial TS optimization,
                  C. Bannwarth, S. Ehlert,         DFT functionals, gCP, sTDA/sTD-DF
                  L. Wittmann, M. Mueller
   Ed Valeev, F. Pavosevic, A. Kumar             : LibInt (2-el integral package), F12 methods
   Garnet Chan, S. Sharma, J. Yang, R. Olivares  : DMRG
   Ulf Ekstrom                                   : XCFun DFT Library
   Mihaly Kallay                                 : mrcc  (arbitrary order and MRCC methods)
   Frank Weinhold                                : gennbo (NPA and NBO analysis)
   Simon Mueller                                 : openCOSMO-RS
   Christopher J. Cramer and Donald G. Truhlar   : smd solvation model
   Lars Goerigk                                  : TD-DFT with DH, B97 family of functionals
   V. Asgeirsson, H. Jonsson                     : NEB implementation
   FAccTs GmbH                                   : IRC, NEB, NEB-TS, DLPNO-Multilevel, CI-OPT
                                                   MM, QMMM, 2- and 3-layer-ONIOM, Crystal-QMMM,
                                                   LR-CPCM, SF, NACMEs, symmetry and pop. for TD-DFT,
                                                   nearIR, NL-DFT gradient (VV10), updates on ESD,
                                                   ML-optimized integration grids, MBIS, APM,
                                                   GOAT, DOCKER, SOLVATOR, interface openCOSMO-RS
   S Lehtola, MJT Oliveira, MAL Marques          : LibXC Library
   Liviu Ungur et al                             : ANISO software


 Your calculation uses the libint2 library for the computation of 2-el integrals
 For citations please refer to: http://libint.valeyev.net

 Your ORCA version has been built with support for libXC version: 6.2.2
 For citations please refer to: https://libxc.gitlab.io

 This ORCA versions uses:
   CBLAS   interface :  Fast vector & matrix operations
   LAPACKE interface :  Fast linear algebra routines
   Shared memory     :  Shared parallel matrices


Your calculation utilizes the atom-pairwise dispersion correction
with the Becke-Johnson damping scheme (D3BJ)


Warning: RI is on but no J-basis has been assigned. Assigning Def2/J (nothing to worry about!)
================================================================================

----- Orbital basis set information -----
Your calculation utilizes the basis: def2-SVP
   F. Weigend and R. Ahlrichs, Phys. Chem. Chem. Phys. 7, 3297 (2005).

----- AuxJ basis set information -----
Your calculation utilizes the auxiliary basis: def2/J
   F. Weigend, Phys. Chem. Chem. Phys. 8, 1057 (2006).

================================================================================
                                        WARNINGS
                       Please study these warnings very carefully!
================================================================================


WARNING: Geometry Optimization
  ===> : Switching off AutoStart
         For restart on a previous wavefunction, please use MOREAD

================================================================================
                                       INPUT FILE
================================================================================
NAME = data/geom_opt/11776/11776.inp
|  1> ! RIJONX B3LYP def2-SVP D3BJ TIGHTSCF Opt
|  2> %pal
|  3> nprocs 6
|  4> end
|  5> 
|  6> * xyz 0 1
|  7> C     -2.770365   -3.236144   -0.608013
|  8> C     -1.990317   -3.526482    0.506803
|  9> C     -1.178125   -2.537240    1.068385
| 10> C     -1.127785   -1.240494    0.525182
| 11> C     -1.924284   -0.969186   -0.597142
| 12> C     -2.737758   -1.958559   -1.159493
| 13> P     -0.038247   -0.020818    1.330177
| 14> C      1.605642   -0.356379    0.617614
| 15> C      2.721520    0.248737    1.224082
| 16> C      4.013995    0.038643    0.735209
| 17> C      4.215085   -0.783767   -0.368779
| 18> C      3.125091   -1.394681   -0.982061
| 19> C      1.831820   -1.183544   -0.492464
| 20> C     -0.527577    1.569809    0.586414
| 21> C     -1.641799    2.234991    1.129731
| 22> C     -2.077040    3.458845    0.613617
| 23> C     -1.403557    4.042318   -0.454823
| 24> C     -0.296843    3.402446   -1.005427
| 25> C      0.137850    2.177380   -0.488619
| 26> H     -3.403469   -4.003160   -1.045838
| 27> H     -2.011656   -4.521745    0.942859
| 28> H     -0.577129   -2.792504    1.939730
| 29> H     -1.925742    0.013244   -1.062219
| 30> H     -3.346110   -1.726215   -2.029893
| 31> H      2.593191    0.898165    2.088589
| 32> H      4.860730    0.518086    1.219283
| 33> H      5.219029   -0.949583   -0.750125
| 34> H      3.276861   -2.039028   -1.844300
| 35> H      1.009200   -1.676370   -1.004210
| 36> H     -2.188405    1.800623    1.965282
| 37> H     -2.941407    3.953493    1.048754
| 38> H     -1.739275    4.994269   -0.857200
| 39> H      0.233548    3.854583   -1.839650
| 40> H      1.003328    1.710264   -0.951453
| 41> **                         ****END OF INPUT****
================================================================================

                       *****************************
                       * Geometry Optimization Run *
                       *****************************

Geometry optimization settings:
Update method            Update   .... BFGS
Choice of coordinates    CoordSys .... (2022) Redundant Internals
Initial Hessian          InHess   .... Almloef's Model
Max. no of cycles        MaxIter  .... 102

Convergence Tolerances:
Energy Change            TolE     ....  5.0000e-06 Eh
Max. Gradient            TolMAXG  ....  3.0000e-04 Eh/bohr
RMS Gradient             TolRMSG  ....  1.0000e-04 Eh/bohr
Max. Displacement        TolMAXD  ....  4.0000e-03 bohr
RMS Displacement         TolRMSD  ....  2.0000e-03 bohr
Strict Convergence                .... False

------------------------------------------------------------------------------
                        ORCA OPTIMIZATION COORDINATE SETUP
------------------------------------------------------------------------------

The optimization will be done in redundant internal coordinates (2022)
Making redundant internal coordinates   ...  (2022 redundants) done
Evaluating the initial hessian          ...  (Almloef) done
Evaluating the coordinates              ...  done
Calculating the B-matrix                .... done
Calculating the G-matrix                .... done
Diagonalizing the G-matrix              .... done
Small eigenvalue found = 5.617e-03
Small eigenvalue found = 5.617e-03
Small eigenvalue found = 1.062e-02
The first mode is                       ....   81
The number of degrees of freedom        ....   96

    -----------------------------------------------------------------
                    Redundant Internal Coordinates


    -----------------------------------------------------------------
         Definition                    Initial Value    Approx d2E/dq
    -----------------------------------------------------------------
      1. B(C   1,C   0)                  1.3913         0.621926   
      2. B(C   2,C   1)                  1.3977         0.607319   
      3. B(C   3,C   2)                  1.4068         0.587350   
      4. B(C   4,C   3)                  1.4027         0.596267   
      5. B(C   5,C   4)                  1.3989         0.604765   
      6. B(C   5,C   0)                  1.3919         0.620425   
      7. B(P   6,C   3)                  1.8228         0.428228   
      8. B(C   7,P   6)                  1.8228         0.428229   
      9. B(C   8,C   7)                  1.4068         0.587351   
     10. B(C   9,C   8)                  1.3977         0.607321   
     11. B(C  10,C   9)                  1.3913         0.621927   
     12. B(C  11,C  10)                  1.3919         0.620424   
     13. B(C  12,C  11)                  1.3989         0.604768   
     14. B(C  12,C   7)                  1.4027         0.596266   
     15. B(C  13,P   6)                  1.8228         0.428227   
     16. B(C  14,C  13)                  1.4068         0.587352   
     17. B(C  15,C  14)                  1.3977         0.607321   
     18. B(C  16,C  15)                  1.3913         0.621928   
     19. B(C  17,C  16)                  1.3919         0.620425   
     20. B(C  18,C  17)                  1.3989         0.604767   
     21. B(C  18,C  13)                  1.4027         0.596266   
     22. B(H  19,C   0)                  1.0867         0.364549   
     23. B(H  20,C   1)                  1.0868         0.364349   
     24. B(H  21,C   2)                  1.0889         0.361622   
     25. B(H  22,C   4)                  1.0870         0.364153   
     26. B(H  23,C   5)                  1.0870         0.364027   
     27. B(H  24,C   8)                  1.0889         0.361623   
     28. B(H  25,C   9)                  1.0868         0.364346   
     29. B(H  26,C  10)                  1.0867         0.364550   
     30. B(H  27,C  11)                  1.0870         0.364026   
     31. B(H  28,C  12)                  1.0870         0.364155   
     32. B(H  29,C  14)                  1.0889         0.361622   
     33. B(H  30,C  15)                  1.0868         0.364348   
     34. B(H  31,C  16)                  1.0867         0.364549   
     35. B(H  32,C  17)                  1.0870         0.364028   
     36. B(H  33,C  18)                  1.0870         0.364155   
     37. A(C   5,C   0,H  19)          120.1249         0.353684   
     38. A(C   1,C   0,H  19)          120.1464         0.353829   
     39. A(C   1,C   0,C   5)          119.7286         0.434362   
     40. A(C   2,C   1,H  20)          119.8903         0.352376   
     41. A(C   0,C   1,C   2)          120.0034         0.432697   
     42. A(C   0,C   1,H  20)          120.1063         0.353796   
     43. A(C   1,C   2,C   3)          121.2002         0.428276   
     44. A(C   3,C   2,H  21)          120.3532         0.349946   
     45. A(C   1,C   2,H  21)          118.4462         0.351928   
     46. A(C   2,C   3,P   6)          117.8803         0.429113   
     47. A(C   2,C   3,C   4)          117.8332         0.426869   
     48. A(C   4,C   3,P   6)          124.2858         0.430275   
     49. A(C   5,C   4,H  22)          117.8053         0.352093   
     50. A(C   3,C   4,C   5)          121.0009         0.429111   
     51. A(C   3,C   4,H  22)          121.1928         0.351251   
     52. A(C   0,C   5,C   4)          120.2332         0.432182   
     53. A(C   0,C   5,H  23)          120.0207         0.353599   
     54. A(C   4,C   5,H  23)          119.7460         0.352072   
     55. A(C   3,P   6,C   7)          104.0774         0.432542   
     56. A(C   3,P   6,C  13)          104.0772         0.432542   
     57. A(C   7,P   6,C  13)          104.0771         0.432542   
     58. A(C   8,C   7,C  12)          117.8332         0.426869   
     59. A(P   6,C   7,C  12)          124.2859         0.430275   
     60. A(P   6,C   7,C   8)          117.8802         0.429113   
     61. A(C   7,C   8,C   9)          121.2002         0.428276   
     62. A(C   9,C   8,H  24)          118.4462         0.351929   
     63. A(C   7,C   8,H  24)          120.3533         0.349946   
     64. A(C  10,C   9,H  25)          120.1063         0.353796   
     65. A(C   8,C   9,H  25)          119.8902         0.352375   
     66. A(C   8,C   9,C  10)          120.0036         0.432697   
     67. A(C   9,C  10,C  11)          119.7284         0.434362   
     68. A(C  11,C  10,H  26)          120.1250         0.353685   
     69. A(C   9,C  10,H  26)          120.1465         0.353829   
     70. A(C  12,C  11,H  27)          119.7461         0.352072   
     71. A(C  10,C  11,H  27)          120.0206         0.353598   
     72. A(C  10,C  11,C  12)          120.2333         0.432182   
     73. A(C  11,C  12,H  28)          117.8053         0.352093   
     74. A(C   7,C  12,H  28)          121.1928         0.351251   
     75. A(C   7,C  12,C  11)          121.0008         0.429111   
     76. A(C  14,C  13,C  18)          117.8332         0.426869   
     77. A(P   6,C  13,C  18)          124.2859         0.430274   
     78. A(P   6,C  13,C  14)          117.8802         0.429113   
     79. A(C  15,C  14,H  29)          118.4462         0.351928   
     80. A(C  13,C  14,H  29)          120.3533         0.349946   
     81. A(C  13,C  14,C  15)          121.2002         0.428277   
     82. A(C  16,C  15,H  30)          120.1063         0.353796   
     83. A(C  14,C  15,H  30)          119.8902         0.352376   
     84. A(C  14,C  15,C  16)          120.0035         0.432697   
     85. A(C  17,C  16,H  31)          120.1250         0.353684   
     86. A(C  15,C  16,H  31)          120.1465         0.353829   
     87. A(C  15,C  16,C  17)          119.7285         0.434362   
     88. A(C  18,C  17,H  32)          119.7460         0.352072   
     89. A(C  16,C  17,H  32)          120.0206         0.353599   
     90. A(C  16,C  17,C  18)          120.2333         0.432182   
     91. A(C  17,C  18,H  33)          117.8054         0.352093   
     92. A(C  13,C  18,H  33)          121.1928         0.351251   
     93. A(C  13,C  18,C  17)          121.0008         0.429111   
     94. D(H  20,C   1,C   0,C   5)    179.9512         0.026775   
     95. D(C   2,C   1,C   0,H  19)   -179.9333         0.026775   
     96. D(H  20,C   1,C   0,H  19)      0.0250         0.026775   
     97. D(C   2,C   1,C   0,C   5)     -0.0070         0.026775   
     98. D(C   3,C   2,C   1,C   0)     -0.1387         0.025461   
     99. D(C   3,C   2,C   1,H  20)    179.9030         0.025461   
    100. D(H  21,C   2,C   1,C   0)   -179.9204         0.025461   
    101. D(H  21,C   2,C   1,H  20)      0.1213         0.025461   
    102. D(P   6,C   3,C   2,H  21)     -0.2523         0.023730   
    103. D(C   4,C   3,C   2,C   1)      0.2542         0.023730   
    104. D(C   4,C   3,C   2,H  21)   -179.9681         0.023730   
    105. D(P   6,C   3,C   2,C   1)    179.9701         0.023730   
    106. D(H  22,C   4,C   3,C   2)   -179.8503         0.024493   
    107. D(C   5,C   4,C   3,C   2)     -0.2314         0.024493   
    108. D(C   5,C   4,C   3,P   6)   -179.9274         0.024493   
    109. D(H  22,C   4,C   3,P   6)      0.4537         0.024493   
    110. D(H  23,C   5,C   4,H  22)     -0.3101         0.025235   
    111. D(C   0,C   5,C   4,H  22)    179.7254         0.025235   
    112. D(H  23,C   5,C   0,H  19)     -0.0090         0.026638   
    113. D(H  23,C   5,C   0,C   1)   -179.9353         0.026638   
    114. D(C   4,C   5,C   0,H  19)    179.9554         0.026638   
    115. D(H  23,C   5,C   4,C   3)   -179.9415         0.025235   
    116. D(C   4,C   5,C   0,C   1)      0.0292         0.026638   
    117. D(C   0,C   5,C   4,C   3)      0.0939         0.025235   
    118. D(C  13,P   6,C   3,C   4)     11.7312         0.003783   
    119. D(C  13,P   6,C   3,C   2)   -167.9647         0.003783   
    120. D(C   7,P   6,C   3,C   4)    -97.0167         0.003783   
    121. D(C   7,P   6,C   3,C   2)     83.2875         0.003783   
    122. D(C  12,C   7,P   6,C   3)     11.7287         0.003783   
    123. D(C   8,C   7,P   6,C  13)     83.2851         0.003783   
    124. D(C   8,C   7,P   6,C   3)   -167.9670         0.003783   
    125. D(C  12,C   7,P   6,C  13)    -97.0191         0.003783   
    126. D(H  24,C   8,C   7,C  12)   -179.9682         0.023730   
    127. D(H  24,C   8,C   7,P   6)     -0.2524         0.023730   
    128. D(C   9,C   8,C   7,C  12)      0.2544         0.023730   
    129. D(C   9,C   8,C   7,P   6)    179.9701         0.023730   
    130. D(H  25,C   9,C   8,H  24)      0.1215         0.025461   
    131. D(H  25,C   9,C   8,C   7)    179.9032         0.025461   
    132. D(C  10,C   9,C   8,H  24)   -179.9204         0.025461   
    133. D(C  10,C   9,C   8,C   7)     -0.1387         0.025461   
    134. D(H  26,C  10,C   9,H  25)      0.0248         0.026775   
    135. D(H  26,C  10,C   9,C   8)   -179.9333         0.026775   
    136. D(C  11,C  10,C   9,H  25)    179.9511         0.026775   
    137. D(C  11,C  10,C   9,C   8)     -0.0069         0.026775   
    138. D(H  27,C  11,C  10,H  26)     -0.0088         0.026638   
    139. D(H  27,C  11,C  10,C   9)   -179.9352         0.026638   
    140. D(C  12,C  11,C  10,H  26)    179.9553         0.026638   
    141. D(C  12,C  11,C  10,C   9)      0.0289         0.026638   
    142. D(H  28,C  12,C  11,H  27)     -0.3099         0.025235   
    143. D(C   7,C  12,C  11,H  27)   -179.9416         0.025235   
    144. D(C   7,C  12,C  11,C  10)      0.0942         0.025235   
    145. D(H  28,C  12,C   7,C   8)   -179.8507         0.024493   
    146. D(H  28,C  12,C   7,P   6)      0.4534         0.024493   
    147. D(H  28,C  12,C  11,C  10)    179.7258         0.025235   
    148. D(C  11,C  12,C   7,C   8)     -0.2316         0.024493   
    149. D(C  11,C  12,C   7,P   6)   -179.9275         0.024493   
    150. D(C  18,C  13,P   6,C   7)     11.7318         0.003783   
    151. D(C  18,C  13,P   6,C   3)    -97.0163         0.003783   
    152. D(C  14,C  13,P   6,C   7)   -167.9642         0.003783   
    153. D(C  14,C  13,P   6,C   3)     83.2877         0.003783   
    154. D(H  29,C  14,C  13,P   6)     -0.2521         0.023730   
    155. D(C  15,C  14,C  13,C  18)      0.2543         0.023730   
    156. D(C  15,C  14,C  13,P   6)    179.9702         0.023730   
    157. D(H  29,C  14,C  13,C  18)   -179.9680         0.023730   
    158. D(H  30,C  15,C  14,H  29)      0.1213         0.025461   
    159. D(H  30,C  15,C  14,C  13)    179.9032         0.025461   
    160. D(C  16,C  15,C  14,H  29)   -179.9206         0.025461   
    161. D(C  16,C  15,C  14,C  13)     -0.1387         0.025461   
    162. D(H  31,C  16,C  15,H  30)      0.0248         0.026775   
    163. D(H  31,C  16,C  15,C  14)   -179.9332         0.026775   
    164. D(C  17,C  16,C  15,H  30)    179.9510         0.026775   
    165. D(C  17,C  16,C  15,C  14)     -0.0070         0.026775   
    166. D(H  32,C  17,C  16,H  31)     -0.0092         0.026638   
    167. D(H  32,C  17,C  16,C  15)   -179.9355         0.026638   
    168. D(C  18,C  17,C  16,H  31)    179.9555         0.026638   
    169. D(C  18,C  17,C  16,C  15)      0.0292         0.026638   
    170. D(H  33,C  18,C  17,H  32)     -0.3099         0.025235   
    171. D(H  33,C  18,C  17,C  16)    179.7254         0.025235   
    172. D(C  13,C  18,C  17,H  32)   -179.9414         0.025235   
    173. D(C  13,C  18,C  17,C  16)      0.0939         0.025235   
    174. D(H  33,C  18,C  13,C  14)   -179.8504         0.024493   
    175. D(H  33,C  18,C  13,P   6)      0.4535         0.024493   
    176. D(C  17,C  18,C  13,C  14)     -0.2314         0.024493   
    177. D(C  17,C  18,C  13,P   6)   -179.9275         0.024493   
    -----------------------------------------------------------------

Number of atoms                         .... 34
Number of degrees of freedom            .... 177


         *************************************************************
         *                GEOMETRY OPTIMIZATION CYCLE   1            *
         *************************************************************
---------------------------------
CARTESIAN COORDINATES (ANGSTROEM)
---------------------------------
  C     -2.770365   -3.236144   -0.608013
  C     -1.990317   -3.526482    0.506803
  C     -1.178125   -2.537240    1.068385
  C     -1.127785   -1.240494    0.525182
  C     -1.924284   -0.969186   -0.597142
  C     -2.737758   -1.958559   -1.159493
  P     -0.038247   -0.020818    1.330177
  C      1.605642   -0.356379    0.617614
  C      2.721520    0.248737    1.224082
  C      4.013995    0.038643    0.735209
  C      4.215085   -0.783767   -0.368779
  C      3.125091   -1.394681   -0.982061
  C      1.831820   -1.183544   -0.492464
  C     -0.527577    1.569809    0.586414
  C     -1.641799    2.234991    1.129731
  C     -2.077040    3.458845    0.613617
  C     -1.403557    4.042318   -0.454823
  C     -0.296843    3.402446   -1.005427
  C      0.137850    2.177380   -0.488619
  H     -3.403469   -4.003160   -1.045838
  H     -2.011656   -4.521745    0.942859
  H     -0.577129   -2.792504    1.939730
  H     -1.925742    0.013244   -1.062219
  H     -3.346110   -1.726215   -2.029893
  H      2.593191    0.898165    2.088589
  H      4.860730    0.518086    1.219283
  H      5.219029   -0.949583   -0.750125
  H      3.276861   -2.039028   -1.844300
  H      1.009200   -1.676370   -1.004210
  H     -2.188405    1.800623    1.965282
  H     -2.941407    3.953493    1.048754
  H     -1.739275    4.994269   -0.857200
  H      0.233548    3.854583   -1.839650
  H      1.003328    1.710264   -0.951453

----------------------------
CARTESIAN COORDINATES (A.U.)
----------------------------
  NO LB      ZA    FRAG     MASS         X           Y           Z
   0 C     6.0000    0    12.011   -5.235231   -6.115426   -1.148978
   1 C     6.0000    0    12.011   -3.761154   -6.664085    0.957719
   2 C     6.0000    0    12.011   -2.226334   -4.794689    2.018955
   3 C     6.0000    0    12.011   -2.131205   -2.344194    0.992450
   4 C     6.0000    0    12.011   -3.636370   -1.831496   -1.128435
   5 C     6.0000    0    12.011   -5.173613   -3.701140   -2.191124
   6 P    15.0000    0    30.974   -0.072276   -0.039340    2.513670
   7 C     6.0000    0    12.011    3.034224   -0.673459    1.167121
   8 C     6.0000    0    12.011    5.142927    0.470045    2.313180
   9 C     6.0000    0    12.011    7.585351    0.073025    1.389344
  10 C     6.0000    0    12.011    7.965356   -1.481105   -0.696891
  11 C     6.0000    0    12.011    5.905566   -2.635565   -1.855826
  12 C     6.0000    0    12.011    3.461638   -2.236574   -0.930622
  13 C     6.0000    0    12.011   -0.996976    2.966509    1.108162
  14 C     6.0000    0    12.011   -3.102550    4.223521    2.134882
  15 C     6.0000    0    12.011   -3.925037    6.536270    1.159568
  16 C     6.0000    0    12.011   -2.652338    7.638874   -0.859491
  17 C     6.0000    0    12.011   -0.560952    6.429691   -1.899982
  18 C     6.0000    0    12.011    0.260499    4.114652   -0.923356
  19 H     1.0000    0     1.008   -6.431624   -7.564876   -1.976347
  20 H     1.0000    0     1.008   -3.801479   -8.544860    1.781745
  21 H     1.0000    0     1.008   -1.090616   -5.277068    3.665558
  22 H     1.0000    0     1.008   -3.639125    0.025028   -2.007303
  23 H     1.0000    0     1.008   -6.323232   -3.262074   -3.835942
  24 H     1.0000    0     1.008    4.900421    1.697286    3.946861
  25 H     1.0000    0     1.008    9.185449    0.979041    2.304111
  26 H     1.0000    0     1.008    9.862535   -1.794452   -1.417531
  27 H     1.0000    0     1.008    6.192370   -3.853204   -3.485222
  28 H     1.0000    0     1.008    1.907112   -3.167880   -1.897682
  29 H     1.0000    0     1.008   -4.135486    3.402684    3.713845
  30 H     1.0000    0     1.008   -5.558454    7.471019    1.981858
  31 H     1.0000    0     1.008   -3.286753    9.437801   -1.619873
  32 H     1.0000    0     1.008    0.441342    7.284106   -3.476435
  33 H     1.0000    0     1.008    1.896015    3.231931   -1.797986

--------------------------------
INTERNAL COORDINATES (ANGSTROEM)
--------------------------------
 C      0   0   0     0.000000000000     0.00000000     0.00000000
 C      1   0   0     1.391253302028     0.00000000     0.00000000
 C      2   1   0     1.397723120705   120.00344812     0.00000000
 C      3   2   1     1.406824012919   121.20019355   359.86132100
 C      4   3   2     1.402722299260   117.83321855     0.25423653
 C      1   2   3     1.391911218100   119.72857967     0.00000000
 P      4   3   2     1.822832836122   117.88028393   179.97008045
 C      7   4   3     1.822832482158   104.07742102    83.28747366
 C      8   7   4     1.406823556586   117.88024818   192.03301053
 C      9   8   7     1.397722406127   121.20018923   179.97006599
 C     10   9   8     1.391252996527   120.00355156   359.86127780
 C     11  10   9     1.391911508306   119.72843289     0.00000000
 C     12  11  10     1.398868805363   120.23334188     0.02892530
 C      7   4   3     1.822833372033   104.07716989   192.03531574
 C     14   7   4     1.406823059555   117.88024501    83.28774385
 C     15  14   7     1.397722076234   121.20020601   179.97020513
 C     16  15  14     1.391252718458   120.00350007   359.86126426
 C     17  16  15     1.391911210888   119.72849785     0.00000000
 C     18  17  16     1.398869263895   120.23332631     0.02916215
 H      1   2   3     1.086657696654   120.14644162   180.06674723
 H      2   1   3     1.086806619057   120.10628599   179.95822133
 H      3   2   1     1.088851693637   118.44619705   180.07957070
 H      5   4   3     1.086953286298   121.19284012   180.14967922
 H      6   1   2     1.087047400181   120.02073370   180.06467962
 H      9   8   7     1.088851418915   120.35326415   359.74755926
 H     10   9   8     1.086808809290   119.89015481   179.90315762
 H     11  10   9     1.086656925026   120.14653000   180.06673905
 H     12  11  10     1.087047966941   120.02057853   180.06478662
 H     13  12  11     1.086952206489   117.80532266   179.72582802
 H     15  14   7     1.088852217824   120.35325664   359.74790228
 H     16  15  14     1.086807785840   119.89017534   179.90317764
 H     17  16  15     1.086657504485   120.14650920   180.06675642
 H     18  17  16     1.087046684084   120.02062412   180.06454165
 H     19  18  17     1.086952086109   117.80537419   179.72539223

---------------------------
INTERNAL COORDINATES (A.U.)
---------------------------
 C      0   0   0     0.000000000000     0.00000000     0.00000000
 C      1   0   0     2.629087723747     0.00000000     0.00000000
 C      2   1   0     2.641313909181   120.00344812     0.00000000
 C      3   2   1     2.658512103041   121.20019355   359.86132100
 C      4   3   2     2.650760987546   117.83321855     0.25423653
 C      1   2   3     2.630331004943   119.72857967     0.00000000
 P      4   3   2     3.444654848190   117.88028393   179.97008045
 C      7   4   3     3.444654179295   104.07742102    83.28747366
 C      8   7   4     2.658511240696   117.88024818   192.03301053
 C      9   8   7     2.641312558826   121.20018923   179.97006599
 C     10   9   8     2.629087146432   120.00355156   359.86127780
 C     11  10   9     2.630331553352   119.72843289     0.00000000
 C     12  11  10     2.643478939423   120.23334188     0.02892530
 C      7   4   3     3.444655860915   104.07716989   192.03531574
 C     14   7   4     2.658510301445   117.88024501    83.28774385
 C     15  14   7     2.641311935419   121.20020601   179.97020513
 C     16  15  14     2.629086620960   120.00350007   359.86126426
 C     17  16  15     2.630330991313   119.72849785     0.00000000
 C     18  17  16     2.643479805921   120.23332631     0.02916215
 H      1   2   3     2.053485447993   120.14644162   180.06674723
 H      2   1   3     2.053766870551   120.10628599   179.95822133
 H      3   2   1     2.057631501431   118.44619705   180.07957070
 H      5   4   3     2.054044031468   121.19284012   180.14967922
 H      6   1   2     2.054221880933   120.02073370   180.06467962
 H      9   8   7     2.057630982282   120.35326415   359.74755926
 H     10   9   8     2.053771009491   119.89015481   179.90315762
 H     11  10   9     2.053483989829   120.14653000   180.06673905
 H     12  11  10     2.054222951954   120.02057853   180.06478662
 H     13  12  11     2.054041990926   117.80532266   179.72582802
 H     15  14   7     2.057632492001   120.35325664   359.74790228
 H     16  15  14     2.053769075451   119.89017534   179.90317764
 H     17  16  15     2.053485084847   120.14650920   180.06675642
 H     18  17  16     2.054220527707   120.02062412   180.06454165
 H     19  18  17     2.054041763440   117.80537419   179.72539223

---------------------
BASIS SET INFORMATION
---------------------
There are 3 groups of distinct atoms

 Group   1 Type C   : 7s4p1d contracted to 3s2p1d pattern {511/31/1}
 Group   2 Type P   : 10s7p1d contracted to 4s3p1d pattern {5311/511/1}
 Group   3 Type H   : 4s1p contracted to 2s1p pattern {31/1}

Atom   0C    basis set group =>   1
Atom   1C    basis set group =>   1
Atom   2C    basis set group =>   1
Atom   3C    basis set group =>   1
Atom   4C    basis set group =>   1
Atom   5C    basis set group =>   1
Atom   6P    basis set group =>   2
Atom   7C    basis set group =>   1
Atom   8C    basis set group =>   1
Atom   9C    basis set group =>   1
Atom  10C    basis set group =>   1
Atom  11C    basis set group =>   1
Atom  12C    basis set group =>   1
Atom  13C    basis set group =>   1
Atom  14C    basis set group =>   1
Atom  15C    basis set group =>   1
Atom  16C    basis set group =>   1
Atom  17C    basis set group =>   1
Atom  18C    basis set group =>   1
Atom  19H    basis set group =>   3
Atom  20H    basis set group =>   3
Atom  21H    basis set group =>   3
Atom  22H    basis set group =>   3
Atom  23H    basis set group =>   3
Atom  24H    basis set group =>   3
Atom  25H    basis set group =>   3
Atom  26H    basis set group =>   3
Atom  27H    basis set group =>   3
Atom  28H    basis set group =>   3
Atom  29H    basis set group =>   3
Atom  30H    basis set group =>   3
Atom  31H    basis set group =>   3
Atom  32H    basis set group =>   3
Atom  33H    basis set group =>   3
---------------------------------
AUXILIARY/J BASIS SET INFORMATION
---------------------------------
There are 3 groups of distinct atoms

 Group   1 Type C   : 12s5p4d2f1g contracted to 6s4p3d1f1g pattern {711111/2111/211/2/1}
 Group   2 Type P   : 14s5p5d2f1g contracted to 8s4p3d1f1g pattern {71111111/2111/311/2/1}
 Group   3 Type H   : 5s2p1d contracted to 3s1p1d pattern {311/2/1}

Atom   0C    basis set group =>   1
Atom   1C    basis set group =>   1
Atom   2C    basis set group =>   1
Atom   3C    basis set group =>   1
Atom   4C    basis set group =>   1
Atom   5C    basis set group =>   1
Atom   6P    basis set group =>   2
Atom   7C    basis set group =>   1
Atom   8C    basis set group =>   1
Atom   9C    basis set group =>   1
Atom  10C    basis set group =>   1
Atom  11C    basis set group =>   1
Atom  12C    basis set group =>   1
Atom  13C    basis set group =>   1
Atom  14C    basis set group =>   1
Atom  15C    basis set group =>   1
Atom  16C    basis set group =>   1
Atom  17C    basis set group =>   1
Atom  18C    basis set group =>   1
Atom  19H    basis set group =>   3
Atom  20H    basis set group =>   3
Atom  21H    basis set group =>   3
Atom  22H    basis set group =>   3
Atom  23H    basis set group =>   3
Atom  24H    basis set group =>   3
Atom  25H    basis set group =>   3
Atom  26H    basis set group =>   3
Atom  27H    basis set group =>   3
Atom  28H    basis set group =>   3
Atom  29H    basis set group =>   3
Atom  30H    basis set group =>   3
Atom  31H    basis set group =>   3
Atom  32H    basis set group =>   3
Atom  33H    basis set group =>   3


           ************************************************************
           *        Program running with 6 parallel MPI-processes     *
           *              working on a common directory               *
           ************************************************************
------------------------------------------------------------------------------
                             ORCA STARTUP CALCULATIONS
                           -- RI-GTO INTEGRALS CHOSEN --
------------------------------------------------------------------------------
------------------------------------------------------------------------------
                   ___                                                        
                  /   \      - P O W E R E D   B Y -                         
                 /     \                                                     
                 |  |  |   _    _      __       _____    __    __             
                 |  |  |  | |  | |    /  \     |  _  \  |  |  /  |          
                  \  \/   | |  | |   /    \    | | | |  |  | /  /          
                 / \  \   | |__| |  /  /\  \   | |_| |  |  |/  /          
                |  |  |   |  __  | /  /__\  \  |    /   |      \           
                |  |  |   | |  | | |   __   |  |    \   |  |\   \          
                \     /   | |  | | |  |  |  |  | |\  \  |  | \   \       
                 \___/    |_|  |_| |__|  |__|  |_| \__\ |__|  \__/        
                                                                              
                      - O R C A' S   B I G   F R I E N D -                    
                                      &                                       
                       - I N T E G R A L  F E E D E R -                       
                                                                              
 v1 FN, 2020, v2 2021, v3 2022-2024                                           
------------------------------------------------------------------------------


----------------------
SHARK INTEGRAL PACKAGE
----------------------

Number of atoms                             ...     34
Number of basis functions                   ...    345
Number of shells                            ...    161
Maximum angular momentum                    ...      2
Integral batch strategy                     ... SHARK/LIBINT Hybrid
RI-J (if used) integral strategy            ... SPLIT-RIJ (Revised 2003 algorithm where possible)
Printlevel                                  ...      1
Contraction scheme used                     ... SEGMENTED contraction
Prescreening option                         ... SCHWARTZ
   Thresh                                   ... 2.500e-11
   Tcut                                     ... 2.500e-12
   Tpresel                                  ... 2.500e-12 
Coulomb Range Separation                    ... NOT USED
Exchange Range Separation                   ... NOT USED
Multipole approximations                    ... NOT USED
Finite Nucleus Model                        ... NOT USED
CABS basis                                  ... NOT available
Auxiliary Coulomb fitting basis             ... AVAILABLE
   # of basis functions in Aux-J            ...   1098
   # of shells in Aux-J                     ...    362
   Maximum angular momentum in Aux-J        ...      4
Auxiliary J/K fitting basis                 ... NOT available
Auxiliary Correlation fitting basis         ... NOT available
Auxiliary 'external' fitting basis          ... NOT available

Checking pre-screening integrals            ... done (  0.0 sec) Dimension = 161
Check shell pair data                       ... done (  0.0 sec)
Shell pair information
Shell pair cut-off parameter TPreSel        ...   2.5e-12
Total number of shell pairs                 ...     13041
Shell pairs after pre-screening             ...     10274
Total number of primitive shell pairs       ...     48197
Primitive shell pairs kept                  ...     24544
          la=0 lb=0:   3154 shell pairs
          la=1 lb=0:   3830 shell pairs
          la=1 lb=1:   1194 shell pairs
          la=2 lb=0:   1222 shell pairs
          la=2 lb=1:    756 shell pairs
          la=2 lb=2:    118 shell pairs

Calculating one electron integrals          ... done (  0.0 sec)
Calculating RI/J V-Matrix + Cholesky decomp.... done (  0.1 sec)
Calculating Nuclear repulsion               ... done (  0.0 sec) ENN=   1404.635941162027 Eh

Diagonalization of the overlap matrix:
Smallest eigenvalue                        ... 2.736e-04
Time for diagonalization                   ...    0.015 sec
Threshold for overlap eigenvalues          ... 1.000e-07
Number of eigenvalues below threshold      ... 0
Time for construction of square roots      ...    0.010 sec
Total time needed                          ...    0.027 sec

-------------------
DFT GRID GENERATION
-------------------

General Integration Accuracy     IntAcc      ... 4.388
Radial Grid Type                 RadialGrid  ... OptM3 with GC (2021)
Angular Grid (max. ang.)         AngularGrid ... 4 (Lebedev-302)
Angular grid pruning method      GridPruning ... 4 (adaptive)
Weight generation scheme         WeightScheme... mBecke (2022)
Basis function cutoff            BFCut       ... 1.0000e-11
Integration weight cutoff        WCut        ... 1.0000e-14
Partially contracted basis set               ... off
Rotationally invariant grid construction     ... off
Angular grids for H and He will be reduced by one unit

Total number of grid points                  ...   162739
Total number of batches                      ...     2564
Average number of points per batch           ...       63
Average number of grid points per atom       ...     4786
Initializing property integral containers    ... done (  0.0 sec)

SHARK setup successfully completed in   1.2 seconds

Maximum memory used throughout the entire STARTUP-calculation: 43.1 MB


           ************************************************************
           *        Program running with 6 parallel MPI-processes     *
           *              working on a common directory               *
           ************************************************************
-------------------------------------------------------------------------------
                                 ORCA GUESS
                   Start orbitals & Density for SCF / CASSCF
-------------------------------------------------------------------------------

------------
SCF SETTINGS
------------
Hamiltonian:
 Density Functional     Method          .... DFT(GTOs)
 Exchange Functional    Exchange        .... B88
   X-Alpha parameter    XAlpha          ....  0.666667
   Becke's b parameter  XBeta           ....  0.004200
 Correlation Functional Correlation     .... LYP
 LDA part of GGA corr.  LDAOpt          .... VWN-5
 Gradients option       PostSCFGGA      .... off
 Hybrid DFT is turned on
   Fraction HF Exchange ScalHFX         ....  0.200000
   Scaling of DF-GGA-X  ScalDFX         ....  0.720000
   Scaling of DF-GGA-C  ScalDFC         ....  0.810000
   Scaling of DF-LDA-C  ScalLDAC        ....  1.000000
   Perturbative correction              ....  0.000000
   NL short-range parameter             ....  4.800000
 RI-approximation to the Coulomb term is turned on
   Number of AuxJ basis functions       .... 1098
   RIJ-ON(X) (HFX calculated with O(N)) .... on


General Settings:
 Integral files         IntName         .... data/geom_opt/11776/11776
 Hartree-Fock type      HFTyp           .... RHF
 Total Charge           Charge          ....    0
 Multiplicity           Mult            ....    1
 Number of Electrons    NEL             ....  138
 Basis Dimension        Dim             ....  345
 Nuclear Repulsion      ENuc            ....   1404.6359411620 Eh

Convergence Acceleration:
 AO-DIIS                CNVDIIS         .... on
   Start iteration      DIISMaxIt       ....    12
   Startup error        DIISStart       ....  0.200000
   # of expansion vecs  DIISMaxEq       ....     5
   Bias factor          DIISBfac        ....   1.050
   Max. coefficient     DIISMaxC        ....  10.000
 MO-DIIS                CNVKDIIS        .... off
 Trust-Rad. Augm. Hess. CNVTRAH         .... auto
   Auto Start mean grad. ratio tolernc. ....  1.125000
   Auto Start start iteration           ....    50
   Auto Start num. interpolation iter.  ....    10
   Max. Number of Micro iterations      ....    24
   Max. Number of Macro iterations      .... Maxiter - #DIIS iter
   Number of Davidson start vectors     ....     2
   Converg. threshold    (grad. norm)   ....   1.000e-05
   Grad. Scal. Fac. for Micro threshold ....   0.100
   Minimum threshold for Micro iter.    ....   1.000e-02
   NR start threshold (gradient norm)   ....   1.000e-04
   Initial trust radius                 ....   0.400
   Minimum AH scaling param. (alpha)    ....   1.000
   Maximum AH scaling param. (alpha)    .... 1000.000
   Quad. conv. algorithm                .... NR
   White noise on init. David. guess    .... on
   Maximum white noise                  ....   0.010
   Pseudo random numbers                .... off
   Inactive MOs                         .... canonical
   Orbital update algorithm             .... Taylor
   Preconditioner                       .... Diag
   Full preconditioner red. dimension   ....   250
   COSX micro iterations for RIJONX calc.... off
 SOSCF                  CNVSOSCF        .... on
   Start iteration      SOSCFMaxIt      ....   150
   Startup grad/error   SOSCFStart      ....  0.003300
   Hessian update       SOSCFHessUp     .... L-BFGS
 Level Shifting         CNVShift        .... on
   Level shift para.    LevelShift      ....    0.2500
   Turn off err/grad.   ShiftErr        ....    0.0010
 Zerner damping         CNVZerner       .... off
 Static damping         CNVDamp         .... on
   Fraction old density DampFac         ....    0.7000
   Max. Damping (<1)    DampMax         ....    0.9800
   Min. Damping (>=0)   DampMin         ....    0.0000
   Turn off err/grad.   DampErr         ....    0.1000

SCF Procedure:
 Maximum # iterations   MaxIter         ....   125
 SCF integral mode      SCFMode         .... Direct
   Integral package                     .... SHARK and LIBINT hybrid scheme
 Reset frequency        DirectResetFreq ....    20
 Integral Threshold     Thresh          ....  2.500e-11 Eh
 Primitive CutOff       TCut            ....  2.500e-12 Eh

Convergence Tolerance:
 Convergence Check Mode ConvCheckMode   .... Total+1el-Energy
 Convergence forced     ConvForced      .... 0
 Energy Change          TolE            ....  1.000e-08 Eh
 1-El. energy change                    ....  1.000e-05 Eh
 Orbital Gradient       TolG            ....  1.000e-05
 Orbital Rotation angle TolX            ....  1.000e-05
 DIIS Error             TolErr          ....  5.000e-07

------------------------------
INITIAL GUESS: MODEL POTENTIAL
------------------------------
Loading Hartree-Fock densities                     ... done
Calculating cut-offs                               ... done
Initializing the effective Hamiltonian             ... done
Setting up the integral package (SHARK)            ... done
Starting the Coulomb interaction                   ... done (   0.1 sec)
Making the grid                                    ... done (   0.3 sec)
Mapping shells                                     ... done
Starting the XC term evaluation                    ... done (   0.1 sec)
  promolecular density results
     # of electrons  =    138.000089163
     EX              =   -119.618539325
     EC              =     -4.714622560
     EX+EC           =   -124.333161885
Transforming the Hamiltonian                       ... done (   0.0 sec)
Diagonalizing the Hamiltonian                      ... done (   0.0 sec)
Back transforming the eigenvectors                 ... done (   0.0 sec)
Now organizing SCF variables                       ... done
                      ------------------
                      INITIAL GUESS DONE (   0.6 sec)
                      ------------------
             **** ENERGY FILE WAS UPDATED (data/geom_opt/11776/11776.en.tmp) ****
Finished Guess after   0.7 sec
Maximum memory used throughout the entire GUESS-calculation: 24.3 MB


           ************************************************************
           *        Program running with 6 parallel MPI-processes     *
           *              working on a common directory               *
           ************************************************************

-------------------------------------------------------------------------------------------
                                      ORCA LEAN-SCF
                              memory conserving SCF solver
-------------------------------------------------------------------------------------------

----------------------------------------D-I-I-S--------------------------------------------
Iteration    Energy (Eh)           Delta-E    RMSDP     MaxDP     DIISErr   Damp  Time(sec)
-------------------------------------------------------------------------------------------
               ***  Starting incremental Fock matrix formation  ***
    1    -1034.8202671252906839     0.00e+00  2.52e-03  5.11e-02  1.13e-01  0.700   4.1
    2    -1034.9912907084381004    -1.71e-01  1.81e-03  5.09e-02  6.07e-02  0.700   3.6
                               ***Turning on AO-DIIS***
    3    -1035.0662581909832625    -7.50e-02  8.55e-04  3.51e-02  2.69e-02  0.700   3.7
    4    -1035.1097003188583585    -4.34e-02  1.64e-03  7.95e-02  1.50e-02  0.000   3.4
    5    -1035.2025663113859082    -9.29e-02  2.11e-04  1.29e-02  4.50e-03  0.000   3.5
                              *** Initializing SOSCF ***
---------------------------------------S-O-S-C-F--------------------------------------
Iteration    Energy (Eh)           Delta-E    RMSDP     MaxDP     MaxGrad    Time(sec)
--------------------------------------------------------------------------------------
    6    -1035.2030816488359051    -5.15e-04  7.71e-05  4.01e-03  1.12e-03     3.1
               *** Restarting incremental Fock matrix formation ***
    7    -1035.2031150953484939    -3.34e-05  5.23e-05  1.85e-03  2.46e-04     4.1
    8    -1035.2031120808233027     3.01e-06  2.33e-05  5.44e-04  3.88e-04     2.7
    9    -1035.2031193049419926    -7.22e-06  1.35e-05  7.69e-04  9.43e-05     2.5
   10    -1035.2031191068394946     1.98e-07  6.53e-06  1.42e-04  7.71e-05     2.4
   11    -1035.2031197872533994    -6.80e-07  3.48e-06  2.47e-04  2.26e-05     2.3
   12    -1035.2031197629971757     2.43e-08  2.08e-06  1.29e-04  3.34e-05     2.1
   13    -1035.2031198057024994    -4.27e-08  5.36e-07  4.63e-05  2.87e-06     2.1
   14    -1035.2031198032041175     2.50e-09  2.69e-07  2.18e-05  2.87e-06     1.7
                 **** Energy Check signals convergence ****

               *****************************************************
               *                     SUCCESS                       *
               *           SCF CONVERGED AFTER  14 CYCLES          *
               *****************************************************

             **** ENERGY FILE WAS UPDATED (data/geom_opt/11776/11776.en.tmp) ****

----------------
TOTAL SCF ENERGY
----------------

Total Energy       :      -1035.20311980320412 Eh          -28169.30899 eV

Components:
Nuclear Repulsion  :       1404.63594116202739 Eh           38222.08713 eV
Electronic Energy  :      -2439.83906096523151 Eh          -66391.39612 eV
One Electron Energy:      -4199.75383846836485 Eh         -114281.11188 eV
Two Electron Energy:       1759.91477750313356 Eh           47889.71576 eV

Virial components:
Potential Energy   :      -2062.10981636839642 Eh          -56112.86083 eV
Kinetic Energy     :       1026.90669656519253 Eh           27943.55184 eV
Virial Ratio       :          2.00807904288263

DFT components:
N(Alpha)           :       69.000085066431 electrons
N(Beta)            :       69.000085066431 electrons
N(Total)           :      138.000170132862 electrons
E(X)               :      -96.155193729257 Eh       
E(C)               :       -5.559270685638 Eh       
E(XC)              :     -101.714464414895 Eh       

---------------
SCF CONVERGENCE
---------------

  Last Energy change         ...   -2.4984e-09  Tolerance :   1.0000e-08
  Last MAX-Density change    ...    2.1780e-05  Tolerance :   1.0000e-07
  Last RMS-Density change    ...    2.6930e-07  Tolerance :   5.0000e-09
  Last DIIS Error            ...    1.1245e-03  Tolerance :   5.0000e-07
  Last Orbital Gradient      ...    2.8668e-06  Tolerance :   1.0000e-05
  Last Orbital Rotation      ...    2.8395e-06  Tolerance :   1.0000e-05


----------------
ORBITAL ENERGIES
----------------

  NO   OCC          E(Eh)            E(eV) 
   0   2.0000     -77.046627     -2096.5453 
   1   2.0000     -10.191606      -277.3277 
   2   2.0000     -10.191596      -277.3274 
   3   2.0000     -10.191515      -277.3252 
   4   2.0000     -10.190854      -277.3072 
   5   2.0000     -10.190837      -277.3068 
   6   2.0000     -10.190833      -277.3067 
   7   2.0000     -10.189184      -277.2618 
   8   2.0000     -10.189152      -277.2609 
   9   2.0000     -10.189148      -277.2608 
  10   2.0000     -10.188987      -277.2564 
  11   2.0000     -10.188984      -277.2564 
  12   2.0000     -10.188983      -277.2563 
  13   2.0000     -10.188615      -277.2463 
  14   2.0000     -10.188612      -277.2462 
  15   2.0000     -10.188611      -277.2462 
  16   2.0000     -10.188198      -277.2350 
  17   2.0000     -10.188197      -277.2349 
  18   2.0000     -10.188189      -277.2347 
  19   2.0000      -6.543387      -178.0546 
  20   2.0000      -4.708813      -128.1333 
  21   2.0000      -4.708812      -128.1333 
  22   2.0000      -4.705843      -128.0525 
  23   2.0000      -0.852987       -23.2110 
  24   2.0000      -0.844920       -22.9914 
  25   2.0000      -0.844918       -22.9914 
  26   2.0000      -0.766798       -20.8656 
  27   2.0000      -0.738626       -20.0990 
  28   2.0000      -0.738624       -20.0990 
  29   2.0000      -0.736675       -20.0459 
  30   2.0000      -0.733830       -19.9685 
  31   2.0000      -0.733828       -19.9685 
  32   2.0000      -0.645863       -17.5748 
  33   2.0000      -0.601176       -16.3588 
  34   2.0000      -0.601174       -16.3588 
  35   2.0000      -0.598673       -16.2907 
  36   2.0000      -0.590137       -16.0585 
  37   2.0000      -0.590136       -16.0584 
  38   2.0000      -0.554755       -15.0956 
  39   2.0000      -0.516224       -14.0472 
  40   2.0000      -0.516222       -14.0471 
  41   2.0000      -0.491258       -13.3678 
  42   2.0000      -0.455856       -12.4045 
  43   2.0000      -0.455854       -12.4044 
  44   2.0000      -0.453993       -12.3538 
  45   2.0000      -0.447021       -12.1641 
  46   2.0000      -0.447020       -12.1640 
  47   2.0000      -0.439824       -11.9682 
  48   2.0000      -0.420278       -11.4363 
  49   2.0000      -0.419779       -11.4228 
  50   2.0000      -0.419776       -11.4227 
  51   2.0000      -0.408102       -11.1050 
  52   2.0000      -0.408099       -11.1049 
  53   2.0000      -0.372099       -10.1253 
  54   2.0000      -0.368661       -10.0318 
  55   2.0000      -0.368659       -10.0317 
  56   2.0000      -0.362749        -9.8709 
  57   2.0000      -0.346153        -9.4193 
  58   2.0000      -0.346150        -9.4192 
  59   2.0000      -0.345683        -9.4065 
  60   2.0000      -0.325465        -8.8563 
  61   2.0000      -0.325461        -8.8562 
  62   2.0000      -0.276643        -7.5278 
  63   2.0000      -0.261116        -7.1053 
  64   2.0000      -0.261114        -7.1053 
  65   2.0000      -0.258831        -7.0431 
  66   2.0000      -0.252265        -6.8645 
  67   2.0000      -0.252263        -6.8644 
  68   2.0000      -0.206508        -5.6194 
  69   0.0000      -0.024675        -0.6714 
  70   0.0000      -0.024669        -0.6713 
  71   0.0000      -0.019956        -0.5430 
  72   0.0000      -0.005256        -0.1430 
  73   0.0000      -0.003210        -0.0874 
  74   0.0000      -0.003208        -0.0873 
  75   0.0000       0.063325         1.7232 
  76   0.0000       0.063327         1.7232 
  77   0.0000       0.067178         1.8280 
  78   0.0000       0.090881         2.4730 
  79   0.0000       0.090883         2.4731 
*Only the first 10 virtual orbitals were printed.

                    ********************************
                    * MULLIKEN POPULATION ANALYSIS *
                    ********************************

-----------------------
MULLIKEN ATOMIC CHARGES
-----------------------
   0 C :    0.025848
   1 C :    0.024492
   2 C :    0.020447
   3 C :   -0.138866
   4 C :    0.012258
   5 C :    0.027857
   6 P :    0.341506
   7 C :   -0.138911
   8 C :    0.020468
   9 C :    0.024497
  10 C :    0.025846
  11 C :    0.027812
  12 C :    0.012284
  13 C :   -0.138601
  14 C :    0.020433
  15 C :    0.024566
  16 C :    0.025802
  17 C :    0.027808
  18 C :    0.012144
  19 H :   -0.019914
  20 H :   -0.019174
  21 H :   -0.018267
  22 H :   -0.006907
  23 H :   -0.021661
  24 H :   -0.018259
  25 H :   -0.019170
  26 H :   -0.019907
  27 H :   -0.021660
  28 H :   -0.006883
  29 H :   -0.018245
  30 H :   -0.019168
  31 H :   -0.019908
  32 H :   -0.021649
  33 H :   -0.006917
Sum of atomic charges:   -0.0000000

--------------------------------
MULLIKEN REDUCED ORBITAL CHARGES
--------------------------------
  0 C s       :     3.158295  s :     3.158295
      pz      :     0.945700  p :     2.780377
      px      :     0.929029
      py      :     0.905648
      dz2     :     0.007262  d :     0.035480
      dxz     :     0.005250
      dyz     :     0.009150
      dx2y2   :     0.005984
      dxy     :     0.007835

  1 C s       :     3.158313  s :     3.158313
      pz      :     0.949219  p :     2.782007
      px      :     0.978513
      py      :     0.854274
      dz2     :     0.007259  d :     0.035188
      dxz     :     0.005854
      dyz     :     0.008457
      dx2y2   :     0.007756
      dxy     :     0.005862

  2 C s       :     3.212096  s :     3.212096
      pz      :     0.886589  p :     2.732603
      px      :     0.914067
      py      :     0.931947
      dz2     :     0.005558  d :     0.034854
      dxz     :     0.004987
      dyz     :     0.008574
      dx2y2   :     0.007775
      dxy     :     0.007960

  3 C s       :     3.080332  s :     3.080332
      pz      :     0.988211  p :     3.021933
      px      :     1.018436
      py      :     1.015286
      dz2     :     0.007980  d :     0.036601
      dxz     :     0.005756
      dyz     :     0.009293
      dx2y2   :     0.006073
      dxy     :     0.007498

  4 C s       :     3.224197  s :     3.224197
      pz      :     0.933019  p :     2.728535
      px      :     0.957643
      py      :     0.837873
      dz2     :     0.007045  d :     0.035009
      dxz     :     0.005764
      dyz     :     0.008634
      dx2y2   :     0.007692
      dxy     :     0.005875

  5 C s       :     3.158112  s :     3.158112
      pz      :     0.884093  p :     2.778856
      px      :     0.938831
      py      :     0.955932
      dz2     :     0.005726  d :     0.035174
      dxz     :     0.005016
      dyz     :     0.008547
      dx2y2   :     0.008027
      dxy     :     0.007859

  6 P s       :     5.637864  s :     5.637864
      pz      :     3.346976  p :     8.840167
      px      :     2.746745
      py      :     2.746446
      dz2     :     0.014507  d :     0.180463
      dxz     :     0.035892
      dyz     :     0.037414
      dx2y2   :     0.047695
      dxy     :     0.044955

  7 C s       :     3.080390  s :     3.080390
      pz      :     0.989195  p :     3.021919
      px      :     1.009641
      py      :     1.023083
      dz2     :     0.007920  d :     0.036601
      dxz     :     0.009907
      dyz     :     0.005228
      dx2y2   :     0.007350
      dxy     :     0.006196

  8 C s       :     3.212057  s :     3.212057
      pz      :     0.890032  p :     2.732622
      px      :     0.915029
      py      :     0.927561
      dz2     :     0.005464  d :     0.034854
      dxz     :     0.008958
      dyz     :     0.004607
      dx2y2   :     0.007966
      dxy     :     0.007859

  9 C s       :     3.158310  s :     3.158310
      pz      :     0.944679  p :     2.782005
      px      :     0.883348
      py      :     0.953978
      dz2     :     0.006940  d :     0.035188
      dxz     :     0.009479
      dyz     :     0.004873
      dx2y2   :     0.006500
      dxy     :     0.007396

 10 C s       :     3.158284  s :     3.158284
      pz      :     0.950934  p :     2.780389
      px      :     0.857297
      py      :     0.972159
      dz2     :     0.007459  d :     0.035480
      dxz     :     0.008804
      dyz     :     0.005353
      dx2y2   :     0.007741
      dxy     :     0.006124

 11 C s       :     3.158119  s :     3.158119
      pz      :     0.885473  p :     2.778895
      px      :     0.962368
      py      :     0.931053
      dz2     :     0.005640  d :     0.035174
      dxz     :     0.008994
      dyz     :     0.004562
      dx2y2   :     0.007875
      dxy     :     0.008103

 12 C s       :     3.224127  s :     3.224127
      pz      :     0.932038  p :     2.728579
      px      :     0.838281
      py      :     0.958261
      dz2     :     0.006750  d :     0.035010
      dxz     :     0.009576
      dyz     :     0.004828
      dx2y2   :     0.006337
      dxy     :     0.007519

 13 C s       :     3.080282  s :     3.080282
      pz      :     0.989166  p :     3.021718
      px      :     1.021311
      py      :     1.011241
      dz2     :     0.007632  d :     0.036600
      dxz     :     0.006762
      dyz     :     0.007950
      dx2y2   :     0.007340
      dxy     :     0.006916

 14 C s       :     3.212118  s :     3.212118
      pz      :     0.894240  p :     2.732595
      px      :     0.934317
      py      :     0.904038
      dz2     :     0.005086  d :     0.034855
      dxz     :     0.006334
      dyz     :     0.007128
      dx2y2   :     0.008081
      dxy     :     0.008225

 15 C s       :     3.158293  s :     3.158293
      pz      :     0.950526  p :     2.781953
      px      :     0.888966
      py      :     0.942461
      dz2     :     0.006825  d :     0.035188
      dxz     :     0.006002
      dyz     :     0.007856
      dx2y2   :     0.006807
      dxy     :     0.007698

 16 C s       :     3.158307  s :     3.158307
      pz      :     0.949837  p :     2.780410
      px      :     0.961072
      py      :     0.869502
      dz2     :     0.007001  d :     0.035480
      dxz     :     0.007066
      dyz     :     0.006776
      dx2y2   :     0.007566
      dxy     :     0.007071

 17 C s       :     3.158108  s :     3.158108
      pz      :     0.892240  p :     2.778910
      px      :     0.936130
      py      :     0.950540
      dz2     :     0.005245  d :     0.035175
      dxz     :     0.006285
      dyz     :     0.007160
      dx2y2   :     0.008160
      dxy     :     0.008324

 18 C s       :     3.224118  s :     3.224118
      pz      :     0.934415  p :     2.728728
      px      :     0.897260
      py      :     0.897053
      dz2     :     0.006630  d :     0.035010
      dxz     :     0.006087
      dyz     :     0.007836
      dx2y2   :     0.006995
      dxy     :     0.007461

 19 H s       :     0.996938  s :     0.996938
      pz      :     0.005724  p :     0.022976
      px      :     0.008038
      py      :     0.009214

 20 H s       :     0.996165  s :     0.996165
      pz      :     0.005745  p :     0.023008
      px      :     0.004145
      py      :     0.013118

 21 H s       :     0.995195  s :     0.995195
      pz      :     0.011310  p :     0.023072
      px      :     0.007686
      py      :     0.004076

 22 H s       :     0.983265  s :     0.983265
      pz      :     0.005913  p :     0.023642
      px      :     0.004176
      py      :     0.013554

 23 H s       :     0.998703  s :     0.998703
      pz      :     0.011204  p :     0.022958
      px      :     0.007745
      py      :     0.004009

 24 H s       :     0.995188  s :     0.995188
      pz      :     0.011197  p :     0.023071
      px      :     0.003644
      py      :     0.008229

 25 H s       :     0.996162  s :     0.996162
      pz      :     0.006187  p :     0.023008
      px      :     0.010369
      py      :     0.006451

 26 H s       :     0.996931  s :     0.996931
      pz      :     0.005288  p :     0.022976
      px      :     0.013209
      py      :     0.004479

 27 H s       :     0.998702  s :     0.998702
      pz      :     0.011078  p :     0.022958
      px      :     0.003621
      py      :     0.008259

 28 H s       :     0.983242  s :     0.983242
      pz      :     0.006360  p :     0.023641
      px      :     0.010691
      py      :     0.006591

 29 H s       :     0.995174  s :     0.995174
      pz      :     0.010776  p :     0.023070
      px      :     0.006639
      py      :     0.005655

 30 H s       :     0.996160  s :     0.996160
      pz      :     0.005807  p :     0.023008
      px      :     0.011126
      py      :     0.006076

 31 H s       :     0.996932  s :     0.996932
      pz      :     0.005503  p :     0.022976
      px      :     0.004958
      py      :     0.012516

 32 H s       :     0.998691  s :     0.998691
      pz      :     0.010673  p :     0.022958
      px      :     0.006598
      py      :     0.005687

 33 H s       :     0.983274  s :     0.983274
      pz      :     0.005960  p :     0.023642
      px      :     0.011479
      py      :     0.006204



                     *******************************
                     * LOEWDIN POPULATION ANALYSIS *
                     *******************************

----------------------
LOEWDIN ATOMIC CHARGES
----------------------
   0 C :   -0.022096
   1 C :   -0.024989
   2 C :   -0.024270
   3 C :   -0.177876
   4 C :   -0.028309
   5 C :   -0.024852
   6 P :    0.519853
   7 C :   -0.177889
   8 C :   -0.024280
   9 C :   -0.024982
  10 C :   -0.022093
  11 C :   -0.024852
  12 C :   -0.028305
  13 C :   -0.177851
  14 C :   -0.024288
  15 C :   -0.024982
  16 C :   -0.022103
  17 C :   -0.024849
  18 C :   -0.028323
  19 H :    0.025467
  20 H :    0.026507
  21 H :    0.024045
  22 H :    0.027255
  23 H :    0.025833
  24 H :    0.024048
  25 H :    0.026509
  26 H :    0.025468
  27 H :    0.025834
  28 H :    0.027259
  29 H :    0.024054
  30 H :    0.026508
  31 H :    0.025468
  32 H :    0.025835
  33 H :    0.027245

-------------------------------
LOEWDIN REDUCED ORBITAL CHARGES
-------------------------------
  0 C s       :     2.859523  s :     2.859523
      pz      :     1.026197  p :     3.070610
      px      :     0.998052
      py      :     1.046361
      dz2     :     0.017840  d :     0.091963
      dxz     :     0.013952
      dyz     :     0.024813
      dx2y2   :     0.015946
      dxy     :     0.019412

  1 C s       :     2.859939  s :     2.859939
      pz      :     1.028193  p :     3.073812
      px      :     1.011716
      py      :     1.033903
      dz2     :     0.017802  d :     0.091238
      dxz     :     0.016297
      dyz     :     0.022331
      dx2y2   :     0.019282
      dxy     :     0.015527

  2 C s       :     2.865704  s :     2.865704
      pz      :     1.013510  p :     3.067463
      px      :     0.997717
      py      :     1.056236
      dz2     :     0.014134  d :     0.091103
      dxz     :     0.012330
      dyz     :     0.022680
      dx2y2   :     0.020823
      dxy     :     0.021136

  3 C s       :     2.912528  s :     2.912528
      pz      :     1.057441  p :     3.173433
      px      :     1.041768
      py      :     1.074224
      dz2     :     0.018587  d :     0.091915
      dxz     :     0.015402
      dyz     :     0.024488
      dx2y2   :     0.016065
      dxy     :     0.017373

  4 C s       :     2.864866  s :     2.864866
      pz      :     1.018316  p :     3.071850
      px      :     1.011054
      py      :     1.042480
      dz2     :     0.017371  d :     0.091593
      dxz     :     0.016521
      dyz     :     0.022902
      dx2y2   :     0.019193
      dxy     :     0.015606

  5 C s       :     2.860562  s :     2.860562
      pz      :     1.012495  p :     3.073081
      px      :     1.000874
      py      :     1.059713
      dz2     :     0.014095  d :     0.091209
      dxz     :     0.012308
      dyz     :     0.022902
      dx2y2   :     0.021262
      dxy     :     0.020642

  6 P s       :     5.231030  s :     5.231030
      pz      :     3.420063  p :     8.999389
      px      :     2.789844
      py      :     2.789483
      dz2     :     0.021608  d :     0.249727
      dxz     :     0.047811
      dyz     :     0.050178
      dx2y2   :     0.067122
      dxy     :     0.063009

  7 C s       :     2.912526  s :     2.912526
      pz      :     1.056443  p :     3.173447
      px      :     1.084294
      py      :     1.032710
      dz2     :     0.018297  d :     0.091916
      dxz     :     0.025718
      dyz     :     0.014564
      dx2y2   :     0.017693
      dxy     :     0.015644

  8 C s       :     2.865703  s :     2.865703
      pz      :     1.012443  p :     3.067474
      px      :     1.064335
      py      :     0.990697
      dz2     :     0.013869  d :     0.091103
      dxz     :     0.023808
      dyz     :     0.011184
      dx2y2   :     0.022473
      dxy     :     0.019768

  9 C s       :     2.859939  s :     2.859939
      pz      :     1.026107  p :     3.073805
      px      :     1.047476
      py      :     1.000222
      dz2     :     0.016990  d :     0.091239
      dxz     :     0.025443
      dyz     :     0.013097
      dx2y2   :     0.017407
      dxy     :     0.018302

 10 C s       :     2.859522  s :     2.859522
      pz      :     1.026501  p :     3.070608
      px      :     1.041939
      py      :     1.002167
      dz2     :     0.018230  d :     0.091963
      dxz     :     0.023439
      dyz     :     0.014859
      dx2y2   :     0.019754
      dxy     :     0.015680

 11 C s       :     2.860561  s :     2.860561
      pz      :     1.011972  p :     3.073083
      px      :     1.066687
      py      :     0.994424
      dz2     :     0.013863  d :     0.091209
      dxz     :     0.024067
      dyz     :     0.011074
      dx2y2   :     0.021703
      dxy     :     0.020503

 12 C s       :     2.864863  s :     2.864863
      pz      :     1.016489  p :     3.071849
      px      :     1.053307
      py      :     1.002054
      dz2     :     0.016605  d :     0.091593
      dxz     :     0.026245
      dyz     :     0.012997
      dx2y2   :     0.016926
      dxy     :     0.018820

 13 C s       :     2.912527  s :     2.912527
      pz      :     1.051983  p :     3.173406
      px      :     1.051129
      py      :     1.070295
      dz2     :     0.017333  d :     0.091917
      dxz     :     0.018497
      dyz     :     0.020547
      dx2y2   :     0.017674
      dxy     :     0.017868

 14 C s       :     2.865706  s :     2.865706
      pz      :     1.009242  p :     3.067480
      px      :     1.021539
      py      :     1.036698
      dz2     :     0.012777  d :     0.091103
      dxz     :     0.016110
      dyz     :     0.018419
      dx2y2   :     0.020583
      dxy     :     0.023214

 15 C s       :     2.859940  s :     2.859940
      pz      :     1.022942  p :     3.073803
      px      :     1.012897
      py      :     1.037964
      dz2     :     0.016422  d :     0.091239
      dxz     :     0.015674
      dyz     :     0.021649
      dx2y2   :     0.017582
      dxy     :     0.019912

 16 C s       :     2.859522  s :     2.859522
      pz      :     1.021319  p :     3.070618
      px      :     1.028920
      py      :     1.020380
      dz2     :     0.016859  d :     0.091963
      dxz     :     0.019616
      dyz     :     0.017697
      dx2y2   :     0.019023
      dxy     :     0.018767

 17 C s       :     2.860560  s :     2.860560
      pz      :     1.008910  p :     3.073080
      px      :     1.025352
      py      :     1.038818
      dz2     :     0.012766  d :     0.091210
      dxz     :     0.016166
      dyz     :     0.018494
      dx2y2   :     0.020908
      dxy     :     0.022875

 18 C s       :     2.864863  s :     2.864863
      pz      :     1.012751  p :     3.071866
      px      :     1.019630
      py      :     1.039486
      dz2     :     0.016031  d :     0.091594
      dxz     :     0.015764
      dyz     :     0.022255
      dx2y2   :     0.018259
      dxy     :     0.019285

 19 H s       :     0.907007  s :     0.907007
      pz      :     0.017301  p :     0.067526
      px      :     0.023433
      py      :     0.026792

 20 H s       :     0.905987  s :     0.905987
      pz      :     0.017281  p :     0.067506
      px      :     0.012988
      py      :     0.037236

 21 H s       :     0.907673  s :     0.907673
      pz      :     0.032488  p :     0.068283
      px      :     0.022921
      py      :     0.012874

 22 H s       :     0.902951  s :     0.902951
      pz      :     0.017867  p :     0.069794
      px      :     0.013153
      py      :     0.038775

 23 H s       :     0.906631  s :     0.906631
      pz      :     0.032032  p :     0.067536
      px      :     0.022651
      py      :     0.012853

 24 H s       :     0.907669  s :     0.907669
      pz      :     0.032193  p :     0.068283
      px      :     0.011561
      py      :     0.024529

 25 H s       :     0.905985  s :     0.905985
      pz      :     0.018464  p :     0.067505
      px      :     0.029893
      py      :     0.019148

 26 H s       :     0.907005  s :     0.907005
      pz      :     0.016133  p :     0.067526
      px      :     0.037461
      py      :     0.013933

 27 H s       :     0.906630  s :     0.906630
      pz      :     0.031692  p :     0.067536
      px      :     0.011851
      py      :     0.023992

 28 H s       :     0.902946  s :     0.902946
      pz      :     0.019152  p :     0.069794
      px      :     0.030950
      py      :     0.019692

 29 H s       :     0.907663  s :     0.907663
      pz      :     0.030993  p :     0.068283
      px      :     0.020117
      py      :     0.017173

 30 H s       :     0.905986  s :     0.905986
      pz      :     0.017424  p :     0.067506
      px      :     0.031785
      py      :     0.018296

 31 H s       :     0.907006  s :     0.907006
      pz      :     0.016682  p :     0.067526
      px      :     0.015330
      py      :     0.035514

 32 H s       :     0.906629  s :     0.906629
      pz      :     0.030590  p :     0.067536
      px      :     0.019656
      py      :     0.017290

 33 H s       :     0.902961  s :     0.902961
      pz      :     0.017994  p :     0.069794
      px      :     0.033074
      py      :     0.018726



                      *****************************
                      * MAYER POPULATION ANALYSIS *
                      *****************************

  NA   - Mulliken gross atomic population
  ZA   - Total nuclear charge
  QA   - Mulliken gross atomic charge
[...]
      dx2y2   :     0.018749
      dxy     :     0.014974

 11 C s       :     2.863537  s :     2.863537
      pz      :     1.012762  p :     3.071611
      px      :     1.065867
      py      :     0.992981
      dz2     :     0.014341  d :     0.090359
      dxz     :     0.024123
      dyz     :     0.010843
      dx2y2   :     0.021091
      dxy     :     0.019961

 12 C s       :     2.866862  s :     2.866862
      pz      :     1.022100  p :     3.072327
      px      :     1.051063
      py      :     0.999164
      dz2     :     0.017637  d :     0.091255
      dxz     :     0.026086
      dyz     :     0.013240
      dx2y2   :     0.016525
      dxy     :     0.017766

 13 C s       :     2.917027  s :     2.917027
      pz      :     1.053227  p :     3.165875
      px      :     1.048938
      py      :     1.063710
      dz2     :     0.017520  d :     0.090598
      dxz     :     0.018812
      dyz     :     0.019897
      dx2y2   :     0.016964
      dxy     :     0.017406

 14 C s       :     2.867007  s :     2.867007
      pz      :     1.012311  p :     3.070419
      px      :     1.023384
      py      :     1.034724
      dz2     :     0.013798  d :     0.091347
      dxz     :     0.016455
      dyz     :     0.018522
      dx2y2   :     0.019988
      dxy     :     0.022584

 15 C s       :     2.863304  s :     2.863304
      pz      :     1.025159  p :     3.072026
      px      :     1.012349
      py      :     1.034519
      dz2     :     0.017154  d :     0.090237
      dxz     :     0.016116
      dyz     :     0.021413
      dx2y2   :     0.016328
      dxy     :     0.019227

 16 C s       :     2.864234  s :     2.864234
      pz      :     1.022534  p :     3.069037
      px      :     1.028553
      py      :     1.017950
      dz2     :     0.016669  d :     0.089906
      dxz     :     0.019638
      dyz     :     0.017588
      dx2y2   :     0.017971
      dxy     :     0.018040

 17 C s       :     2.863530  s :     2.863530
      pz      :     1.009895  p :     3.071582
      px      :     1.024675
      py      :     1.037012
      dz2     :     0.013239  d :     0.090358
      dxz     :     0.016412
      dyz     :     0.018187
      dx2y2   :     0.020344
      dxy     :     0.022175

 18 C s       :     2.866854  s :     2.866854
      pz      :     1.018281  p :     3.072264
      px      :     1.019284
      py      :     1.034699
      dz2     :     0.017072  d :     0.091254
      dxz     :     0.015995
      dyz     :     0.022157
      dx2y2   :     0.016852
      dxy     :     0.019178

 19 H s       :     0.906591  s :     0.906591
      pz      :     0.017837  p :     0.066551
      px      :     0.022602
      py      :     0.026112

 20 H s       :     0.905993  s :     0.905993
      pz      :     0.016306  p :     0.066485
      px      :     0.012749
      py      :     0.037431

 21 H s       :     0.907971  s :     0.907971
      pz      :     0.033046  p :     0.067311
      px      :     0.021813
      py      :     0.012452

 22 H s       :     0.900965  s :     0.900965
      pz      :     0.016370  p :     0.069699
      px      :     0.013033
      py      :     0.040296

 23 H s       :     0.906435  s :     0.906435
      pz      :     0.032192  p :     0.066509
      px      :     0.021597
      py      :     0.012721

 24 H s       :     0.907972  s :     0.907972
      pz      :     0.032955  p :     0.067323
      px      :     0.011237
      py      :     0.023132

 25 H s       :     0.905975  s :     0.905975
      pz      :     0.017543  p :     0.066489
      px      :     0.030251
      py      :     0.018695

 26 H s       :     0.906575  s :     0.906575
      pz      :     0.016554  p :     0.066551
      px      :     0.036494
      py      :     0.013503

 27 H s       :     0.906423  s :     0.906423
      pz      :     0.032122  p :     0.066510
      px      :     0.011293
      py      :     0.023095

 28 H s       :     0.900990  s :     0.900990
      pz      :     0.017657  p :     0.069668
      px      :     0.033061
      py      :     0.018950

 29 H s       :     0.907967  s :     0.907967
      pz      :     0.031773  p :     0.067326
      px      :     0.019152
      py      :     0.016401

 30 H s       :     0.905973  s :     0.905973
      pz      :     0.016515  p :     0.066489
      px      :     0.031442
      py      :     0.018532

 31 H s       :     0.906573  s :     0.906573
      pz      :     0.017174  p :     0.066550
      px      :     0.014938
      py      :     0.034439

 32 H s       :     0.906419  s :     0.906419
      pz      :     0.030958  p :     0.066512
      px      :     0.019367
      py      :     0.016187

 33 H s       :     0.900940  s :     0.900940
      pz      :     0.016587  p :     0.069689
      px      :     0.032994
      py      :     0.020109



                      *****************************
                      * MAYER POPULATION ANALYSIS *
                      *****************************

  NA   - Mulliken gross atomic population
  ZA   - Total nuclear charge
  QA   - Mulliken gross atomic charge
  VA   - Mayer's total valence
  BVA  - Mayer's bonded valence
  FA   - Mayer's free valence

  ATOM       NA         ZA         QA         VA         BVA        FA
  0 C      5.9768     6.0000     0.0232     3.8245     3.8245    -0.0000
  1 C      5.9795     6.0000     0.0205     3.8528     3.8528    -0.0000
  2 C      5.9747     6.0000     0.0253     3.8702     3.8702    -0.0000
  3 C      6.1661     6.0000    -0.1661     3.8203     3.8203    -0.0000
  4 C      5.9822     6.0000     0.0178     3.8790     3.8790    -0.0000
  5 C      5.9751     6.0000     0.0249     3.8313     3.8313    -0.0000
  6 P     14.6382    15.0000     0.3618     2.9303     2.9303    -0.0000
  7 C      6.1665     6.0000    -0.1665     3.8208     3.8208    -0.0000
  8 C      5.9743     6.0000     0.0257     3.8698     3.8698    -0.0000
  9 C      5.9794     6.0000     0.0206     3.8524     3.8524    -0.0000
 10 C      5.9768     6.0000     0.0232     3.8246     3.8246    -0.0000
 11 C      5.9753     6.0000     0.0247     3.8316     3.8316    -0.0000
 12 C      5.9819     6.0000     0.0181     3.8784     3.8784    -0.0000
 13 C      6.1663     6.0000    -0.1663     3.8205     3.8205    -0.0000
 14 C      5.9745     6.0000     0.0255     3.8698     3.8698    -0.0000
 15 C      5.9794     6.0000     0.0206     3.8522     3.8522    -0.0000
 16 C      5.9767     6.0000     0.0233     3.8245     3.8245    -0.0000
 17 C      5.9751     6.0000     0.0249     3.8317     3.8317    -0.0000
 18 C      5.9820     6.0000     0.0180     3.8788     3.8788    -0.0000
 19 H      1.0157     1.0000    -0.0157     0.9774     0.9774    -0.0000
 20 H      1.0155     1.0000    -0.0155     0.9776     0.9776    -0.0000
 21 H      1.0161     1.0000    -0.0161     0.9898     0.9898    -0.0000
 22 H      1.0012     1.0000    -0.0012     0.9910     0.9910    -0.0000
 23 H      1.0180     1.0000    -0.0180     0.9774     0.9774    -0.0000
 24 H      1.0161     1.0000    -0.0161     0.9898     0.9898    -0.0000
 25 H      1.0155     1.0000    -0.0155     0.9776     0.9776    -0.0000
 26 H      1.0156     1.0000    -0.0156     0.9774     0.9774    -0.0000
 27 H      1.0179     1.0000    -0.0179     0.9774     0.9774    -0.0000
 28 H      1.0013     1.0000    -0.0013     0.9910     0.9910    -0.0000
 29 H      1.0161     1.0000    -0.0161     0.9898     0.9898     0.0000
 30 H      1.0155     1.0000    -0.0155     0.9776     0.9776    -0.0000
 31 H      1.0156     1.0000    -0.0156     0.9774     0.9774    -0.0000
 32 H      1.0180     1.0000    -0.0180     0.9774     0.9774    -0.0000
 33 H      1.0013     1.0000    -0.0013     0.9911     0.9911     0.0000

  Mayer bond orders larger than 0.100000
B(  0-C ,  1-C ) :   1.3754 B(  0-C ,  5-C ) :   1.3820 B(  0-C , 19-H ) :   0.9844 
B(  1-C ,  2-C ) :   1.4058 B(  1-C , 20-H ) :   0.9848 B(  2-C ,  3-C ) :   1.3701 
B(  2-C , 21-H ) :   0.9816 B(  3-C ,  4-C ) :   1.3868 B(  3-C ,  6-P ) :   0.9304 
B(  4-C ,  5-C ) :   1.3831 B(  4-C , 22-H ) :   0.9793 B(  5-C , 23-H ) :   0.9838 
B(  6-P ,  7-C ) :   0.9310 B(  6-P , 13-C ) :   0.9308 B(  7-C ,  8-C ) :   1.3706 
B(  7-C , 12-C ) :   1.3860 B(  8-C ,  9-C ) :   1.4052 B(  8-C , 24-H ) :   0.9816 
B(  9-C , 10-C ) :   1.3757 B(  9-C , 25-H ) :   0.9848 B( 10-C , 11-C ) :   1.3818 
B( 10-C , 26-H ) :   0.9844 B( 11-C , 12-C ) :   1.3834 B( 11-C , 27-H ) :   0.9838 
B( 12-C , 28-H ) :   0.9794 B( 13-C , 14-C ) :   1.3705 B( 13-C , 18-C ) :   1.3863 
B( 14-C , 15-C ) :   1.4051 B( 14-C , 29-H ) :   0.9817 B( 15-C , 16-C ) :   1.3757 
B( 15-C , 30-H ) :   0.9848 B( 16-C , 17-C ) :   1.3817 B( 16-C , 31-H ) :   0.9844 
B( 17-C , 18-C ) :   1.3836 B( 17-C , 32-H ) :   0.9838 B( 18-C , 33-H ) :   0.9792 


-------
TIMINGS
-------

Total SCF time: 0 days 0 hours 0 min 16 sec 

Total time                  ....      16.480 sec
Sum of individual times     ....      16.406 sec  ( 99.6%)

SCF preparation             ....       0.120 sec  (  0.7%)
Fock matrix formation       ....      15.879 sec  ( 96.4%)
  Startup                   ....       0.021 sec  (  0.1% of F)
  Exchange formation        ....      11.994 sec  ( 75.5% of F)
  Split-RI-J                ....       1.341 sec  (  8.4% of F)
  XC integration            ....       2.443 sec  ( 15.4% of F)
    Basis function eval.    ....       0.759 sec  ( 31.1% of XC)
    Density eval.           ....       0.761 sec  ( 31.2% of XC)
    XC-Functional eval.     ....       0.054 sec  (  2.2% of XC)
    XC-Potential eval.      ....       0.505 sec  ( 20.7% of XC)
Diagonalization             ....       0.000 sec  (  0.0%)
Density matrix formation    ....       0.046 sec  (  0.3%)
Total Energy calculation    ....       0.018 sec  (  0.1%)
Population analysis         ....       0.090 sec  (  0.5%)
Orbital Transformation      ....       0.032 sec  (  0.2%)
Orbital Orthonormalization  ....       0.000 sec  (  0.0%)
DIIS solution               ....       0.042 sec  (  0.3%)
SOSCF solution              ....       0.179 sec  (  1.1%)
Finished LeanSCF after  16.5 sec

Maximum memory used throughout the entire LEANSCF-calculation: 35.9 MB


-------------------------------------------------------------------------------
                          DFT DISPERSION CORRECTION                            
                                                                               
                              DFTD3 V3.1  Rev 1                                
                          USING Becke-Johnson damping                          
-------------------------------------------------------------------------------
The B3LYP functional is recognized
Active option DFTDOPT                   ...         4   

molecular C6(AA) [au] = 16591.024749 


            DFT-D V3
 parameters
 s6 scaling factor         :     1.0000 
 a1 scaling factor         :     0.3981 
 s8 scaling factor         :     1.9889 
 a2 scaling factor         :     4.4211 
 ad hoc parameters k1-k3   :    16.0000     1.3333    -4.0000 

 Edisp/kcal,au: -53.829336152182  -0.085782498329 
 E6   /kcal   : -24.330327126 
 E8   /kcal   : -29.499009027 
 % E8         :  54.800989823 

-------------------------   ----------------
Dispersion correction           -0.085782498
-------------------------   ----------------


-------------------------   --------------------
FINAL SINGLE POINT ENERGY     -1035.290921349625
-------------------------   --------------------

                                *** OPTIMIZATION RUN DONE ***



           ************************************************************
           *        Program running with 6 parallel MPI-processes     *
           *              working on a common directory               *
           ************************************************************

------------------------------------------------------------------------------
                              ORCA PROPERTY CALCULATIONS
------------------------------------------------------------------------------

GBWName                                 ... data/geom_opt/11776/11776.gbw
Number of atoms                         ...     34
Number of basis functions               ...    345
Max core memory                         ...   1024 MB

Electric properties:
Dipole moment                           ... YES
Quadrupole moment                       ...  NO
Static polarizability (Dipole/Dipole)   ...  NO
Static polarizability (Dipole/Quad.)    ...  NO
Static polarizability (Quad./Quad.)     ...  NO
Static polarizability (Velocity)        ...  NO

Atomic electric properties:
Dipole moment                           ...  NO
Quadrupole moment                       ...  NO
Static polarizability                   ...  NO

Choice of electric origin               ... Center of mass
Position of electric origin             ...    -0.011532    -0.006214     0.384203

General magnetic properties:
Magnetizability                         ...  NO

EPR properties:
g-Tensor (aka g-matrix)                 ...  NO
Zero-Field splitting spin-orbit         ...  NO
Zero-field splitting spin-spin          ...  NO
Hyperfine couplings                     ...  NO (   0 nuclei)
Quadrupole couplings                    ...  NO (   0 nuclei)
Contact density                         ...  NO (   0 nuclei)

NMR properties:
Chemical shifts                         ...  NO (   0 nuclei)
Spin-rotation constants                 ...  NO (   0 nuclei)
Spin-spin couplings                     ...  NO (   0 nuclei,    0 pairs)

Choice of magnetic origin               ... GIAO
Position of magnetic origin             ...     0.000000     0.000000     0.000000

Properties with geometric perturbations:
SCF Hessian                             ...  NO
IR spectrum                             ...  NO
VCD spectrum                            ...  NO
X-ray spectroscopy properties:
SCF XES/XAS/RIXS spectra                ...  NO


-------------
DIPOLE MOMENT
-------------

Method             : SCF
Type of density    : Electron Density
Multiplicity       :   1
Irrep              :   0
Energy             : -1035.2051388512959420 Eh
Relativity type    : 
Basis              : AO
                                X                 Y                 Z
Electronic contribution:     -0.168267080      -0.089975290       5.640498694
Nuclear contribution   :      0.185259427       0.100050755      -6.171107080
                        -----------------------------------------
Total Dipole Moment    :      0.016992347       0.010075466      -0.530608385
                        -----------------------------------------
Magnitude (a.u.)       :      0.530976001
Magnitude (Debye)      :      1.349633737



--------------------
Rotational spectrum 
--------------------
 
Rotational constants in cm-1:             0.011898             0.011886             0.007068 
Rotational constants in MHz :           356.684857           356.343214           211.880230 

Dipole components along the rotational axes: 
x,y,z [a.u.] :     0.002420    -0.000298    -0.530970 
x,y,z [Debye]:     0.006151    -0.000757    -1.349620 

 

Dipole moment calculation done in   0.0 sec 

Maximum memory used throughout the entire PROP-calculation: 18.0 MB

--------------------------------
SUGGESTED CITATIONS FOR THIS RUN
--------------------------------

Below you find a list of papers that are relevant to this ORCA run
We neither can nor want to force you to cite these papers, but we appreciate if you do
You receive ORCA, which is the product of decades of hard work by many enthusiastic individuals, for free
The only thing we kindly ask in return is that you cite our papers,
We deeply appreciate it, if you show your appreciation for ORCA by not just citing the generic ORCA reference.

Please note that relegating all ORCA citations to the supporting information does *not* help us.
SI sections are not indexed - citations you put there will not count into any citation statistics
But we need these citations in order to attract the funding resources that allow us to do what we are doing

Therefore, if you are a happy ORCA user, please consider citing a few of the papers listed below in the main body of your paper

In addition to the list printed below, the program has created the file data/geom_opt/11776/11776.bibtex that contains the list in bibtex format
You can import this file easily into all common literature databanks and citation aid programs


List of essential papers. We consider these as the minimum necessary citations

  1. Neese,F.
     Software update: the ORCA program system, version 5.0
     WIRES Comput. Molec. Sci., 2022 12(1)e1606
     doi.org/10.1002/wcms.1606

List of papers to cite with high priority. The work reported in these papers was absolutely
necessary for this run to complete.
Our perspective: the developers of density functionals and basis sets usually get cited in chemistry papers
Good! But without the algorithms to do something with them, the functionals or basis sets would not do anything.
Hence, in our opinion, the algorithm design and method developments papers are equally worthy of getting cited

  1. Neese,F.
     An improvement of the resolution of the identity approximation for the formation of the Coulomb matrix
     J. Comp. Chem., 2003 24(14)1740-1747
     doi.org/10.1002/jcc.10318
  2. Neese,F.
     The SHARK Integral Generation and Digestion System
     J. Comp. Chem., 2022  1-16
     doi.org/10.1002/jcc.26942
  3. Grimme,S.; Antony,J.; Ehrlich,S.; Krieg,H.
     A consistent and accurate ab initio parametrization of density functional dispersion correction (DFT-D) for the 94 elements H-Pu
     J. Chem. Phys., 2010 132 154104-XXXX
     doi.org/10.1063/1.3382344
  4. Grimme,S.; Ehrlich,S.; Goerigk,L.
     Effect of the damping function in dispersion corrected density functional theory
     J. Comput. Chem., 2011 32(7)1456-1465
     doi.org/10.1002/jcc.21759

List of suggested additional citations. These are papers that are important in the 'surrounding' of 
of this run, or papers that preceded the highly important papers. If you like your results we are grateful for a citation.

  1. Neese,F.
     The ORCA program system
     WIRES Comput. Molec. Sci., 2012 2(1)73-78
     doi.org/10.1002/wcms.81
  2. Neese,F.
     Software update: the ORCA program system, version 4.0
     WIRES Comput. Molec. Sci., 2018 8(1)1-6
     doi.org/10.1002/wcms.1327
  3. Neese,F.; Wennmohs,F.; Becker,U.; Riplinger,C.
     The ORCA quantum chemistry program package
     J. Chem. Phys., 2020 152 Art. No. L224108
     doi.org/10.1063/5.0004608

List of optional additional citations

  1. Neese,F.
     Approximate second-order SCF convergence for spin unrestricted wavefunctions
     Chem. Phys. Lett., 2000 325(1-3)93-98
     doi.org/10.1016/s0009-2614(00)00662-x

Timings for individual modules:

Sum of individual times          ...      320.404 sec (=   5.340 min)
Startup calculation              ...        9.309 sec (=   0.155 min)   2.9 %
SCF iterations                   ...      211.759 sec (=   3.529 min)  66.1 %
Property calculations            ...        0.168 sec (=   0.003 min)   0.1 %
SCF Gradient evaluation          ...       99.063 sec (=   1.651 min)  30.9 %
Geometry relaxation              ...        0.105 sec (=   0.002 min)   0.0 %
                             ****ORCA TERMINATED NORMALLY****
TOTAL RUN TIME: 0 days 0 hours 5 minutes 21 seconds 733 msec
