
                                 *****************
                                 * O   R   C   A *
                                 *****************

                                            #,                                       
                                            ###                                      
                                            ####                                     
                                            #####                                    
                                            ######                                   
                                           ########,                                 
                                     ,,################,,,,,                         
                               ,,#################################,,                 
                          ,,##########################################,,             
                       ,#########################################, ''#####,          
                    ,#############################################,,   '####,        
                  ,##################################################,,,,####,       
                ,###########''''           ''''###############################       
              ,#####''   ,,,,##########,,,,          '''####'''          '####       
            ,##' ,,,,###########################,,,                        '##       
           ' ,,###''''                  '''############,,,                           
         ,,##''                                '''############,,,,        ,,,,,,###''
      ,#''                                            '''#######################'''  
     '                                                          ''''####''''         
             ,#######,   #######,   ,#######,      ##                                
            ,#'     '#,  ##    ##  ,#'     '#,    #''#        ,####,   ,####,        
            ##       ##  ##   ,#'  ##            #'  '#       #'       #'  '#        
            ##       ##  #######   ##           ,######,      #####,   #    #        
            '#,     ,#'  ##    ##  '#,     ,#' ,#      #,     #,   #   #,  ,#        
             '#######'   ##     ##  '#######'  #'      '#     '####' # '####'        



                #########################################################
                #                        -***-                          #
                #          Department of theory and spectroscopy        #
                #                                                       #
                #                      Frank Neese                      #
                #                                                       #
                #     Directorship, Architecture, Infrastructure        #
                #                    SHARK, DRIVERS                     #
                #        Core code/Algorithms in most modules           #
                #                                                       #
                #        Max Planck Institute fuer Kohlenforschung      #
                #                Kaiser Wilhelm Platz 1                 #
                #                 D-45470 Muelheim/Ruhr                 #
                #                      Germany                          #
                #                                                       #
                #                  All rights reserved                  #
                #                        -***-                          #
                #########################################################


                         Program Version 6.0.0  -   RELEASE   -


 With contributions from (in alphabetic order):
   Daniel Aravena         : Magnetic Suceptibility
   Michael Atanasov       : Ab Initio Ligand Field Theory (pilot matlab implementation)
   Alexander A. Auer      : GIAO ZORA, VPT2 properties, NMR spectrum
   Ute Becker             : All parallelization in ORCA, NUMFREQ, NUMCALC
   Giovanni Bistoni       : ED, misc. LED, open-shell LED, HFLD
   Martin Brehm           : Molecular dynamics
   Dmytro Bykov           : pre 5.0 version of the SCF Hessian
   Marcos Casanova-Páez   : Triplet and SCS-CIS(D). UHF-(DLPNO)-IP/EA/STEOM-CCSD. UHF-CVS-IP/STEOM-CCSD
   Vijay G. Chilkuri      : MRCI spin determinant printing, contributions to CSF-ICE
   Pauline Colinet        : FMM embedding
   Dipayan Datta          : RHF DLPNO-CCSD density
   Achintya Kumar Dutta   : EOM-CC, STEOM-CC
   Nicolas Foglia         : Exact transition moments, OPA infrastructure, MCD improvements
   Dmitry Ganyushin       : Spin-Orbit,Spin-Spin,Magnetic field MRCI
   Miquel Garcia          : C-PCM and meta-GGA Hessian, CCSD/C-PCM, Gaussian charge scheme
   Tiago L. C. Gouveia    : GS-ROHF, GS-ROCIS
   Yang Guo               : DLPNO-NEVPT2, F12-NEVPT2, CIM, IAO-localization
   Andreas Hansen         : Spin unrestricted coupled pair/coupled cluster methods
   Ingolf Harden          : AUTO-CI MPn and infrastructure 
   Benjamin Helmich-Paris : MC-RPA, TRAH-(SCF,CASSCF), AVAS, COSX integrals, SCF dyn. polar.
   Lee Huntington         : MR-EOM, pCC
   Robert Izsak           : Overlap fitted RIJCOSX, COSX-SCS-MP3, EOM
   Riya Kayal             : Wick's Theorem for AUTO-CI, AUTO-CI UHF-CCSDT
   Emily Kempfer          : AUTO-CI, RHF CISDT and CCSDT
   Christian Kollmar      : KDIIS, OOCD, Brueckner-CCSD(T), CCSD density, CASPT2, CASPT2-K, improved NEVPT2
   Axel Koslowski         : Symmetry handling
   Simone Kossmann        : Meta GGA functionals, TD-DFT gradient, OOMP2, (MP2 Hessian; deprecated post 5.0)
   Lucas Lang             : DCDCAS
   Marvin Lechner         : AUTO-CI (C++ implementation), FIC-MRCC
   Spencer Leger          : CASSCF response
   Dagmar Lenk            : GEPOL surface, SMD, ORCA-2-JSON
   Dimitrios Liakos       : Extrapolation schemes; Compound Job, initial MDCI parallelization
   Dimitrios Manganas     : Further ROCIS development; embedding schemes. LFT, Crystal Embedding
   Dimitrios Pantazis     : SARC Basis sets
   Anastasios Papadopoulos: AUTO-CI, single reference methods and gradients
   Taras Petrenko         : pre 6.0 DFT Hessian and TD-DFT gradient, (ASA, deprecated), ECA, 1-Electron XAS/XES, NRVS
   Peter Pinski           : DLPNO-MP2, DLPNO-MP2 Gradient
   Christoph Reimann      : Effective Core Potentials
   Marius Retegan         : Local ZFS, SOC
   Christoph Riplinger    : Optimizer, TS searches, QM/MM, DLPNO-CCSD(T), (RO)-DLPNO pert. Triples
   Michael Roemelt        : Original ROCIS implementation
   Masaaki Saitow         : Open-shell DLPNO-CCSD energy and density
   Barbara Sandhoefer     : DKH picture change effects
   Kantharuban Sivalingam : CASSCF convergence/infrastructure, NEVPT2 and variants, FIC-MRCI
   Bernardo de Souza      : ESD, SOC TD-DFT
   Georgi Stoychev        : AutoAux, RI-MP2 NMR, DLPNO-MP2 response, X2C
   Van Anh Tran           : RI-MP2 g-tensors
   Willem Van den Heuvel  : Paramagnetic NMR
   Zikuan Wang            : NOTCH, Electric field optimization 
   Frank Wennmohs         : Technical directorship and infrastructure
   Hang Xu                : AUTO-CI-Response properties 


 We gratefully acknowledge several colleagues who have allowed us to
 interface, adapt or use parts of their codes:
   Stefan Grimme, W. Hujo, H. Kruse, P. Pracht,  : VdW corrections, initial TS optimization,
                  C. Bannwarth, S. Ehlert,         DFT functionals, gCP, sTDA/sTD-DF
                  L. Wittmann, M. Mueller
   Ed Valeev, F. Pavosevic, A. Kumar             : LibInt (2-el integral package), F12 methods
   Garnet Chan, S. Sharma, J. Yang, R. Olivares  : DMRG
   Ulf Ekstrom                                   : XCFun DFT Library
   Mihaly Kallay                                 : mrcc  (arbitrary order and MRCC methods)
   Frank Weinhold                                : gennbo (NPA and NBO analysis)
   Simon Mueller                                 : openCOSMO-RS
   Christopher J. Cramer and Donald G. Truhlar   : smd solvation model
   Lars Goerigk                                  : TD-DFT with DH, B97 family of functionals
   V. Asgeirsson, H. Jonsson                     : NEB implementation
   FAccTs GmbH                                   : IRC, NEB, NEB-TS, DLPNO-Multilevel, CI-OPT
                                                   MM, QMMM, 2- and 3-layer-ONIOM, Crystal-QMMM,
                                                   LR-CPCM, SF, NACMEs, symmetry and pop. for TD-DFT,
                                                   nearIR, NL-DFT gradient (VV10), updates on ESD,
                                                   ML-optimized integration grids, MBIS, APM,
                                                   GOAT, DOCKER, SOLVATOR, interface openCOSMO-RS
   S Lehtola, MJT Oliveira, MAL Marques          : LibXC Library
   Liviu Ungur et al                             : ANISO software


 Your calculation uses the libint2 library for the computation of 2-el integrals
 For citations please refer to: http://libint.valeyev.net

 Your ORCA version has been built with support for libXC version: 6.2.2
 For citations please refer to: https://libxc.gitlab.io

 This ORCA versions uses:
   CBLAS   interface :  Fast vector & matrix operations
   LAPACKE interface :  Fast linear algebra routines
   Shared memory     :  Shared parallel matrices


Your calculation utilizes the atom-pairwise dispersion correction
with the Becke-Johnson damping scheme (D3BJ)


Warning: RI is on but no J-basis has been assigned. Assigning Def2/J (nothing to worry about!)
================================================================================

----- Orbital basis set information -----
Your calculation utilizes the basis: def2-SVP
   F. Weigend and R. Ahlrichs, Phys. Chem. Chem. Phys. 7, 3297 (2005).

----- AuxJ basis set information -----
Your calculation utilizes the auxiliary basis: def2/J
   F. Weigend, Phys. Chem. Chem. Phys. 8, 1057 (2006).

================================================================================
                                        WARNINGS
                       Please study these warnings very carefully!
================================================================================


WARNING: Geometry Optimization
  ===> : Switching off AutoStart
         For restart on a previous wavefunction, please use MOREAD

================================================================================
                                       INPUT FILE
================================================================================
NAME = data/geom_opt_PO_BP86/69773/69773.inp
|  1> ! RI BP86 def2-SVP D3BJ TIGHTSCF Opt
|  2> %pal
|  3> nprocs 6
|  4> end
|  5> 
|  6> * xyz 0 1
|  7> C     -0.614584   -4.284179    0.498522
|  8> C     -1.252455   -3.898616   -0.678084
|  9> C     -1.062255   -2.612653   -1.183987
| 10> C     -0.233043   -1.695174   -0.519432
| 11> C      0.405469   -2.098210    0.662635
| 12> C      0.214369   -3.385957    1.167754
| 13> P     -0.041421   -0.042107   -1.213915
| 14> O     -0.058673   -0.084952   -2.733235
| 15> C     -1.375968    0.993503   -0.583282
| 16> C     -2.077273    0.692532    0.593370
| 17> C     -3.092312    1.536456    1.048945
| 18> C     -3.418473    2.687758    0.334828
| 19> C     -2.733482    2.996760   -0.837842
| 20> C     -1.719542    2.154514   -1.294286
| 21> C      1.522572    0.635601   -0.614388
| 22> C      2.702295    0.318602   -1.308138
| 23> C      3.937460    0.807401   -0.878679
| 24> C      4.001043    1.620465    0.249782
| 25> C      2.841857    1.949445    0.949481
| 26> C      1.606210    1.459068    0.518457
| 27> Br     5.670714    2.284372    0.836104
| 28> H     -0.759819   -5.287325    0.891372
| 29> H     -1.894861   -4.599629   -1.205121
| 30> H     -1.558201   -2.319368   -2.108570
| 31> H      1.058493   -1.418045    1.203124
| 32> H      0.715868   -3.690805    2.083140
| 33> H     -1.846036   -0.201196    1.167181
| 34> H     -3.633135    1.292981    1.960318
| 35> H     -4.211446    3.341573    0.689005
| 36> H     -2.991253    3.890497   -1.400568
| 37> H     -1.193151    2.397194   -2.216665
| 38> H      2.652000   -0.311140   -2.196046
| 39> H      4.837172    0.551369   -1.432170
| 40> H      2.888342    2.588448    1.827810
| 41> H      0.713518    1.730818    1.076645
| 42> **                         ****END OF INPUT****
================================================================================

                       *****************************
                       * Geometry Optimization Run *
                       *****************************

Geometry optimization settings:
Update method            Update   .... BFGS
Choice of coordinates    CoordSys .... (2022) Redundant Internals
Initial Hessian          InHess   .... Almloef's Model
Max. no of cycles        MaxIter  .... 105

Convergence Tolerances:
Energy Change            TolE     ....  5.0000e-06 Eh
Max. Gradient            TolMAXG  ....  3.0000e-04 Eh/bohr
RMS Gradient             TolRMSG  ....  1.0000e-04 Eh/bohr
Max. Displacement        TolMAXD  ....  4.0000e-03 bohr
RMS Displacement         TolRMSD  ....  2.0000e-03 bohr
Strict Convergence                .... False

------------------------------------------------------------------------------
                        ORCA OPTIMIZATION COORDINATE SETUP
------------------------------------------------------------------------------

The optimization will be done in redundant internal coordinates (2022)
Making redundant internal coordinates   ...  (2022 redundants) done
Evaluating the initial hessian          ...  (Almloef) done
Evaluating the coordinates              ...  done
Calculating the B-matrix                .... done
Calculating the G-matrix                .... done
Diagonalizing the G-matrix              .... done
Small eigenvalue found = 5.516e-03
Small eigenvalue found = 5.969e-03
Small eigenvalue found = 9.686e-03
Small eigenvalue found = 2.538e-02
Small eigenvalue found = 2.960e-02
The first mode is                       ....   85
The number of degrees of freedom        ....   99

    -----------------------------------------------------------------
                    Redundant Internal Coordinates


    -----------------------------------------------------------------
         Definition                    Initial Value    Approx d2E/dq
    -----------------------------------------------------------------
      1. B(C   1,C   0)                  1.3928         0.618363   
      2. B(C   2,C   1)                  1.3949         0.613595   
      3. B(C   3,C   2)                  1.4039         0.593648   
      4. B(C   4,C   3)                  1.4026         0.596433   
      5. B(C   5,C   4)                  1.3964         0.610259   
      6. B(C   5,C   0)                  1.3935         0.616818   
      7. B(P   6,C   3)                  1.8032         0.460196   
      8. B(O   7,P   6)                  1.5200         1.166616   
      9. B(C   8,P   6)                  1.8031         0.460409   
     10. B(C   9,C   8)                  1.4025         0.596820   
     11. B(C  10,C   9)                  1.3964         0.610176   
     12. B(C  11,C  10)                  1.3935         0.616816   
     13. B(C  12,C  11)                  1.3928         0.618437   
     14. B(C  13,C  12)                  1.3949         0.613612   
     15. B(C  13,C   8)                  1.4041         0.593242   
     16. B(C  14,P   6)                  1.8069         0.454084   
     17. B(C  15,C  14)                  1.4048         0.591686   
     18. B(C  16,C  15)                  1.3961         0.611034   
     19. B(C  17,C  16)                  1.3923         0.619506   
     20. B(C  18,C  17)                  1.3934         0.617078   
     21. B(C  19,C  18)                  1.3975         0.607762   
     22. B(C  19,C  14)                  1.4030         0.595642   
     23. B(Br 20,C  17)                  1.8901         0.334511   
     24. B(H  21,C   0)                  1.0871         0.363994   
     25. B(H  22,C   1)                  1.0871         0.363904   
     26. B(H  23,C   2)                  1.0894         0.360870   
     27. B(H  24,C   4)                  1.0868         0.364322   
     28. B(H  25,C   5)                  1.0874         0.363601   
     29. B(H  26,C   9)                  1.0870         0.364146   
     30. B(H  27,C  10)                  1.0874         0.363598   
     31. B(H  28,C  11)                  1.0871         0.363997   
     32. B(H  29,C  12)                  1.0871         0.363904   
     33. B(H  30,C  13)                  1.0894         0.360912   
     34. B(H  31,C  15)                  1.0897         0.360473   
     35. B(H  32,C  16)                  1.0869         0.364203   
     36. B(H  33,C  18)                  1.0872         0.363858   
     37. B(H  34,C  19)                  1.0873         0.363628   
     38. A(C   5,C   0,H  21)          120.0488         0.353244   
     39. A(C   1,C   0,C   5)          119.9803         0.433458   
     40. A(C   1,C   0,H  21)          119.9702         0.353394   
     41. A(C   0,C   1,H  22)          120.1097         0.353379   
     42. A(C   0,C   1,C   2)          119.9424         0.433050   
     43. A(C   2,C   1,H  22)          119.9474         0.352916   
     44. A(C   3,C   2,H  23)          119.6489         0.350454   
     45. A(C   1,C   2,H  23)          119.5979         0.352417   
     46. A(C   1,C   2,C   3)          120.7521         0.429888   
     47. A(C   2,C   3,P   6)          118.6560         0.435536   
     48. A(C   2,C   3,C   4)          118.6859         0.427706   
     49. A(C   4,C   3,P   6)          122.6566         0.435903   
     50. A(C   3,C   4,C   5)          120.4991         0.429829   
     51. A(C   5,C   4,H  24)          118.6505         0.352659   
     52. A(C   3,C   4,H  24)          120.8504         0.351295   
     53. A(C   0,C   5,C   4)          120.1397         0.432431   
     54. A(C   4,C   5,H  25)          119.9959         0.352541   
     55. A(C   0,C   5,H  25)          119.8640         0.353180   
     56. A(O   7,P   6,C   8)          110.9391         0.524177   
     57. A(C   3,P   6,C   8)          108.2502         0.443960   
     58. A(C   3,P   6,C  14)          107.9406         0.442850   
     59. A(C   3,P   6,O   7)          110.9718         0.524131   
     60. A(C   8,P   6,C  14)          108.0097         0.442887   
     61. A(O   7,P   6,C  14)          110.6125         0.522817   
     62. A(P   6,C   8,C   9)          122.7029         0.435991   
     63. A(C   9,C   8,C  13)          118.6808         0.427704   
     64. A(P   6,C   8,C  13)          118.6143         0.435519   
     65. A(C   8,C   9,C  10)          120.4969         0.429868   
     66. A(C  10,C   9,H  26)          118.6405         0.352622   
     67. A(C   8,C   9,H  26)          120.8623         0.351305   
     68. A(C   9,C  10,C  11)          120.1487         0.432420   
     69. A(C  11,C  10,H  27)          119.8744         0.353179   
     70. A(C   9,C  10,H  27)          119.9763         0.352533   
     71. A(C  10,C  11,C  12)          119.9775         0.433467   
     72. A(C  12,C  11,H  28)          119.9762         0.353402   
     73. A(C  10,C  11,H  28)          120.0452         0.353244   
     74. A(C  13,C  12,H  29)          119.9574         0.352918   
     75. A(C  11,C  12,H  29)          120.1054         0.353386   
     76. A(C  11,C  12,C  13)          119.9364         0.433061   
     77. A(C  12,C  13,H  30)          119.5892         0.352425   
     78. A(C   8,C  13,H  30)          119.6506         0.350420   
     79. A(C   8,C  13,C  12)          120.7589         0.429838   
     80. A(C  15,C  14,C  19)          118.7587         0.427351   
     81. A(P   6,C  14,C  15)          118.5805         0.434230   
     82. A(P   6,C  14,C  19)          122.6600         0.434751   
     83. A(C  16,C  15,H  31)          119.5922         0.352102   
     84. A(C  14,C  15,H  31)          119.6053         0.350193   
     85. A(C  14,C  15,C  16)          120.8013         0.429311   
     86. A(C  17,C  16,H  32)          120.8294         0.353539   
     87. A(C  15,C  16,H  32)          119.5537         0.352716   
     88. A(C  15,C  16,C  17)          119.6164         0.432868   
     89. A(C  16,C  17,Br 20)          119.7946         0.414525   
     90. A(C  16,C  17,C  18)          120.4562         0.433635   
     91. A(C  18,C  17,Br 20)          119.7492         0.414236   
     92. A(C  17,C  18,C  19)          119.8570         0.432145   
     93. A(C  19,C  18,H  33)          119.5523         0.352339   
     94. A(C  17,C  18,H  33)          120.5903         0.353247   
     95. A(C  18,C  19,H  34)          118.6766         0.352301   
     96. A(C  14,C  19,C  18)          120.5098         0.429410   
     97. A(C  14,C  19,H  34)          120.8133         0.351104   
     98. D(H  22,C   1,C   0,C   5)    179.6301         0.026451   
     99. D(C   2,C   1,C   0,H  21)   -179.7928         0.026451   
    100. D(C   2,C   1,C   0,C   5)     -0.1034         0.026451   
    101. D(H  22,C   1,C   0,H  21)     -0.0593         0.026451   
    102. D(H  23,C   2,C   1,C   0)    179.5589         0.026020   
    103. D(C   3,C   2,C   1,C   0)     -0.0659         0.026020   
    104. D(C   3,C   2,C   1,H  22)   -179.7998         0.026020   
    105. D(H  23,C   2,C   1,H  22)     -0.1750         0.026020   
    106. D(P   6,C   3,C   2,H  23)      1.0283         0.024268   
    107. D(P   6,C   3,C   2,C   1)   -179.3471         0.024268   
    108. D(C   4,C   3,C   2,H  23)   -179.4074         0.024268   
    109. D(C   4,C   3,C   2,C   1)      0.2172         0.024268   
    110. D(H  24,C   4,C   3,C   2)    179.7232         0.024508   
    111. D(C   5,C   4,C   3,P   6)    179.3432         0.024508   
    112. D(C   5,C   4,C   3,C   2)     -0.2027         0.024508   
    113. D(H  24,C   4,C   3,P   6)     -0.7309         0.024508   
    114. D(H  25,C   5,C   4,H  24)     -0.1186         0.025722   
    115. D(C   0,C   5,C   4,H  24)   -179.8898         0.025722   
    116. D(C   0,C   5,C   4,C   3)      0.0377         0.025722   
    117. D(H  25,C   5,C   0,H  21)      0.0351         0.026311   
    118. D(C   4,C   5,C   0,C   1)      0.1175         0.026311   
    119. D(H  25,C   5,C   4,C   3)    179.8089         0.025722   
    120. D(C   4,C   5,C   0,H  21)    179.8066         0.026311   
    121. D(H  25,C   5,C   0,C   1)   -179.6540         0.026311   
    122. D(C  14,P   6,C   3,C   2)   -156.5173         0.004392   
    123. D(C   8,P   6,C   3,C   4)    -92.7402         0.004392   
    124. D(C   8,P   6,C   3,C   2)     86.8058         0.004392   
    125. D(O   7,P   6,C   3,C   4)    145.2953         0.004392   
    126. D(O   7,P   6,C   3,C   2)    -35.1587         0.004392   
    127. D(C   9,C   8,P   6,O   7)    143.7494         0.004395   
    128. D(C   9,C   8,P   6,C   3)     21.7648         0.004395   
    129. D(C  13,C   8,P   6,O   7)    -36.7708         0.004395   
    130. D(C  13,C   8,P   6,C   3)   -158.7554         0.004395   
    131. D(C   9,C   8,P   6,C  14)    -94.8674         0.004395   
    132. D(H  26,C   9,C   8,C  13)    179.5028         0.024541   
    133. D(H  26,C   9,C   8,P   6)     -1.0177         0.024541   
    134. D(C  10,C   9,C   8,C  13)     -0.2917         0.024541   
    135. D(C  10,C   9,C   8,P   6)    179.1877         0.024541   
    136. D(H  27,C  10,C   9,H  26)     -0.0291         0.025715   
    137. D(H  27,C  10,C   9,C   8)    179.7699         0.025715   
    138. D(C  11,C  10,C   9,H  26)   -179.7372         0.025715   
    139. D(C  11,C  10,C   9,C   8)      0.0618         0.025715   
    140. D(H  28,C  11,C  10,H  27)      0.0625         0.026311   
    141. D(H  28,C  11,C  10,C   9)    179.7709         0.026311   
    142. D(C  12,C  11,C  10,H  27)   -179.5497         0.026311   
    143. D(C  12,C  11,C  10,C   9)      0.1587         0.026311   
    144. D(H  29,C  12,C  11,H  28)     -0.0696         0.026457   
    145. D(H  29,C  12,C  11,C  10)    179.5429         0.026457   
    146. D(C  13,C  12,C  11,H  28)   -179.7555         0.026457   
    147. D(C  13,C  12,C  11,C  10)     -0.1430         0.026457   
    148. D(H  30,C  13,C  12,H  29)     -0.2007         0.026022   
    149. D(H  30,C  13,C  12,C  11)    179.4857         0.026022   
    150. D(C   8,C  13,C  12,H  29)   -179.7795         0.026022   
    151. D(C   8,C  13,C  12,C  11)     -0.0932         0.026022   
    152. D(H  30,C  13,C   8,C   9)   -179.2705         0.024233   
    153. D(H  30,C  13,C   8,P   6)      1.2284         0.024233   
    154. D(C  12,C  13,C   8,C   9)      0.3080         0.024233   
    155. D(C  12,C  13,C   8,P   6)   -179.1930         0.024233   
    156. D(C  19,C  14,P   6,O   7)    143.6067         0.004313   
    157. D(C  19,C  14,P   6,C   3)    -94.8118         0.004313   
    158. D(C  15,C  14,P   6,C   8)   -158.3029         0.004313   
    159. D(C  15,C  14,P   6,O   7)    -36.7174         0.004313   
    160. D(C  15,C  14,P   6,C   3)     84.8640         0.004313   
    161. D(H  31,C  15,C  14,C  19)   -179.3480         0.024099   
    162. D(H  31,C  15,C  14,P   6)      0.9633         0.024099   
    163. D(C  16,C  15,C  14,C  19)      0.2500         0.024099   
    164. D(C  16,C  15,C  14,P   6)   -179.4387         0.024099   
    165. D(H  32,C  16,C  15,H  31)     -0.2521         0.025791   
    166. D(H  32,C  16,C  15,C  14)   -179.8501         0.025791   
    167. D(C  17,C  16,C  15,H  31)    179.5090         0.025791   
    168. D(C  17,C  16,C  15,C  14)     -0.0891         0.025791   
    169. D(Br 20,C  17,C  16,H  32)     -0.2693         0.026554   
    170. D(Br 20,C  17,C  16,C  15)    179.9728         0.026554   
    171. D(C  18,C  17,C  16,H  32)    179.6660         0.026554   
    172. D(C  18,C  17,C  16,C  15)     -0.0919         0.026554   
    173. D(H  33,C  18,C  17,Br 20)      0.2621         0.026334   
    174. D(H  33,C  18,C  17,C  16)   -179.6732         0.026334   
    175. D(C  19,C  18,C  17,Br 20)   -179.9576         0.026334   
    176. D(C  19,C  18,C  17,C  16)      0.1071         0.026334   
    177. D(H  34,C  19,C  18,C  17)   -179.7781         0.025500   
    178. D(C  14,C  19,C  18,H  33)    179.8413         0.025500   
    179. D(C  14,C  19,C  18,C  17)      0.0588         0.025500   
    180. D(H  34,C  19,C  14,C  15)    179.5991         0.024439   
    181. D(H  34,C  19,C  14,P   6)     -0.7256         0.024439   
    182. D(C  18,C  19,C  14,C  15)     -0.2342         0.024439   
    183. D(H  34,C  19,C  18,H  33)      0.0045         0.025500   
    184. D(C  18,C  19,C  14,P   6)    179.4411         0.024439   
    -----------------------------------------------------------------

Number of atoms                         .... 35
Number of degrees of freedom            .... 184


         *************************************************************
         *                GEOMETRY OPTIMIZATION CYCLE   1            *
         *************************************************************
---------------------------------
CARTESIAN COORDINATES (ANGSTROEM)
---------------------------------
  C     -0.614584   -4.284179    0.498522
  C     -1.252455   -3.898616   -0.678084
  C     -1.062255   -2.612653   -1.183987
  C     -0.233043   -1.695174   -0.519432
  C      0.405469   -2.098210    0.662635
  C      0.214369   -3.385957    1.167754
  P     -0.041421   -0.042107   -1.213915
  O     -0.058673   -0.084952   -2.733235
  C     -1.375968    0.993503   -0.583282
  C     -2.077273    0.692532    0.593370
  C     -3.092312    1.536456    1.048945
  C     -3.418473    2.687758    0.334828
  C     -2.733482    2.996760   -0.837842
  C     -1.719542    2.154514   -1.294286
  C      1.522572    0.635601   -0.614388
  C      2.702295    0.318602   -1.308138
  C      3.937460    0.807401   -0.878679
  C      4.001043    1.620465    0.249782
  C      2.841857    1.949445    0.949481
  C      1.606210    1.459068    0.518457
  Br     5.670714    2.284372    0.836104
  H     -0.759819   -5.287325    0.891372
  H     -1.894861   -4.599629   -1.205121
  H     -1.558201   -2.319368   -2.108570
  H      1.058493   -1.418045    1.203124
  H      0.715868   -3.690805    2.083140
  H     -1.846036   -0.201196    1.167181
  H     -3.633135    1.292981    1.960318
  H     -4.211446    3.341573    0.689005
  H     -2.991253    3.890497   -1.400568
  H     -1.193151    2.397194   -2.216665
  H      2.652000   -0.311140   -2.196046
  H      4.837172    0.551369   -1.432170
  H      2.888342    2.588448    1.827810
  H      0.713518    1.730818    1.076645

----------------------------
CARTESIAN COORDINATES (A.U.)
----------------------------
  NO LB      ZA    FRAG     MASS         X           Y           Z
   0 C     6.0000    0    12.011   -1.161395   -8.095925    0.942070
   1 C     6.0000    0    12.011   -2.366797   -7.367317   -1.281393
   2 C     6.0000    0    12.011   -2.007371   -4.937199   -2.237411
   3 C     6.0000    0    12.011   -0.440387   -3.203415   -0.981584
   4 C     6.0000    0    12.011    0.766225   -3.965042    1.252199
   5 C     6.0000    0    12.011    0.405099   -6.398531    2.206735
   6 P    15.0000    0    30.974   -0.078274   -0.079571   -2.293967
   7 O     8.0000    0    15.999   -0.110876   -0.160536   -5.165066
   8 C     6.0000    0    12.011   -2.600203    1.877449   -1.102243
   9 C     6.0000    0    12.011   -3.925477    1.308696    1.121307
  10 C     6.0000    0    12.011   -5.843623    2.903481    1.982219
  11 C     6.0000    0    12.011   -6.459978    5.079127    0.632733
  12 C     6.0000    0    12.011   -5.165532    5.663056   -1.583292
  13 C     6.0000    0    12.011   -3.249463    4.071441   -2.445846
  14 C     6.0000    0    12.011    2.877244    1.201112   -1.161025
  15 C     6.0000    0    12.011    5.106597    0.602071   -2.472023
  16 C     6.0000    0    12.011    7.440721    1.525767   -1.660463
  17 C     6.0000    0    12.011    7.560876    3.062235    0.472020
  18 C     6.0000    0    12.011    5.370331    3.683917    1.794259
  19 C     6.0000    0    12.011    3.035297    2.757239    0.979742
  20 Br   35.0000    0    79.900   10.716096    4.316837    1.580008
  21 H     1.0000    0     1.008   -1.435850   -9.991596    1.684449
  22 H     1.0000    0     1.008   -3.580768   -8.692039   -2.277349
  23 H     1.0000    0     1.008   -2.944573   -4.382970   -3.984620
  24 H     1.0000    0     1.008    2.000262   -2.679717    2.273575
  25 H     1.0000    0     1.008    1.352794   -6.974611    3.936564
  26 H     1.0000    0     1.008   -3.488502   -0.380205    2.205652
  27 H     1.0000    0     1.008   -6.865630    2.443380    3.704464
  28 H     1.0000    0     1.008   -7.958480    6.314658    1.302031
  29 H     1.0000    0     1.008   -5.652649    7.351974   -2.646690
  30 H     1.0000    0     1.008   -2.254729    4.530040   -4.188890
  31 H     1.0000    0     1.008    5.011554   -0.587969   -4.149926
  32 H     1.0000    0     1.008    9.140930    1.041936   -2.706409
  33 H     1.0000    0     1.008    5.458175    4.891458    3.454060
  34 H     1.0000    0     1.008    1.348354    3.270772    2.034564

--------------------------------
INTERNAL COORDINATES (ANGSTROEM)
--------------------------------
 C      0   0   0     0.000000000000     0.00000000     0.00000000
 C      1   0   0     1.392817259674     0.00000000     0.00000000
 C      2   1   0     1.394924629784   119.94238798     0.00000000
 C      3   2   1     1.403920797057   120.75211011   359.93411473
 C      4   3   2     1.402646778034   118.68589586     0.21716577
 C      1   2   3     1.393498226521   119.98030316   359.89660181
 P      4   3   2     1.803234908342   118.65599206   180.65287379
 O      7   4   3     1.520021903766   110.97177714   324.84129348
 C      7   4   3     1.803108911851   108.25019282    86.80581722
 C      9   7   4     1.402470026407   122.70291903    21.76479474
 C     10   9   7     1.396445655914   120.49688451   179.18772584
 C     11  10   9     1.393499330037   120.14870691     0.06179954
 C     12  11  10     1.392784920576   119.97745086     0.15870400
 C     13  12  11     1.394917120567   119.93642563   359.85701175
 C      7   4   3     1.806874334602   107.94058111   203.48269320
 C     15   7   4     1.404821620431   118.58054156    84.86401276
 C     16  15   7     1.396063061723   120.80129568   180.56129842
 C     17  16  15     1.392314653556   119.61641357   359.91092039
 C     18  17  16     1.393383907470   120.45617893   359.90809271
 C     19  18  17     1.397524525479   119.85704434     0.10705218
 Br    18  17  16     1.890065406428   119.79456615   179.97277981
 H      1   2   3     1.087072318220   119.97020002   180.20718750
 H      2   1   3     1.087139684849   120.10968310   179.73350899
 H      3   2   1     1.089418308103   119.59792337   179.55890247
 H      5   4   3     1.086827093388   120.85037985   179.72321080
 H      6   1   2     1.087366120081   119.86395935   180.34596327
 H     10   9   7     1.086958762729   120.86225926   358.98226225
 H     11  10   9     1.087368538299   119.97626831   179.76993053
 H     12  11  10     1.087070181857   120.04524755   179.77094111
 H     13  12  11     1.087139487226   120.10544017   179.54293484
 H     14  13  12     1.089387023478   119.58918805   179.48565435
 H     16  15   7     1.089717940594   119.60534111     0.96327222
 H     17  16  15     1.086915983436   119.55371361   180.14985220
 H     19  18  17     1.087174098972   120.59026843   180.32680303
 H     20  19  18     1.087345811004   118.67661076   180.22193936

---------------------------
INTERNAL COORDINATES (A.U.)
---------------------------
 C      0   0   0     0.000000000000     0.00000000     0.00000000
 C      1   0   0     2.632043175383     0.00000000     0.00000000
 C      2   1   0     2.636025527753   119.94238798     0.00000000
 C      3   2   1     2.653025820155   120.75211011   359.93411473
 C      4   3   2     2.650618273111   118.68589586     0.21716577
 C      1   2   3     2.633330016230   119.98030316   359.89660181
 P      4   3   2     3.407620131892   118.65599206   180.65287379
 O      7   4   3     2.872425115680   110.97177714   324.84129348
 C      7   4   3     3.407382033032   108.25019282    86.80581722
 C      9   7   4     2.650284260943   122.70291903    21.76479474
 C     10   9   7     2.638899850582   120.49688451   179.18772584
 C     11  10   9     2.633332101573   120.14870691     0.06179954
 C     12  11  10     2.631982063345   119.97745086     0.15870400
 C     13  12  11     2.636011337390   119.93642563   359.85701175
 C      7   4   3     3.414497650808   107.94058111   203.48269320
 C     15   7   4     2.654728129626   118.58054156    84.86401276
 C     16  15   7     2.638176852340   120.80129568   180.56129842
 C     17  16  15     2.631093387466   119.61641357   359.91092039
 C     18  17  16     2.633113984532   120.45617893   359.90809271
 C     19  18  17     2.640938618593   119.85704434     0.10705218
 Br    18  17  16     3.571705993347   119.79456615   179.97277981
 H      1   2   3     2.054268969203   119.97020002   180.20718750
 H      2   1   3     2.054396273682   120.10968310   179.73350899
 H      3   2   1     2.058702247595   119.59792337   179.55890247
 H      5   4   3     2.053805561429   120.85037985   179.72321080
 H      6   1   2     2.054824174258   119.86395935   180.34596327
 H     10   9   7     2.054054380424   120.86225926   358.98226225
 H     11  10   9     2.054828744028   119.97626831   179.76993053
 H     12  11  10     2.054264932062   120.04524755   179.77094111
 H     13  12  11     2.054395900229   120.10544017   179.54293484
 H     14  13  12     2.058643128221   119.58918805   179.48565435
 H     16  15   7     2.059268470944   119.60534111     0.96327222
 H     17  16  15     2.053973539276   119.55371361   180.14985220
 H     19  18  17     2.054461306949   120.59026843   180.32680303
 H     20  19  18     2.054785795664   118.67661076   180.22193936

---------------------
BASIS SET INFORMATION
---------------------
There are 5 groups of distinct atoms

 Group   1 Type C   : 7s4p1d contracted to 3s2p1d pattern {511/31/1}
 Group   2 Type P   : 10s7p1d contracted to 4s3p1d pattern {5311/511/1}
 Group   3 Type O   : 7s4p1d contracted to 3s2p1d pattern {511/31/1}
 Group   4 Type Br  : 14s10p6d contracted to 5s4p3d pattern {63311/5311/411}
 Group   5 Type H   : 4s1p contracted to 2s1p pattern {31/1}

Atom   0C    basis set group =>   1
Atom   1C    basis set group =>   1
Atom   2C    basis set group =>   1
Atom   3C    basis set group =>   1
Atom   4C    basis set group =>   1
Atom   5C    basis set group =>   1
Atom   6P    basis set group =>   2
Atom   7O    basis set group =>   3
Atom   8C    basis set group =>   1
Atom   9C    basis set group =>   1
Atom  10C    basis set group =>   1
Atom  11C    basis set group =>   1
Atom  12C    basis set group =>   1
Atom  13C    basis set group =>   1
Atom  14C    basis set group =>   1
Atom  15C    basis set group =>   1
Atom  16C    basis set group =>   1
Atom  17C    basis set group =>   1
Atom  18C    basis set group =>   1
Atom  19C    basis set group =>   1
Atom  20Br   basis set group =>   4
Atom  21H    basis set group =>   5
Atom  22H    basis set group =>   5
Atom  23H    basis set group =>   5
Atom  24H    basis set group =>   5
Atom  25H    basis set group =>   5
Atom  26H    basis set group =>   5
Atom  27H    basis set group =>   5
Atom  28H    basis set group =>   5
Atom  29H    basis set group =>   5
Atom  30H    basis set group =>   5
Atom  31H    basis set group =>   5
Atom  32H    basis set group =>   5
Atom  33H    basis set group =>   5
Atom  34H    basis set group =>   5
---------------------------------
AUXILIARY/J BASIS SET INFORMATION
---------------------------------
There are 5 groups of distinct atoms

 Group   1 Type C   : 12s5p4d2f1g contracted to 6s4p3d1f1g pattern {711111/2111/211/2/1}
 Group   2 Type P   : 14s5p5d2f1g contracted to 8s4p3d1f1g pattern {71111111/2111/311/2/1}
 Group   3 Type O   : 12s5p4d2f1g contracted to 6s4p3d1f1g pattern {711111/2111/211/2/1}
 Group   4 Type Br  : 19s5p5d3f1g contracted to 8s4p3d2f1g pattern {121111111/2111/311/21/1}
 Group   5 Type H   : 5s2p1d contracted to 3s1p1d pattern {311/2/1}

Atom   0C    basis set group =>   1
Atom   1C    basis set group =>   1
Atom   2C    basis set group =>   1
Atom   3C    basis set group =>   1
Atom   4C    basis set group =>   1
Atom   5C    basis set group =>   1
Atom   6P    basis set group =>   2
Atom   7O    basis set group =>   3
Atom   8C    basis set group =>   1
Atom   9C    basis set group =>   1
Atom  10C    basis set group =>   1
Atom  11C    basis set group =>   1
Atom  12C    basis set group =>   1
Atom  13C    basis set group =>   1
Atom  14C    basis set group =>   1
Atom  15C    basis set group =>   1
Atom  16C    basis set group =>   1
Atom  17C    basis set group =>   1
Atom  18C    basis set group =>   1
Atom  19C    basis set group =>   1
Atom  20Br   basis set group =>   4
Atom  21H    basis set group =>   5
Atom  22H    basis set group =>   5
Atom  23H    basis set group =>   5
Atom  24H    basis set group =>   5
Atom  25H    basis set group =>   5
Atom  26H    basis set group =>   5
Atom  27H    basis set group =>   5
Atom  28H    basis set group =>   5
Atom  29H    basis set group =>   5
Atom  30H    basis set group =>   5
Atom  31H    basis set group =>   5
Atom  32H    basis set group =>   5
Atom  33H    basis set group =>   5
Atom  34H    basis set group =>   5


           ************************************************************
           *        Program running with 6 parallel MPI-processes     *
           *              working on a common directory               *
           ************************************************************
------------------------------------------------------------------------------
                             ORCA STARTUP CALCULATIONS
                           -- RI-GTO INTEGRALS CHOSEN --
------------------------------------------------------------------------------
------------------------------------------------------------------------------
                   ___                                                        
                  /   \      - P O W E R E D   B Y -                         
                 /     \                                                     
                 |  |  |   _    _      __       _____    __    __             
                 |  |  |  | |  | |    /  \     |  _  \  |  |  /  |          
                  \  \/   | |  | |   /    \    | | | |  |  | /  /          
                 / \  \   | |__| |  /  /\  \   | |_| |  |  |/  /          
                |  |  |   |  __  | /  /__\  \  |    /   |      \           
                |  |  |   | |  | | |   __   |  |    \   |  |\   \          
                \     /   | |  | | |  |  |  |  | |\  \  |  | \   \       
                 \___/    |_|  |_| |__|  |__|  |_| \__\ |__|  \__/        
                                                                              
                      - O R C A' S   B I G   F R I E N D -                    
                                      &                                       
                       - I N T E G R A L  F E E D E R -                       
                                                                              
 v1 FN, 2020, v2 2021, v3 2022-2024                                           
------------------------------------------------------------------------------


----------------------
SHARK INTEGRAL PACKAGE
----------------------

Number of atoms                             ...     35
Number of basis functions                   ...    386
Number of shells                            ...    176
Maximum angular momentum                    ...      2
Integral batch strategy                     ... SHARK/LIBINT Hybrid
RI-J (if used) integral strategy            ... SPLIT-RIJ (Revised 2003 algorithm where possible)
Printlevel                                  ...      1
Contraction scheme used                     ... SEGMENTED contraction
Prescreening option                         ... SCHWARTZ
   Thresh                                   ... 2.500e-11
   Tcut                                     ... 2.500e-12
   Tpresel                                  ... 2.500e-12 
Coulomb Range Separation                    ... NOT USED
Exchange Range Separation                   ... NOT USED
Multipole approximations                    ... NOT USED
Finite Nucleus Model                        ... NOT USED
CABS basis                                  ... NOT available
Auxiliary Coulomb fitting basis             ... AVAILABLE
   # of basis functions in Aux-J            ...   1194
   # of shells in Aux-J                     ...    390
   Maximum angular momentum in Aux-J        ...      4
Auxiliary J/K fitting basis                 ... NOT available
Auxiliary Correlation fitting basis         ... NOT available
Auxiliary 'external' fitting basis          ... NOT available

Checking pre-screening integrals            ... done (  0.0 sec) Dimension = 176
Check shell pair data                       ... done (  0.0 sec)
Shell pair information
Shell pair cut-off parameter TPreSel        ...   2.5e-12
Total number of shell pairs                 ...     15576
Shell pairs after pre-screening             ...     11510
Total number of primitive shell pairs       ...     60383
Primitive shell pairs kept                  ...     27743
          la=0 lb=0:   3409 shell pairs
          la=1 lb=0:   4235 shell pairs
          la=1 lb=1:   1361 shell pairs
          la=2 lb=0:   1438 shell pairs
          la=2 lb=1:    920 shell pairs
          la=2 lb=2:    147 shell pairs

Calculating one electron integrals          ... done (  0.0 sec)
Calculating RI/J V-Matrix + Cholesky decomp.... done (  0.1 sec)
Calculating Nuclear repulsion               ... done (  0.0 sec) ENN=   2039.387419039235 Eh

Diagonalization of the overlap matrix:
Smallest eigenvalue                        ... 2.678e-04
Time for diagonalization                   ...    0.019 sec
Threshold for overlap eigenvalues          ... 1.000e-07
Number of eigenvalues below threshold      ... 0
Time for construction of square roots      ...    0.011 sec
Total time needed                          ...    0.032 sec

-------------------
DFT GRID GENERATION
-------------------

General Integration Accuracy     IntAcc      ... 4.388
Radial Grid Type                 RadialGrid  ... OptM3 with GC (2021)
Angular Grid (max. ang.)         AngularGrid ... 4 (Lebedev-302)
Angular grid pruning method      GridPruning ... 4 (adaptive)
Weight generation scheme         WeightScheme... mBecke (2022)
Basis function cutoff            BFCut       ... 1.0000e-11
Integration weight cutoff        WCut        ... 1.0000e-14
Partially contracted basis set               ... off
Rotationally invariant grid construction     ... off
Angular grids for H and He will be reduced by one unit
Core-polarized basis detected: some atoms will have their core
                               angular grid increased.

Total number of grid points                  ...   176771
Total number of batches                      ...     2781
Average number of points per batch           ...       63
Average number of grid points per atom       ...     5051
Initializing property integral containers    ... done (  0.0 sec)

SHARK setup successfully completed in   1.4 seconds

Maximum memory used throughout the entire STARTUP-calculation: 56.7 MB


           ************************************************************
           *        Program running with 6 parallel MPI-processes     *
           *              working on a common directory               *
           ************************************************************
-------------------------------------------------------------------------------
                                 ORCA GUESS
                   Start orbitals & Density for SCF / CASSCF
-------------------------------------------------------------------------------

------------
SCF SETTINGS
------------
Hamiltonian:
 Density Functional     Method          .... DFT(GTOs)
 Exchange Functional    Exchange        .... B88
   X-Alpha parameter    XAlpha          ....  0.666667
   Becke's b parameter  XBeta           ....  0.004200
 Correlation Functional Correlation     .... P86
 LDA part of GGA corr.  LDAOpt          .... PW91-LDA
 Gradients option       PostSCFGGA      .... off
   NL short-range parameter             ....  4.400000
 RI-approximation to the Coulomb term is turned on
   Number of AuxJ basis functions       .... 1194


General Settings:
 Integral files         IntName         .... data/geom_opt_PO_BP86/69773/69773
 Hartree-Fock type      HFTyp           .... RHF
 Total Charge           Charge          ....    0
 Multiplicity           Mult            ....    1
 Number of Electrons    NEL             ....  180
 Basis Dimension        Dim             ....  386
 Nuclear Repulsion      ENuc            ....   2039.3874190392 Eh

Convergence Acceleration:
 AO-DIIS                CNVDIIS         .... on
   Start iteration      DIISMaxIt       ....    12
   Startup error        DIISStart       ....  0.200000
   # of expansion vecs  DIISMaxEq       ....     5
   Bias factor          DIISBfac        ....   1.050
   Max. coefficient     DIISMaxC        ....  10.000
 MO-DIIS                CNVKDIIS        .... off
 Trust-Rad. Augm. Hess. CNVTRAH         .... auto
   Auto Start mean grad. ratio tolernc. ....  1.125000
   Auto Start start iteration           ....    50
   Auto Start num. interpolation iter.  ....    10
   Max. Number of Micro iterations      ....    24
   Max. Number of Macro iterations      .... Maxiter - #DIIS iter
   Number of Davidson start vectors     ....     2
   Converg. threshold    (grad. norm)   ....   1.000e-05
   Grad. Scal. Fac. for Micro threshold ....   0.100
   Minimum threshold for Micro iter.    ....   1.000e-02
   NR start threshold (gradient norm)   ....   1.000e-04
   Initial trust radius                 ....   0.400
   Minimum AH scaling param. (alpha)    ....   1.000
   Maximum AH scaling param. (alpha)    .... 1000.000
   Quad. conv. algorithm                .... NR
   White noise on init. David. guess    .... on
   Maximum white noise                  ....   0.010
   Pseudo random numbers                .... off
   Inactive MOs                         .... canonical
   Orbital update algorithm             .... Taylor
   Preconditioner                       .... Diag
   Full preconditioner red. dimension   ....   250
 SOSCF                  CNVSOSCF        .... on
   Start iteration      SOSCFMaxIt      ....   150
   Startup grad/error   SOSCFStart      ....  0.003300
   Hessian update       SOSCFHessUp     .... L-BFGS
 Level Shifting         CNVShift        .... on
   Level shift para.    LevelShift      ....    0.2500
   Turn off err/grad.   ShiftErr        ....    0.0010
 Zerner damping         CNVZerner       .... off
 Static damping         CNVDamp         .... on
   Fraction old density DampFac         ....    0.7000
   Max. Damping (<1)    DampMax         ....    0.9800
   Min. Damping (>=0)   DampMin         ....    0.0000
   Turn off err/grad.   DampErr         ....    0.1000

SCF Procedure:
 Maximum # iterations   MaxIter         ....   125
 SCF integral mode      SCFMode         .... Direct
   Integral package                     .... SHARK and LIBINT hybrid scheme
 Reset frequency        DirectResetFreq ....    20
 Integral Threshold     Thresh          ....  2.500e-11 Eh
 Primitive CutOff       TCut            ....  2.500e-12 Eh

Convergence Tolerance:
 Convergence Check Mode ConvCheckMode   .... Total+1el-Energy
 Convergence forced     ConvForced      .... 0
 Energy Change          TolE            ....  1.000e-08 Eh
 1-El. energy change                    ....  1.000e-05 Eh
 Orbital Gradient       TolG            ....  1.000e-05
 Orbital Rotation angle TolX            ....  1.000e-05
 DIIS Error             TolErr          ....  5.000e-07

------------------------------
INITIAL GUESS: MODEL POTENTIAL
------------------------------
Loading Hartree-Fock densities                     ... done
Calculating cut-offs                               ... done
Initializing the effective Hamiltonian             ... done
Setting up the integral package (SHARK)            ... done
Starting the Coulomb interaction                   ... done (   0.1 sec)
Making the grid                                    ... done (   0.3 sec)
Mapping shells                                     ... done
Starting the XC term evaluation                    ... done (   0.2 sec)
  promolecular density results
     # of electrons  =    179.980941149
     EX              =   -217.270063639
     EC              =     -7.348224314
     EX+EC           =   -224.618287953
Transforming the Hamiltonian                       ... done (   0.0 sec)
Diagonalizing the Hamiltonian                      ... done (   0.0 sec)
Back transforming the eigenvectors                 ... done (   0.0 sec)
Now organizing SCF variables                       ... done
                      ------------------
                      INITIAL GUESS DONE (   0.7 sec)
                      ------------------
             **** ENERGY FILE WAS UPDATED (data/geom_opt_PO_BP86/69773/69773.en.tmp) ****
Finished Guess after   0.8 sec
Maximum memory used throughout the entire GUESS-calculation: 33.1 MB


           ************************************************************
           *        Program running with 6 parallel MPI-processes     *
           *              working on a common directory               *
           ************************************************************

-------------------------------------------------------------------------------------------
                                      ORCA LEAN-SCF
                              memory conserving SCF solver
-------------------------------------------------------------------------------------------

----------------------------------------D-I-I-S--------------------------------------------
Iteration    Energy (Eh)           Delta-E    RMSDP     MaxDP     DIISErr   Damp  Time(sec)
-------------------------------------------------------------------------------------------
               ***  Starting incremental Fock matrix formation  ***
    1    -3684.0023021426727610     0.00e+00  3.20e-03  1.59e-01  3.36e-01  0.700   1.1
    2    -3684.2190188500749173    -2.17e-01  1.83e-03  6.08e-02  7.71e-02  0.700   1.0
                               ***Turning on AO-DIIS***
    3    -3684.2855273491418302    -6.65e-02  6.39e-04  1.90e-02  3.28e-02  0.700   0.9
    4    -3684.3319041676936649    -4.64e-02  1.16e-03  4.88e-02  1.87e-02  0.000   1.0
    5    -3684.4357505543825937    -1.04e-01  2.84e-04  9.57e-03  6.36e-03  0.000   1.2
                              *** Initializing SOSCF ***
---------------------------------------S-O-S-C-F--------------------------------------
Iteration    Energy (Eh)           Delta-E    RMSDP     MaxDP     MaxGrad    Time(sec)
--------------------------------------------------------------------------------------
    6    -3684.4368958458139787    -1.15e-03  9.97e-05  3.21e-03  3.19e-03     1.3
               *** Restarting incremental Fock matrix formation ***
    7    -3684.4369728584892982    -7.70e-05  9.23e-05  4.19e-03  4.21e-04     1.1
    8    -3684.4369531248216845     1.97e-05  5.57e-05  2.07e-03  7.10e-04     0.9
    9    -3684.4369856525040632    -3.25e-05  3.03e-05  1.59e-03  1.72e-04     0.8
   10    -3684.4369836722030414     1.98e-06  1.47e-05  6.70e-04  2.29e-04     0.8
   11    -3684.4369874893113774    -3.82e-06  1.17e-05  6.22e-04  7.08e-05     0.9
   12    -3684.4369870111263481     4.78e-07  7.21e-06  4.18e-04  1.28e-04     0.8
   13    -3684.4369877192834792    -7.08e-07  5.22e-06  1.96e-04  2.74e-05     0.8
   14    -3684.4369875608695111     1.58e-07  3.40e-06  1.48e-04  4.26e-05     0.7
   15    -3684.4369877573467420    -1.96e-07  2.59e-06  1.02e-04  9.89e-06     0.8
   16    -3684.4369877209542210     3.64e-08  1.78e-06  7.08e-05  2.46e-05     0.8
   17    -3684.4369877684198400    -4.75e-08  5.44e-07  2.20e-05  4.06e-06     0.8
   18    -3684.4369877681442631     2.76e-10  3.03e-07  1.15e-05  4.95e-06     0.7
                 **** Energy Check signals convergence ****

               *****************************************************
               *                     SUCCESS                       *
               *           SCF CONVERGED AFTER  18 CYCLES          *
               *****************************************************

             **** ENERGY FILE WAS UPDATED (data/geom_opt_PO_BP86/69773/69773.en.tmp) ****

----------------
TOTAL SCF ENERGY
----------------

Total Energy       :      -3684.43698776814426 Eh         -100258.62749 eV

Components:
Nuclear Repulsion  :       2039.38741903923483 Eh           55494.55296 eV
Electronic Energy  :      -5723.82440680737909 Eh         -155753.18045 eV
One Electron Energy:      -9151.95121728020786 Eh         -249037.25343 eV
Two Electron Energy:       3428.12681047282877 Eh           93284.07298 eV

Virial components:
Potential Energy   :      -7355.74848829798248 Eh         -200160.09231 eV
Kinetic Energy     :       3671.31150052983867 Eh           99901.46482 eV
Virial Ratio       :          2.00357514943540

DFT components:
N(Alpha)           :       90.000074973355 electrons
N(Beta)            :       90.000074973355 electrons
N(Total)           :      180.000149946710 electrons
E(X)               :     -218.960616611450 Eh       
E(C)               :       -7.355116749177 Eh       
E(XC)              :     -226.315733360627 Eh       

---------------
SCF CONVERGENCE
---------------

  Last Energy change         ...   -2.7558e-10  Tolerance :   1.0000e-08
  Last MAX-Density change    ...    1.1533e-05  Tolerance :   1.0000e-07
  Last RMS-Density change    ...    3.0251e-07  Tolerance :   5.0000e-09
  Last DIIS Error            ...    3.1947e-03  Tolerance :   5.0000e-07
  Last Orbital Gradient      ...    4.9502e-06  Tolerance :   1.0000e-05
  Last Orbital Rotation      ...    1.2421e-05  Tolerance :   1.0000e-05


----------------
ORBITAL ENERGIES
----------------

  NO   OCC          E(Eh)            E(eV) 
   0   2.0000    -481.083864    -13090.9575 
   1   2.0000     -76.414949     -2079.3565 
   2   2.0000     -61.812531     -1682.0045 
   3   2.0000     -55.742490     -1516.8303 
   4   2.0000     -55.739704     -1516.7545 
   5   2.0000     -55.739625     -1516.7523 
   6   2.0000     -18.708925      -509.0957 
   7   2.0000      -9.978613      -271.5319 
   8   2.0000      -9.940570      -270.4967 
   9   2.0000      -9.938405      -270.4378 
  10   2.0000      -9.937791      -270.4210 
  11   2.0000      -9.937485      -270.4127 
  12   2.0000      -9.933177      -270.2955 
  13   2.0000      -9.933130      -270.2942 
  14   2.0000      -9.932761      -270.2842 
  15   2.0000      -9.930160      -270.2134 
  16   2.0000      -9.929976      -270.2084 
  17   2.0000      -9.929800      -270.2036 
  18   2.0000      -9.929759      -270.2025 
  19   2.0000      -9.929346      -270.1912 
  20   2.0000      -9.929109      -270.1848 
  21   2.0000      -9.928958      -270.1807 
  22   2.0000      -9.928814      -270.1768 
  23   2.0000      -9.927907      -270.1521 
  24   2.0000      -9.927653      -270.1452 
  25   2.0000      -8.417153      -229.0424 
  26   2.0000      -6.374008      -173.4456 
  27   2.0000      -6.299582      -171.4203 
  28   2.0000      -6.285811      -171.0456 
  29   2.0000      -6.285120      -171.0268 
  30   2.0000      -4.595139      -125.0401 
  31   2.0000      -4.595074      -125.0383 
  32   2.0000      -4.594966      -125.0354 
  33   2.0000      -2.501972       -68.0821 
  34   2.0000      -2.498565       -67.9894 
  35   2.0000      -2.498118       -67.9772 
  36   2.0000      -2.487741       -67.6949 
  37   2.0000      -2.487730       -67.6946 
  38   2.0000      -0.848400       -23.0861 
  39   2.0000      -0.806070       -21.9343 
  40   2.0000      -0.787752       -21.4358 
  41   2.0000      -0.786191       -21.3934 
  42   2.0000      -0.747770       -20.3479 
  43   2.0000      -0.700953       -19.0739 
  44   2.0000      -0.692623       -18.8472 
  45   2.0000      -0.684018       -18.6131 
  46   2.0000      -0.683303       -18.5936 
  47   2.0000      -0.682034       -18.5591 
  48   2.0000      -0.669107       -18.2073 
  49   2.0000      -0.590753       -16.0752 
  50   2.0000      -0.567711       -15.4482 
  51   2.0000      -0.556894       -15.1539 
  52   2.0000      -0.555880       -15.1263 
  53   2.0000      -0.548665       -14.9299 
  54   2.0000      -0.546343       -14.8667 
  55   2.0000      -0.513591       -13.9755 
  56   2.0000      -0.482213       -13.1217 
  57   2.0000      -0.480414       -13.0727 
  58   2.0000      -0.449311       -12.2264 
  59   2.0000      -0.436484       -11.8773 
  60   2.0000      -0.422760       -11.5039 
  61   2.0000      -0.421321       -11.4647 
  62   2.0000      -0.415769       -11.3136 
  63   2.0000      -0.412720       -11.2307 
  64   2.0000      -0.405356       -11.0303 
  65   2.0000      -0.395584       -10.7644 
  66   2.0000      -0.388893       -10.5823 
  67   2.0000      -0.388146       -10.5620 
  68   2.0000      -0.385283       -10.4841 
  69   2.0000      -0.384536       -10.4638 
  70   2.0000      -0.362162        -9.8549 
  71   2.0000      -0.347754        -9.4629 
  72   2.0000      -0.346749        -9.4355 
  73   2.0000      -0.341482        -9.2922 
  74   2.0000      -0.328678        -8.9438 
  75   2.0000      -0.320020        -8.7082 
  76   2.0000      -0.318262        -8.6603 
  77   2.0000      -0.313469        -8.5299 
  78   2.0000      -0.312232        -8.4963 
  79   2.0000      -0.299712        -8.1556 
  80   2.0000      -0.290300        -7.8995 
  81   2.0000      -0.261109        -7.1051 
  82   2.0000      -0.254774        -6.9327 
  83   2.0000      -0.251294        -6.8380 
  84   2.0000      -0.247736        -6.7412 
  85   2.0000      -0.244967        -6.6659 
  86   2.0000      -0.242875        -6.6090 
  87   2.0000      -0.231142        -6.2897 
  88   2.0000      -0.211223        -5.7477 
  89   2.0000      -0.210982        -5.7411 
  90   0.0000      -0.073769        -2.0074 
  91   0.0000      -0.069749        -1.8980 
  92   0.0000      -0.068073        -1.8524 
  93   0.0000      -0.063069        -1.7162 
  94   0.0000      -0.052917        -1.4399 
  95   0.0000      -0.049385        -1.3438 
  96   0.0000      -0.032343        -0.8801 
  97   0.0000       0.034208         0.9308 
  98   0.0000       0.041334         1.1247 
  99   0.0000       0.044810         1.2193 
 100   0.0000       0.059033         1.6064 
*Only the first 10 virtual orbitals were printed.

                    ********************************
                    * MULLIKEN POPULATION ANALYSIS *
                    ********************************

-----------------------
MULLIKEN ATOMIC CHARGES
-----------------------
   0 C :    0.015539
   1 C :    0.011479
   2 C :    0.013980
   3 C :   -0.116572
   4 C :   -0.005620
   5 C :    0.012446
   6 P :    0.623950
   7 O :   -0.465481
   8 C :   -0.118304
   9 C :   -0.007200
  10 C :    0.012604
  11 C :    0.015634
  12 C :    0.011531
  13 C :    0.013997
  14 C :   -0.112491
  15 C :    0.011382
  16 C :    0.021440
  17 C :   -0.017505
  18 C :    0.025298
  19 C :   -0.009126
  20 Br:   -0.023514
  21 H :    0.002457
  22 H :    0.004272
  23 H :    0.014904
  24 H :    0.001345
  25 H :   -0.000627
  26 H :    0.003378
  27 H :   -0.000927
  28 H :    0.002512
  29 H :    0.004497
  30 H :    0.014916
  31 H :    0.021147
  32 H :    0.006925
  33 H :    0.001583
  34 H :    0.010147
Sum of atomic charges:   -0.0000000

--------------------------------
MULLIKEN REDUCED ORBITAL CHARGES
--------------------------------
  0 C s       :     3.170369  s :     3.170369
      pz      :     0.948979  p :     2.781010
      px      :     0.966279
      py      :     0.865752
      dz2     :     0.007586  d :     0.033082
      dxz     :     0.005817
      dyz     :     0.008139
      dx2y2   :     0.006728
      dxy     :     0.004812

  1 C s       :     3.172008  s :     3.172008
      pz      :     0.935516  p :     2.783738
      px      :     0.934241
      py      :     0.913981
      dz2     :     0.006894  d :     0.032776
      dxz     :     0.004987
      dyz     :     0.009246
      dx2y2   :     0.005038
      dxy     :     0.006610

  2 C s       :     3.238515  s :     3.238515
      pz      :     0.874119  p :     2.714807
      px      :     0.934496
      py      :     0.906193
      dz2     :     0.006078  d :     0.032698
      dxz     :     0.004406
      dyz     :     0.008214
      dx2y2   :     0.006877
      dxy     :     0.007123

  3 C s       :     3.070165  s :     3.070165
      pz      :     0.986307  p :     3.013168
      px      :     1.027057
      py      :     0.999805
      dz2     :     0.007760  d :     0.033239
      dxz     :     0.005750
      dyz     :     0.008144
      dx2y2   :     0.006716
      dxy     :     0.004869

  4 C s       :     3.227061  s :     3.227061
      pz      :     0.932593  p :     2.745604
      px      :     0.929143
      py      :     0.883868
      dz2     :     0.006849  d :     0.032955
      dxz     :     0.005137
      dyz     :     0.009211
      dx2y2   :     0.004948
      dxy     :     0.006811

  5 C s       :     3.170127  s :     3.170127
      pz      :     0.878732  p :     2.784743
      px      :     0.948559
      py      :     0.957452
      dz2     :     0.006133  d :     0.032684
      dxz     :     0.004489
      dyz     :     0.008059
      dx2y2   :     0.006882
      dxy     :     0.007121

  6 P s       :     5.211190  s :     5.211190
      pz      :     2.809869  p :     8.679128
      px      :     2.932684
      py      :     2.936575
      dz2     :     0.090972  d :     0.485732
      dxz     :     0.133623
      dyz     :     0.138976
      dx2y2   :     0.059150
      dxy     :     0.063012

  7 O s       :     3.823612  s :     3.823612
      pz      :     1.330771  p :     4.630167
      px      :     1.649818
      py      :     1.649578
      dz2     :     0.005036  d :     0.011702
      dxz     :     0.003300
      dyz     :     0.003297
      dx2y2   :     0.000037
      dxy     :     0.000032

  8 C s       :     3.071151  s :     3.071151
      pz      :     0.985941  p :     3.013906
      px      :     1.002119
      py      :     1.025845
      dz2     :     0.007933  d :     0.033248
      dxz     :     0.006189
      dyz     :     0.007605
      dx2y2   :     0.004931
      dxy     :     0.006589

  9 C s       :     3.228177  s :     3.228177
      pz      :     0.932427  p :     2.746080
      px      :     0.945867
      py      :     0.867787
      dz2     :     0.006685  d :     0.032943
      dxz     :     0.006584
      dyz     :     0.007803
      dx2y2   :     0.006563
      dxy     :     0.005307

 10 C s       :     3.170142  s :     3.170142
      pz      :     0.879323  p :     2.784570
      px      :     0.944983
      py      :     0.960264
      dz2     :     0.006129  d :     0.032684
      dxz     :     0.005985
      dyz     :     0.006624
      dx2y2   :     0.007115
      dxy     :     0.006831

 11 C s       :     3.170449  s :     3.170449
      pz      :     0.951666  p :     2.780832
      px      :     0.903590
      py      :     0.925577
      dz2     :     0.007796  d :     0.033085
      dxz     :     0.005948
      dyz     :     0.007897
      dx2y2   :     0.004791
      dxy     :     0.006654

 12 C s       :     3.171996  s :     3.171996
      pz      :     0.931815  p :     2.783698
      px      :     0.964014
      py      :     0.887869
      dz2     :     0.006738  d :     0.032776
      dxz     :     0.006720
      dyz     :     0.007610
      dx2y2   :     0.006295
      dxy     :     0.005412

 13 C s       :     3.238601  s :     3.238601
      pz      :     0.876394  p :     2.714700
      px      :     0.898129
      py      :     0.940177
      dz2     :     0.006078  d :     0.032702
      dxz     :     0.005974
      dyz     :     0.006718
      dx2y2   :     0.007209
      dxy     :     0.006722

 14 C s       :     3.066073  s :     3.066073
      pz      :     0.986560  p :     3.013308
      px      :     1.013376
      py      :     1.013373
      dz2     :     0.007571  d :     0.033109
      dxz     :     0.008286
      dyz     :     0.005039
      dx2y2   :     0.005968
      dxy     :     0.006246

 15 C s       :     3.243156  s :     3.243156
      pz      :     0.885058  p :     2.712623
      px      :     0.918254
      py      :     0.909311
      dz2     :     0.005588  d :     0.032838
      dxz     :     0.008599
      dyz     :     0.004091
      dx2y2   :     0.007153
      dxy     :     0.007407

 16 C s       :     3.226956  s :     3.226956
      pz      :     0.929269  p :     2.719481
      px      :     0.825814
      py      :     0.964397
      dz2     :     0.006656  d :     0.032122
      dxz     :     0.008390
      dyz     :     0.004825
      dx2y2   :     0.006691
      dxy     :     0.005560

 17 C s       :     3.005762  s :     3.005762
      pz      :     1.026704  p :     2.967420
      px      :     0.921294
      py      :     1.019422
      dz2     :     0.009246  d :     0.044323
      dxz     :     0.011431
      dyz     :     0.005640
      dx2y2   :     0.008759
      dxy     :     0.009248

 18 C s       :     3.224092  s :     3.224092
      pz      :     0.879784  p :     2.718604
      px      :     0.909598
      py      :     0.929222
      dz2     :     0.005270  d :     0.032006
      dxz     :     0.008536
      dyz     :     0.004034
      dx2y2   :     0.006970
      dxy     :     0.007196

 19 C s       :     3.232763  s :     3.232763
      pz      :     0.935539  p :     2.743260
      px      :     0.845049
      py      :     0.962672
      dz2     :     0.006433  d :     0.033102
      dxz     :     0.009434
      dyz     :     0.004448
      dx2y2   :     0.006558
      dxy     :     0.006228

 20 Brs       :     7.962295  s :     7.962295
      pz      :     5.868143  p :    17.015967
      px      :     5.314282
      py      :     5.833542
      dz2     :     2.005727  d :    10.045252
      dxz     :     2.011645
      dyz     :     2.002369
      dx2y2   :     2.012100
      dxy     :     2.013410

 21 H s       :     0.975251  s :     0.975251
      pz      :     0.005345  p :     0.022292
      px      :     0.004592
      py      :     0.012355

 22 H s       :     0.973392  s :     0.973392
      pz      :     0.006426  p :     0.022336
      px      :     0.007945
      py      :     0.007964

 23 H s       :     0.962461  s :     0.962461
      pz      :     0.011812  p :     0.022635
      px      :     0.006117
      py      :     0.004706

 24 H s       :     0.975594  s :     0.975594
      pz      :     0.006462  p :     0.023061
      px      :     0.008403
      py      :     0.008196

 25 H s       :     0.978257  s :     0.978257
      pz      :     0.011118  p :     0.022370
      px      :     0.006631
      py      :     0.004621

 26 H s       :     0.973537  s :     0.973537
      pz      :     0.006753  p :     0.023085
      px      :     0.004875
      py      :     0.011457

 27 H s       :     0.978560  s :     0.978560
      pz      :     0.011051  p :     0.022366
      px      :     0.006773
      py      :     0.004542

 28 H s       :     0.975195  s :     0.975195
      pz      :     0.005098  p :     0.022293
      px      :     0.009565
      py      :     0.007630

 29 H s       :     0.973165  s :     0.973165
      pz      :     0.006757  p :     0.022338
      px      :     0.004793
      py      :     0.010787

 30 H s       :     0.962463  s :     0.962463
      pz      :     0.011735  p :     0.022621
      px      :     0.006620
      py      :     0.004265

 31 H s       :     0.956154  s :     0.956154
      pz      :     0.011309  p :     0.022699
      px      :     0.003749
      py      :     0.007641

 32 H s       :     0.970462  s :     0.970462
      pz      :     0.006650  p :     0.022613
      px      :     0.010980
      py      :     0.004983

 33 H s       :     0.975779  s :     0.975779
      pz      :     0.010817  p :     0.022638
      px      :     0.003659
      py      :     0.008162

 34 H s       :     0.966708  s :     0.966708
      pz      :     0.006657  p :     0.023145
      px      :     0.011295
      py      :     0.005193



                     *******************************
                     * LOEWDIN POPULATION ANALYSIS *
                     *******************************

----------------------
LOEWDIN ATOMIC CHARGES
----------------------
   0 C :   -0.016148
   1 C :   -0.023769
   2 C :   -0.006251
   3 C :   -0.187136
   4 C :   -0.030619
   5 C :   -0.027176
   6 P :    0.883266
   7 O :   -0.496356
   8 C :   -0.187501
   9 C :   -0.030309
  10 C :   -0.027256
  11 C :   -0.016127
  12 C :   -0.023716
  13 C :   -0.006598
  14 C :   -0.187264
  15 C :    0.000133
  16 C :   -0.036137
  17 C :   -0.115639
  18 C :   -0.039710
  19 C :   -0.023810
  20 Br:    0.114613
  21 H :    0.032623
  22 H :    0.034255
  23 H :    0.036750
  24 H :    0.029908
  25 H :    0.032497
  26 H :    0.030727
  27 H :    0.032397
  28 H :    0.032646
  29 H :    0.034354
  30 H :    0.036653
  31 H :    0.040708
  32 H :    0.038630
  33 H :    0.036602
  34 H :    0.034761

-------------------------------
LOEWDIN REDUCED ORBITAL CHARGES
-------------------------------
  0 C s       :     2.864940  s :     2.864940
      pz      :     1.033010  p :     3.061809
      px      :     0.995330
      py      :     1.033469
      dz2     :     0.019859  d :     0.089399
      dxz     :     0.016643
      dyz     :     0.022770
      dx2y2   :     0.016844
      dxy     :     0.013282

  1 C s       :     2.863615  s :     2.863615
      pz      :     1.031997  p :     3.071193
      px      :     0.993715
      py      :     1.045480
      dz2     :     0.018316  d :     0.088961
      dxz     :     0.013508
      dyz     :     0.026428
      dx2y2   :     0.014023
      dxy     :     0.016686

  2 C s       :     2.867793  s :     2.867793
      pz      :     1.019707  p :     3.049313
      px      :     0.981603
      py      :     1.048002
      dz2     :     0.016174  d :     0.089145
      dxz     :     0.011380
      dyz     :     0.023192
      dx2y2   :     0.018888
      dxy     :     0.019510

  3 C s       :     2.914033  s :     2.914033
      pz      :     1.066029  p :     3.184404
      px      :     1.039450
      py      :     1.078925
      dz2     :     0.019818  d :     0.088699
      dxz     :     0.016384
      dyz     :     0.022534
      dx2y2   :     0.016454
      dxy     :     0.013510

  4 C s       :     2.867351  s :     2.867351
      pz      :     1.027985  p :     3.072981
      px      :     0.994234
      py      :     1.050762
      dz2     :     0.018224  d :     0.090286
      dxz     :     0.013639
      dyz     :     0.027115
      dx2y2   :     0.014017
      dxy     :     0.017291

  5 C s       :     2.863978  s :     2.863978
      pz      :     1.019781  p :     3.074404
      px      :     1.000384
      py      :     1.054239
      dz2     :     0.015872  d :     0.088794
      dxz     :     0.011724
      dyz     :     0.022992
      dx2y2   :     0.018843
      dxy     :     0.019363

  6 P s       :     4.930783  s :     4.930783
      pz      :     2.779467  p :     8.508100
      px      :     2.863410
      py      :     2.865224
      dz2     :     0.134810  d :     0.677852
      dxz     :     0.179577
      dyz     :     0.188404
      dx2y2   :     0.084583
      dxy     :     0.090478

  7 O s       :     3.666987  s :     3.666987
      pz      :     1.464045  p :     4.811219
      px      :     1.673424
      py      :     1.673751
      dz2     :     0.010498  d :     0.018150
      dxz     :     0.003772
      dyz     :     0.003780
      dx2y2   :     0.000053
      dxy     :     0.000047

  8 C s       :     2.914038  s :     2.914038
      pz      :     1.066327  p :     3.184756
      px      :     1.053150
      py      :     1.065279
      dz2     :     0.020169  d :     0.088706
      dxz     :     0.017221
      dyz     :     0.021634
      dx2y2   :     0.012830
      dxy     :     0.016853

  9 C s       :     2.867442  s :     2.867442
      pz      :     1.027394  p :     3.072624
      px      :     1.019895
      py      :     1.025335
      dz2     :     0.017827  d :     0.090243
      dxz     :     0.019718
      dyz     :     0.021011
      dx2y2   :     0.016522
      dxy     :     0.015166

 10 C s       :     2.864003  s :     2.864003
      pz      :     1.020132  p :     3.074448
      px      :     1.015252
      py      :     1.039063
      dz2     :     0.015883  d :     0.088806
      dxz     :     0.015801
      dyz     :     0.019066
      dx2y2   :     0.018248
      dxy     :     0.019806

 11 C s       :     2.864954  s :     2.864954
      pz      :     1.033900  p :     3.061768
      px      :     1.000929
      py      :     1.026940
      dz2     :     0.020367  d :     0.089406
      dxz     :     0.016562
      dyz     :     0.022693
      dx2y2   :     0.012505
      dxy     :     0.017278

 12 C s       :     2.863610  s :     2.863610
      pz      :     1.031400  p :     3.071144
      px      :     1.018910
      py      :     1.020834
      dz2     :     0.017961  d :     0.088962
      dxz     :     0.019622
      dyz     :     0.020425
      dx2y2   :     0.015524
      dxy     :     0.015430

 13 C s       :     2.867798  s :     2.867798
      pz      :     1.019814  p :     3.049634
      px      :     1.005688
      py      :     1.024132
      dz2     :     0.016191  d :     0.089165
      dxz     :     0.015825
      dyz     :     0.018989
      dx2y2   :     0.018267
      dxy     :     0.019893

 14 C s       :     2.914758  s :     2.914758
      pz      :     1.060546  p :     3.184286
      px      :     1.087158
      py      :     1.036582
      dz2     :     0.018716  d :     0.088221
      dxz     :     0.023225
      dyz     :     0.014492
      dx2y2   :     0.016244
      dxy     :     0.015545

 15 C s       :     2.868018  s :     2.868018
      pz      :     1.013411  p :     3.042624
      px      :     1.053513
      py      :     0.975700
      dz2     :     0.014651  d :     0.089225
      dxz     :     0.024382
      dyz     :     0.010069
      dx2y2   :     0.021047
      dxy     :     0.019076

 16 C s       :     2.867309  s :     2.867309
      pz      :     1.023274  p :     3.080334
      px      :     1.055464
      py      :     1.001595
      dz2     :     0.017414  d :     0.088495
      dxz     :     0.023690
      dyz     :     0.014437
      dx2y2   :     0.018140
      dxy     :     0.014814

 17 C s       :     2.912131  s :     2.912131
      pz      :     1.070796  p :     3.095080
      px      :     0.991738
      py      :     1.032545
      dz2     :     0.021911  d :     0.108429
      dxz     :     0.028972
      dyz     :     0.015134
      dx2y2   :     0.021454
      dxy     :     0.020957

 18 C s       :     2.867732  s :     2.867732
      pz      :     1.021483  p :     3.083710
      px      :     1.059951
[...]
      dxz     :     0.019754
      dyz     :     0.021190
      dx2y2   :     0.011513
      dxy     :     0.013249

 13 C s       :     2.875225  s :     2.875225
      pz      :     1.035036  p :     3.051942
      px      :     1.000113
      py      :     1.016793
      dz2     :     0.019163  d :     0.086951
      dxz     :     0.015972
      dyz     :     0.018679
      dx2y2   :     0.015607
      dxy     :     0.017530

 14 C s       :     2.921281  s :     2.921281
      pz      :     1.070091  p :     3.177696
      px      :     1.083889
      py      :     1.023716
      dz2     :     0.021437  d :     0.086124
      dxz     :     0.026212
      dyz     :     0.013961
      dx2y2   :     0.012766
      dxy     :     0.011748

 15 C s       :     2.874496  s :     2.874496
      pz      :     1.032912  p :     3.044908
      px      :     1.051192
      py      :     0.960804
      dz2     :     0.018388  d :     0.087496
      dxz     :     0.026175
      dyz     :     0.008367
      dx2y2   :     0.017996
      dxy     :     0.016569

 16 C s       :     2.875864  s :     2.875864
      pz      :     1.031369  p :     3.075681
      px      :     1.052994
      py      :     0.991318
      dz2     :     0.020497  d :     0.085728
      dxz     :     0.025981
      dyz     :     0.013191
      dx2y2   :     0.014977
      dxy     :     0.011082

 17 C s       :     2.922530  s :     2.922530
      pz      :     1.080552  p :     3.084290
      px      :     0.982882
      py      :     1.020856
      dz2     :     0.024484  d :     0.103336
      dxz     :     0.030791
      dyz     :     0.014608
      dx2y2   :     0.017064
      dxy     :     0.016388

 18 C s       :     2.875706  s :     2.875706
      pz      :     1.029280  p :     3.079892
      px      :     1.055985
      py      :     0.994627
      dz2     :     0.016444  d :     0.085665
      dxz     :     0.026772
      dyz     :     0.008715
      dx2y2   :     0.017760
      dxy     :     0.015974

 19 C s       :     2.874121  s :     2.874121
      pz      :     1.037267  p :     3.065717
      px      :     1.046149
      py      :     0.982301
      dz2     :     0.019212  d :     0.088247
      dxz     :     0.028845
      dyz     :     0.012334
      dx2y2   :     0.014966
      dxy     :     0.012890

 20 Brs       :     7.810080  s :     7.810080
      pz      :     5.850498  p :    17.023814
      px      :     5.343808
      py      :     5.829507
      dz2     :     2.007569  d :    10.061565
      dxz     :     2.015672
      dyz     :     2.003020
      dx2y2   :     2.017312
      dxy     :     2.017992

 21 H s       :     0.898454  s :     0.898454
      pz      :     0.015687  p :     0.065882
      px      :     0.013516
      py      :     0.036679

 22 H s       :     0.897358  s :     0.897358
      pz      :     0.020124  p :     0.065957
      px      :     0.020141
      py      :     0.025692

 23 H s       :     0.891391  s :     0.891391
      pz      :     0.040019  p :     0.069274
      px      :     0.015382
      py      :     0.013874

 24 H s       :     0.899616  s :     0.899616
      pz      :     0.019907  p :     0.068464
      px      :     0.021954
      py      :     0.026603

 25 H s       :     0.898643  s :     0.898643
      pz      :     0.036530  p :     0.066048
      px      :     0.016798
      py      :     0.012720

 26 H s       :     0.898553  s :     0.898553
      pz      :     0.020993  p :     0.068704
      px      :     0.015528
      py      :     0.032183

 27 H s       :     0.898802  s :     0.898802
      pz      :     0.036202  p :     0.066037
      px      :     0.017343
      py      :     0.012491

 28 H s       :     0.898473  s :     0.898473
      pz      :     0.014856  p :     0.065882
      px      :     0.027552
      py      :     0.023474

 29 H s       :     0.897284  s :     0.897284
      pz      :     0.021236  p :     0.065960
      px      :     0.015288
      py      :     0.029436

 30 H s       :     0.891659  s :     0.891659
      pz      :     0.039444  p :     0.069131
      px      :     0.017743
      py      :     0.011944

 31 H s       :     0.887687  s :     0.887687
      pz      :     0.038899  p :     0.069313
      px      :     0.011614
      py      :     0.018799

 32 H s       :     0.891342  s :     0.891342
      pz      :     0.021285  p :     0.067255
      px      :     0.032599
      py      :     0.013370

 33 H s       :     0.892803  s :     0.892803
      pz      :     0.036547  p :     0.067355
      px      :     0.010566
      py      :     0.020241

 34 H s       :     0.895090  s :     0.895090
      pz      :     0.021186  p :     0.068581
      px      :     0.033563
      py      :     0.013832



                      *****************************
                      * MAYER POPULATION ANALYSIS *
                      *****************************

  NA   - Mulliken gross atomic population
  ZA   - Total nuclear charge
  QA   - Mulliken gross atomic charge
  VA   - Mayer's total valence
  BVA  - Mayer's bonded valence
  FA   - Mayer's free valence

  ATOM       NA         ZA         QA         VA         BVA        FA
  0 C      5.9899     6.0000     0.0101     3.8276     3.8276    -0.0000
  1 C      5.9985     6.0000     0.0015     3.8347     3.8347    -0.0000
  2 C      5.9876     6.0000     0.0124     3.8834     3.8834    -0.0000
  3 C      6.1285     6.0000    -0.1285     3.7739     3.7739    -0.0000
  4 C      6.0075     6.0000    -0.0075     3.8756     3.8756    -0.0000
  5 C      5.9999     6.0000     0.0001     3.8610     3.8610     0.0000
  6 P     14.3663    15.0000     0.6337     4.7076     4.7076    -0.0000
  7 O      8.4528     8.0000    -0.4528     2.1500     2.1500    -0.0000
  8 C      6.1310     6.0000    -0.1310     3.7746     3.7746    -0.0000
  9 C      6.0098     6.0000    -0.0098     3.8762     3.8762    -0.0000
 10 C      5.9997     6.0000     0.0003     3.8587     3.8587    -0.0000
 11 C      5.9897     6.0000     0.0103     3.8272     3.8272    -0.0000
 12 C      5.9983     6.0000     0.0017     3.8354     3.8354    -0.0000
 13 C      5.9863     6.0000     0.0137     3.8811     3.8811    -0.0000
 14 C      6.1151     6.0000    -0.1151     3.7424     3.7424    -0.0000
 15 C      5.9966     6.0000     0.0034     3.9004     3.9004    -0.0000
 16 C      5.9760     6.0000     0.0240     3.8655     3.8655    -0.0000
 17 C      6.0343     6.0000    -0.0343     3.8683     3.8683    -0.0000
 18 C      5.9756     6.0000     0.0244     3.8902     3.8902    -0.0000
 19 C      6.0158     6.0000    -0.0158     3.8934     3.8934    -0.0000
 20 Br    35.0292    35.0000    -0.0292     1.1456     1.1456    -0.0000
 21 H      0.9889     1.0000     0.0111     0.9790     0.9790     0.0000
 22 H      0.9873     1.0000     0.0127     0.9800     0.9800     0.0000
 23 H      0.9767     1.0000     0.0233     1.0118     1.0118    -0.0000
 24 H      0.9954     1.0000     0.0046     0.9991     0.9991     0.0000
 25 H      0.9926     1.0000     0.0074     0.9793     0.9793     0.0000
 26 H      0.9932     1.0000     0.0068     1.0000     1.0000    -0.0000
 27 H      0.9929     1.0000     0.0071     0.9793     0.9793    -0.0000
 28 H      0.9890     1.0000     0.0110     0.9790     0.9790    -0.0000
 29 H      0.9872     1.0000     0.0128     0.9800     0.9800    -0.0000
 30 H      0.9768     1.0000     0.0232     1.0110     1.0110    -0.0000
 31 H      0.9707     1.0000     0.0293     1.0126     1.0126    -0.0000
 32 H      0.9845     1.0000     0.0155     0.9964     0.9964     0.0000
 33 H      0.9898     1.0000     0.0102     0.9961     0.9961     0.0000
 34 H      0.9865     1.0000     0.0135     1.0003     1.0003    -0.0000

  Mayer bond orders larger than 0.100000
B(  0-C ,  1-C ) :   1.3784 B(  0-C ,  5-C ) :   1.3809 B(  0-C , 21-H ) :   0.9761 
B(  1-C ,  2-C ) :   1.3757 B(  1-C , 22-H ) :   0.9778 B(  2-C ,  3-C ) :   1.3799 
B(  2-C , 23-H ) :   0.9722 B(  3-C ,  4-C ) :   1.3613 B(  3-C ,  6-P ) :   0.8795 
B(  4-C ,  5-C ) :   1.3912 B(  4-C , 24-H ) :   0.9653 B(  5-C , 25-H ) :   0.9754 
B(  6-P ,  7-O ) :   1.8813 B(  6-P ,  8-C ) :   0.8803 B(  6-P , 14-C ) :   0.8756 
B(  8-C ,  9-C ) :   1.3645 B(  8-C , 13-C ) :   1.3768 B(  9-C , 10-C ) :   1.3889 
B(  9-C , 26-H ) :   0.9653 B( 10-C , 11-C ) :   1.3817 B( 10-C , 27-H ) :   0.9754 
B( 11-C , 12-C ) :   1.3773 B( 11-C , 28-H ) :   0.9760 B( 12-C , 13-C ) :   1.3778 
B( 12-C , 29-H ) :   0.9778 B( 13-C , 30-H ) :   0.9724 B( 14-C , 15-C ) :   1.3700 
B( 14-C , 19-C ) :   1.3579 B( 15-C , 16-C ) :   1.3782 B( 15-C , 31-H ) :   0.9695 
B( 16-C , 17-C ) :   1.3759 B( 16-C , 32-H ) :   0.9772 B( 17-C , 18-C ) :   1.3783 
B( 17-C , 20-Br) :   0.9974 B( 18-C , 19-C ) :   1.3916 B( 18-C , 33-H ) :   0.9746 
B( 19-C , 34-H ) :   0.9621 

-------
TIMINGS
-------

Total SCF time: 0 days 0 hours 0 min 7 sec 

Total time                  ....       7.677 sec
Sum of individual times     ....       7.572 sec  ( 98.6%)

SCF preparation             ....       0.123 sec  (  1.6%)
Fock matrix formation       ....       6.544 sec  ( 85.2%)
  Startup                   ....       0.048 sec  (  0.7% of F)
  Split-RI-J                ....       2.473 sec  ( 37.8% of F)
  XC integration            ....       3.899 sec  ( 59.6% of F)
    Basis function eval.    ....       1.165 sec  ( 29.9% of XC)
    Density eval.           ....       1.168 sec  ( 30.0% of XC)
    XC-Functional eval.     ....       0.118 sec  (  3.0% of XC)
    XC-Potential eval.      ....       0.795 sec  ( 20.4% of XC)
Diagonalization             ....       0.000 sec  (  0.0%)
Density matrix formation    ....       0.106 sec  (  1.4%)
Total Energy calculation    ....       0.029 sec  (  0.4%)
Population analysis         ....       0.086 sec  (  1.1%)
Orbital Transformation      ....       0.043 sec  (  0.6%)
Orbital Orthonormalization  ....       0.000 sec  (  0.0%)
DIIS solution               ....       0.053 sec  (  0.7%)
SOSCF solution              ....       0.588 sec  (  7.7%)
Finished LeanSCF after   7.7 sec

Maximum memory used throughout the entire LEANSCF-calculation: 39.5 MB


-------------------------------------------------------------------------------
                          DFT DISPERSION CORRECTION                            
                                                                               
                              DFTD3 V3.1  Rev 1                                
                          USING Becke-Johnson damping                          
-------------------------------------------------------------------------------
The BP86 functional is recognized
Active option DFTDOPT                   ...         4   

molecular C6(AA) [au] = 20579.570753 


            DFT-D V3
 parameters
 s6 scaling factor         :     1.0000 
 a1 scaling factor         :     0.3946 
 s8 scaling factor         :     3.2822 
 a2 scaling factor         :     4.8516 
 ad hoc parameters k1-k3   :    16.0000     1.3333    -4.0000 

 Edisp/kcal,au: -56.283356048088  -0.089693227546 
 E6   /kcal   : -20.013471936 
 E8   /kcal   : -36.269884112 
 % E8         :  64.441580351 

-------------------------   ----------------
Dispersion correction           -0.089693228
-------------------------   ----------------


-------------------------   --------------------
FINAL SINGLE POINT ENERGY     -3684.533692917392
-------------------------   --------------------

                                *** OPTIMIZATION RUN DONE ***



           ************************************************************
           *        Program running with 6 parallel MPI-processes     *
           *              working on a common directory               *
           ************************************************************

------------------------------------------------------------------------------
                              ORCA PROPERTY CALCULATIONS
------------------------------------------------------------------------------

GBWName                                 ... data/geom_opt_PO_BP86/69773/69773.gbw
Number of atoms                         ...     35
Number of basis functions               ...    386
Max core memory                         ...   1024 MB

Electric properties:
Dipole moment                           ... YES
Quadrupole moment                       ...  NO
Static polarizability (Dipole/Dipole)   ...  NO
Static polarizability (Dipole/Quad.)    ...  NO
Static polarizability (Quad./Quad.)     ...  NO
Static polarizability (Velocity)        ...  NO

Atomic electric properties:
Dipole moment                           ...  NO
Quadrupole moment                       ...  NO
Static polarizability                   ...  NO

Choice of electric origin               ... Center of mass
Position of electric origin             ...     2.335269     0.897906    -0.188965

General magnetic properties:
Magnetizability                         ...  NO

EPR properties:
g-Tensor (aka g-matrix)                 ...  NO
Zero-Field splitting spin-orbit         ...  NO
Zero-field splitting spin-spin          ...  NO
Hyperfine couplings                     ...  NO (   0 nuclei)
Quadrupole couplings                    ...  NO (   0 nuclei)
Contact density                         ...  NO (   0 nuclei)

NMR properties:
Chemical shifts                         ...  NO (   0 nuclei)
Spin-rotation constants                 ...  NO (   0 nuclei)
Spin-spin couplings                     ...  NO (   0 nuclei,    0 pairs)

Choice of magnetic origin               ... GIAO
Position of magnetic origin             ...     0.000000     0.000000     0.000000

Properties with geometric perturbations:
SCF Hessian                             ...  NO
IR spectrum                             ...  NO
VCD spectrum                            ...  NO
X-ray spectroscopy properties:
SCF XES/XAS/RIXS spectra                ...  NO


-------------
DIPOLE MOMENT
-------------

Method             : SCF
Type of density    : Electron Density
Multiplicity       :   1
Irrep              :   0
Energy             : -3684.4439996898463505 Eh
Relativity type    : 
Basis              : AO
                                X                 Y                 Z
Electronic contribution:     60.645500525      23.511383019       7.774031914
Nuclear contribution   :    -61.209594783     -23.683336720      -6.482902473
                        -----------------------------------------
Total Dipole Moment    :     -0.564094258      -0.171953702       1.291129441
                        -----------------------------------------
Magnitude (a.u.)       :      1.419431450
Magnitude (Debye)      :      3.607908020



--------------------
Rotational spectrum 
--------------------
 
Rotational constants in cm-1:             0.010408             0.004234             0.003510 
Rotational constants in MHz :           312.014904           126.932926           105.220945 

Dipole components along the rotational axes: 
x,y,z [a.u.] :    -0.394462    -0.012966     1.363458 
x,y,z [Debye]:    -1.002643    -0.032956     3.465634 

 

Dipole moment calculation done in   0.0 sec 

Maximum memory used throughout the entire PROP-calculation: 20.4 MB

--------------------------------
SUGGESTED CITATIONS FOR THIS RUN
--------------------------------

Below you find a list of papers that are relevant to this ORCA run
We neither can nor want to force you to cite these papers, but we appreciate if you do
You receive ORCA, which is the product of decades of hard work by many enthusiastic individuals, for free
The only thing we kindly ask in return is that you cite our papers,
We deeply appreciate it, if you show your appreciation for ORCA by not just citing the generic ORCA reference.

Please note that relegating all ORCA citations to the supporting information does *not* help us.
SI sections are not indexed - citations you put there will not count into any citation statistics
But we need these citations in order to attract the funding resources that allow us to do what we are doing

Therefore, if you are a happy ORCA user, please consider citing a few of the papers listed below in the main body of your paper

In addition to the list printed below, the program has created the file data/geom_opt_PO_BP86/69773/69773.bibtex that contains the list in bibtex format
You can import this file easily into all common literature databanks and citation aid programs


List of essential papers. We consider these as the minimum necessary citations

  1. Neese,F.
     Software update: the ORCA program system, version 5.0
     WIRES Comput. Molec. Sci., 2022 12(1)e1606
     doi.org/10.1002/wcms.1606

List of papers to cite with high priority. The work reported in these papers was absolutely
necessary for this run to complete.
Our perspective: the developers of density functionals and basis sets usually get cited in chemistry papers
Good! But without the algorithms to do something with them, the functionals or basis sets would not do anything.
Hence, in our opinion, the algorithm design and method developments papers are equally worthy of getting cited

  1. Neese,F.
     An improvement of the resolution of the identity approximation for the formation of the Coulomb matrix
     J. Comp. Chem., 2003 24(14)1740-1747
     doi.org/10.1002/jcc.10318
  2. Neese,F.
     The SHARK Integral Generation and Digestion System
     J. Comp. Chem., 2022  1-16
     doi.org/10.1002/jcc.26942
  3. Grimme,S.; Antony,J.; Ehrlich,S.; Krieg,H.
     A consistent and accurate ab initio parametrization of density functional dispersion correction (DFT-D) for the 94 elements H-Pu
     J. Chem. Phys., 2010 132 154104-XXXX
     doi.org/10.1063/1.3382344
  4. Grimme,S.; Ehrlich,S.; Goerigk,L.
     Effect of the damping function in dispersion corrected density functional theory
     J. Comput. Chem., 2011 32(7)1456-1465
     doi.org/10.1002/jcc.21759

List of suggested additional citations. These are papers that are important in the 'surrounding' of 
of this run, or papers that preceded the highly important papers. If you like your results we are grateful for a citation.

  1. Neese,F.
     The ORCA program system
     WIRES Comput. Molec. Sci., 2012 2(1)73-78
     doi.org/10.1002/wcms.81
  2. Neese,F.
     Software update: the ORCA program system, version 4.0
     WIRES Comput. Molec. Sci., 2018 8(1)1-6
     doi.org/10.1002/wcms.1327
  3. Neese,F.; Wennmohs,F.; Becker,U.; Riplinger,C.
     The ORCA quantum chemistry program package
     J. Chem. Phys., 2020 152 Art. No. L224108
     doi.org/10.1063/5.0004608

List of optional additional citations

  1. Neese,F.
     Approximate second-order SCF convergence for spin unrestricted wavefunctions
     Chem. Phys. Lett., 2000 325(1-3)93-98
     doi.org/10.1016/s0009-2614(00)00662-x

Timings for individual modules:

Sum of individual times          ...      132.481 sec (=   2.208 min)
Startup calculation              ...       10.641 sec (=   0.177 min)   8.0 %
SCF iterations                   ...       86.057 sec (=   1.434 min)  65.0 %
Property calculations            ...        0.172 sec (=   0.003 min)   0.1 %
SCF Gradient evaluation          ...       35.507 sec (=   0.592 min)  26.8 %
Geometry relaxation              ...        0.104 sec (=   0.002 min)   0.1 %
                             ****ORCA TERMINATED NORMALLY****
TOTAL RUN TIME: 0 days 0 hours 2 minutes 13 seconds 820 msec
