
                                 *****************
                                 * O   R   C   A *
                                 *****************

                                            #,                                       
                                            ###                                      
                                            ####                                     
                                            #####                                    
                                            ######                                   
                                           ########,                                 
                                     ,,################,,,,,                         
                               ,,#################################,,                 
                          ,,##########################################,,             
                       ,#########################################, ''#####,          
                    ,#############################################,,   '####,        
                  ,##################################################,,,,####,       
                ,###########''''           ''''###############################       
              ,#####''   ,,,,##########,,,,          '''####'''          '####       
            ,##' ,,,,###########################,,,                        '##       
           ' ,,###''''                  '''############,,,                           
         ,,##''                                '''############,,,,        ,,,,,,###''
      ,#''                                            '''#######################'''  
     '                                                          ''''####''''         
             ,#######,   #######,   ,#######,      ##                                
            ,#'     '#,  ##    ##  ,#'     '#,    #''#        ,####,   ,####,        
            ##       ##  ##   ,#'  ##            #'  '#       #'       #'  '#        
            ##       ##  #######   ##           ,######,      #####,   #    #        
            '#,     ,#'  ##    ##  '#,     ,#' ,#      #,     #,   #   #,  ,#        
             '#######'   ##     ##  '#######'  #'      '#     '####' # '####'        



                #########################################################
                #                        -***-                          #
                #          Department of theory and spectroscopy        #
                #                                                       #
                #                      Frank Neese                      #
                #                                                       #
                #     Directorship, Architecture, Infrastructure        #
                #                    SHARK, DRIVERS                     #
                #        Core code/Algorithms in most modules           #
                #                                                       #
                #        Max Planck Institute fuer Kohlenforschung      #
                #                Kaiser Wilhelm Platz 1                 #
                #                 D-45470 Muelheim/Ruhr                 #
                #                      Germany                          #
                #                                                       #
                #                  All rights reserved                  #
                #                        -***-                          #
                #########################################################


                         Program Version 6.0.0  -   RELEASE   -


 With contributions from (in alphabetic order):
   Daniel Aravena         : Magnetic Suceptibility
   Michael Atanasov       : Ab Initio Ligand Field Theory (pilot matlab implementation)
   Alexander A. Auer      : GIAO ZORA, VPT2 properties, NMR spectrum
   Ute Becker             : All parallelization in ORCA, NUMFREQ, NUMCALC
   Giovanni Bistoni       : ED, misc. LED, open-shell LED, HFLD
   Martin Brehm           : Molecular dynamics
   Dmytro Bykov           : pre 5.0 version of the SCF Hessian
   Marcos Casanova-Páez   : Triplet and SCS-CIS(D). UHF-(DLPNO)-IP/EA/STEOM-CCSD. UHF-CVS-IP/STEOM-CCSD
   Vijay G. Chilkuri      : MRCI spin determinant printing, contributions to CSF-ICE
   Pauline Colinet        : FMM embedding
   Dipayan Datta          : RHF DLPNO-CCSD density
   Achintya Kumar Dutta   : EOM-CC, STEOM-CC
   Nicolas Foglia         : Exact transition moments, OPA infrastructure, MCD improvements
   Dmitry Ganyushin       : Spin-Orbit,Spin-Spin,Magnetic field MRCI
   Miquel Garcia          : C-PCM and meta-GGA Hessian, CCSD/C-PCM, Gaussian charge scheme
   Tiago L. C. Gouveia    : GS-ROHF, GS-ROCIS
   Yang Guo               : DLPNO-NEVPT2, F12-NEVPT2, CIM, IAO-localization
   Andreas Hansen         : Spin unrestricted coupled pair/coupled cluster methods
   Ingolf Harden          : AUTO-CI MPn and infrastructure 
   Benjamin Helmich-Paris : MC-RPA, TRAH-(SCF,CASSCF), AVAS, COSX integrals, SCF dyn. polar.
   Lee Huntington         : MR-EOM, pCC
   Robert Izsak           : Overlap fitted RIJCOSX, COSX-SCS-MP3, EOM
   Riya Kayal             : Wick's Theorem for AUTO-CI, AUTO-CI UHF-CCSDT
   Emily Kempfer          : AUTO-CI, RHF CISDT and CCSDT
   Christian Kollmar      : KDIIS, OOCD, Brueckner-CCSD(T), CCSD density, CASPT2, CASPT2-K, improved NEVPT2
   Axel Koslowski         : Symmetry handling
   Simone Kossmann        : Meta GGA functionals, TD-DFT gradient, OOMP2, (MP2 Hessian; deprecated post 5.0)
   Lucas Lang             : DCDCAS
   Marvin Lechner         : AUTO-CI (C++ implementation), FIC-MRCC
   Spencer Leger          : CASSCF response
   Dagmar Lenk            : GEPOL surface, SMD, ORCA-2-JSON
   Dimitrios Liakos       : Extrapolation schemes; Compound Job, initial MDCI parallelization
   Dimitrios Manganas     : Further ROCIS development; embedding schemes. LFT, Crystal Embedding
   Dimitrios Pantazis     : SARC Basis sets
   Anastasios Papadopoulos: AUTO-CI, single reference methods and gradients
   Taras Petrenko         : pre 6.0 DFT Hessian and TD-DFT gradient, (ASA, deprecated), ECA, 1-Electron XAS/XES, NRVS
   Peter Pinski           : DLPNO-MP2, DLPNO-MP2 Gradient
   Christoph Reimann      : Effective Core Potentials
   Marius Retegan         : Local ZFS, SOC
   Christoph Riplinger    : Optimizer, TS searches, QM/MM, DLPNO-CCSD(T), (RO)-DLPNO pert. Triples
   Michael Roemelt        : Original ROCIS implementation
   Masaaki Saitow         : Open-shell DLPNO-CCSD energy and density
   Barbara Sandhoefer     : DKH picture change effects
   Kantharuban Sivalingam : CASSCF convergence/infrastructure, NEVPT2 and variants, FIC-MRCI
   Bernardo de Souza      : ESD, SOC TD-DFT
   Georgi Stoychev        : AutoAux, RI-MP2 NMR, DLPNO-MP2 response, X2C
   Van Anh Tran           : RI-MP2 g-tensors
   Willem Van den Heuvel  : Paramagnetic NMR
   Zikuan Wang            : NOTCH, Electric field optimization 
   Frank Wennmohs         : Technical directorship and infrastructure
   Hang Xu                : AUTO-CI-Response properties 


 We gratefully acknowledge several colleagues who have allowed us to
 interface, adapt or use parts of their codes:
   Stefan Grimme, W. Hujo, H. Kruse, P. Pracht,  : VdW corrections, initial TS optimization,
                  C. Bannwarth, S. Ehlert,         DFT functionals, gCP, sTDA/sTD-DF
                  L. Wittmann, M. Mueller
   Ed Valeev, F. Pavosevic, A. Kumar             : LibInt (2-el integral package), F12 methods
   Garnet Chan, S. Sharma, J. Yang, R. Olivares  : DMRG
   Ulf Ekstrom                                   : XCFun DFT Library
   Mihaly Kallay                                 : mrcc  (arbitrary order and MRCC methods)
   Frank Weinhold                                : gennbo (NPA and NBO analysis)
   Simon Mueller                                 : openCOSMO-RS
   Christopher J. Cramer and Donald G. Truhlar   : smd solvation model
   Lars Goerigk                                  : TD-DFT with DH, B97 family of functionals
   V. Asgeirsson, H. Jonsson                     : NEB implementation
   FAccTs GmbH                                   : IRC, NEB, NEB-TS, DLPNO-Multilevel, CI-OPT
                                                   MM, QMMM, 2- and 3-layer-ONIOM, Crystal-QMMM,
                                                   LR-CPCM, SF, NACMEs, symmetry and pop. for TD-DFT,
                                                   nearIR, NL-DFT gradient (VV10), updates on ESD,
                                                   ML-optimized integration grids, MBIS, APM,
                                                   GOAT, DOCKER, SOLVATOR, interface openCOSMO-RS
   S Lehtola, MJT Oliveira, MAL Marques          : LibXC Library
   Liviu Ungur et al                             : ANISO software


 Your calculation uses the libint2 library for the computation of 2-el integrals
 For citations please refer to: http://libint.valeyev.net

 Your ORCA version has been built with support for libXC version: 6.2.2
 For citations please refer to: https://libxc.gitlab.io

 This ORCA versions uses:
   CBLAS   interface :  Fast vector & matrix operations
   LAPACKE interface :  Fast linear algebra routines
   Shared memory     :  Shared parallel matrices


Your calculation utilizes the atom-pairwise dispersion correction
with the zero-damping scheme (D30)


XCFun DFT library Copyright 2009-2010 Ulf Ekstrom and contributors.
See http://admol.org/xcfun for more information.
This is free software; see the source code for copying conditions.
There is ABSOLUTELY NO WARRANTY; not even for MERCHANTABILITY or FITNESS FOR A PARTICULAR PURPOSE.
For details see the documentation.
Scientific users of this library should cite U. Ekstrom, L. Visscher, R. Bast, A. J. Thorvaldsen and K. Ruud;
J.Chem.Theor.Comp. 2010, DOI: 10.1021/ct100117s
XCFun Version 0.99 

Warning: RI is on but no J-basis has been assigned. Assigning Def2/J (nothing to worry about!)
================================================================================

----- Orbital basis set information -----
Your calculation utilizes the basis: def2-TZVP
   F. Weigend and R. Ahlrichs, Phys. Chem. Chem. Phys. 7, 3297 (2005).

----- AuxJ basis set information -----
Your calculation utilizes the auxiliary basis: def2/J
   F. Weigend, Phys. Chem. Chem. Phys. 8, 1057 (2006).

================================================================================
                                        WARNINGS
                       Please study these warnings very carefully!
================================================================================

WARNING: Functional chosen is sensitive to the integration grid.
         DEFGRID3 seems to be a minimum grid for robust results!

================================================================================
                                       INPUT FILE
================================================================================
NAME = data/single_point_P_M06-2x/521585/521585.inp
|  1> ! RIJCOSX M062X def2-TZVP D3ZERO NormalSCF
|  2> %pal
|  3> nprocs 6
|  4> end
|  5> 
|  6> * xyz 0 1
|  7>   C          -2.23066715554733     -3.11525515646854      0.31578004424534
|  8>   C          -1.41536062553906     -2.67875408280777      1.33733317387739
|  9>   O          -0.74777344476846     -1.55149152621858      0.97190090620429
| 10>   C          -1.13094402124557     -1.24001739755905     -0.31468755660718
| 11>   C          -2.04649194255005     -2.18057948331887     -0.75660677152527
| 12>   P          -0.46670684985604      0.20995608503711     -1.19573418475870
| 13>   C           1.33021639657094     -0.06298342730904     -1.06694726192897
| 14>   C           2.28573074274086     -0.04144360770427     -2.06930569090449
| 15>   C           3.54772958245349     -0.31478994443590     -1.44464087651874
| 16>   C           3.27350251683710     -0.48559114429576     -0.10509392319681
| 17>   O           1.94332941040709     -0.33654981602325      0.13655669453535
| 18>   C          -0.73239093601662      1.54205120710901      0.01872004093846
| 19>   C          -1.39696648913467      2.74609938593140     -0.14470891406699
| 20>   C          -1.32269945161177      3.43417711070243      1.11172019021128
| 21>   C          -0.61650532484308      2.60233585542842      1.95324133023156
| 22>   O          -0.25520149710602      1.46025148740471      1.30899140136594
| 23>   H          -2.88250797363978     -3.99584027111482      0.33058617779038
| 24>   H          -1.20991229283208     -3.04883644044276      2.34743655395063
| 25>   H          -2.52663816029905     -2.18965240879348     -1.74156139815104
| 26>   H           2.09233984325308      0.14966707482895     -3.13082146794046
| 27>   H           4.53108745447301     -0.37839316801726     -1.92371459063117
| 28>   H           3.89504116958374     -0.71032692112115      0.76821451438158
| 29>   H          -1.87997676367082      3.08806235700515     -1.06694031379836
| 30>   H          -1.73666852484084      4.41756105081129      1.36099493082201
| 31>   H          -0.30156666281806      2.68034518137202      2.99928699147396
| 32> **                         ****END OF INPUT****
================================================================================

                       ****************************
                       * Single Point Calculation *
                       ****************************

---------------------------------
CARTESIAN COORDINATES (ANGSTROEM)
---------------------------------
  C     -2.230667   -3.115255    0.315780
  C     -1.415361   -2.678754    1.337333
  O     -0.747773   -1.551492    0.971901
  C     -1.130944   -1.240017   -0.314688
  C     -2.046492   -2.180579   -0.756607
  P     -0.466707    0.209956   -1.195734
  C      1.330216   -0.062983   -1.066947
  C      2.285731   -0.041444   -2.069306
  C      3.547730   -0.314790   -1.444641
  C      3.273503   -0.485591   -0.105094
  O      1.943329   -0.336550    0.136557
  C     -0.732391    1.542051    0.018720
  C     -1.396966    2.746099   -0.144709
  C     -1.322699    3.434177    1.111720
  C     -0.616505    2.602336    1.953241
  O     -0.255201    1.460251    1.308991
  H     -2.882508   -3.995840    0.330586
  H     -1.209912   -3.048836    2.347437
  H     -2.526638   -2.189652   -1.741561
  H      2.092340    0.149667   -3.130821
  H      4.531087   -0.378393   -1.923715
  H      3.895041   -0.710327    0.768215
  H     -1.879977    3.088062   -1.066940
  H     -1.736669    4.417561    1.360995
  H     -0.301567    2.680345    2.999287

----------------------------
CARTESIAN COORDINATES (A.U.)
----------------------------
  NO LB      ZA    FRAG     MASS         X           Y           Z
   0 C     6.0000    0    12.011   -4.215350   -5.886979    0.596738
   1 C     6.0000    0    12.011   -2.674644   -5.062112    2.527193
   2 O     8.0000    0    15.999   -1.413087   -2.931894    1.836627
   3 C     6.0000    0    12.011   -2.137174   -2.343293   -0.594673
   4 C     6.0000    0    12.011   -3.867309   -4.120698   -1.429780
   5 P    15.0000    0    30.974   -0.881948    0.396760   -2.259610
   6 C     6.0000    0    12.011    2.513745   -0.119021   -2.016238
   7 C     6.0000    0    12.011    4.319405   -0.078317   -3.910421
   8 C     6.0000    0    12.011    6.704237   -0.594867   -2.729976
   9 C     6.0000    0    12.011    6.186023   -0.917634   -0.198599
  10 O     8.0000    0    15.999    3.672360   -0.635987    0.258055
  11 C     6.0000    0    12.011   -1.384018    2.914054    0.035376
  12 C     6.0000    0    12.011   -2.639884    5.189376   -0.273460
  13 C     6.0000    0    12.011   -2.499540    6.489654    2.100847
  14 C     6.0000    0    12.011   -1.165026    4.917702    3.691091
  15 O     8.0000    0    15.999   -0.482261    2.759475    2.473635
  16 H     1.0000    0     1.008   -5.447151   -7.551044    0.624717
  17 H     1.0000    0     1.008   -2.286403   -5.761466    4.436012
  18 H     1.0000    0     1.008   -4.774654   -4.137843   -3.291074
  19 H     1.0000    0     1.008    3.953949    0.282830   -5.916395
  20 H     1.0000    0     1.008    8.562514   -0.715059   -3.635294
  21 H     1.0000    0     1.008    7.360561   -1.342323    1.451715
  22 H     1.0000    0     1.008   -3.552641    5.835592   -2.016225
  23 H     1.0000    0     1.008   -3.281828    8.347981    2.571908
  24 H     1.0000    0     1.008   -0.569878    5.065118    5.667831

--------------------------------
INTERNAL COORDINATES (ANGSTROEM)
--------------------------------
 C      0   0   0     0.000000000000     0.00000000     0.00000000
 C      1   0   0     1.377979942467     0.00000000     0.00000000
 O      2   1   0     1.360122883299   110.71767053     0.00000000
 C      3   2   1     1.378094951787   107.55891404     0.00000000
 C      4   3   2     1.384982897327   109.15966915     0.03188032
 P      4   3   2     1.822053040135   122.00135416   180.06395710
 C      6   4   3     1.822090887536   101.89601519    54.38064486
 C      7   6   4     1.384988826563   128.82139173   129.46968103
 C      8   7   6     1.434421633123   106.78869735   179.93906229
 C      9   8   7     1.377954851780   105.77593103     0.07196483
 O     10   9   8     1.360135593113   110.71735115   359.93956704
 C      6   4   3     1.822076978122   101.90798929   309.32325866
 C     12   6   4     1.384955488838   128.82228963   234.32190375
 C     13  12   6     1.434426938630   106.78765338   179.99206663
 C     14  13  12     1.377979625306   105.77575084     0.07268218
 O     15  14  13     1.360130556404   110.71763737   359.94555803
 H      1   2   3     1.095694217315   126.62336519   180.03730321
 H      2   1   3     1.095207198333   133.44714920   179.91791122
 H      5   4   3     1.095791186726   125.59725023   179.92439555
 H      8   7   6     1.095782404440   125.59494732   359.91626121
 H      9   8   7     1.095695987976   127.60748373   179.98715707
 H     10   9   8     1.095209611622   133.44507824   179.86963960
 H     13  12   6     1.095786636870   125.60079204   359.97325048
 H     14  13  12     1.095697158690   127.60610717   179.99656701
 H     15  14  13     1.095209268211   133.44442913   179.88845224

---------------------------
INTERNAL COORDINATES (A.U.)
---------------------------
 C      0   0   0     0.000000000000     0.00000000     0.00000000
 C      1   0   0     2.604004709300     0.00000000     0.00000000
 O      2   1   0     2.570259757915   110.71767053     0.00000000
 C      3   2   1     2.604222045417   107.55891404     0.00000000
 C      4   3   2     2.617238376112   109.15966915     0.03188032
 P      4   3   2     3.443181247334   122.00135416   180.06395710
 C      6   4   3     3.443252768556   101.89601519    54.38064486
 C      7   6   4     2.617249580744   128.82139173   129.46968103
 C      8   7   6     2.710664047175   106.78869735   179.93906229
 C      9   8   7     2.603957294772   105.77593103     0.07196483
 O     10   9   8     2.570283775982   110.71735115   359.93956704
 C      6   4   3     3.443226483572   101.90798929   309.32325866
 C     12   6   4     2.617186581574   128.82228963   234.32190375
 C     13  12   6     2.710674073129   106.78765338   179.99206663
 C     14  13  12     2.604004109952   105.77575084     0.07268218
 O     15  14  13     2.570274257982   110.71763737   359.94555803
 H      1   2   3     2.070561997247   126.62336519   180.03730321
 H      2   1   3     2.069641664748   133.44714920   179.91791122
 H      5   4   3     2.070745242877   125.59725023   179.92439555
 H      8   7   6     2.070728646760   125.59494732   359.91626121
 H      9   8   7     2.070565343310   127.60748373   179.98715707
 H     10   9   8     2.069646225204   133.44507824   179.86963960
 H     13  12   6     2.070736644896   125.60079204   359.97325048
 H     14  13  12     2.070567555639   127.60610717   179.99656701
 H     15  14  13     2.069645576252   133.44442913   179.88845224

---------------------
BASIS SET INFORMATION
---------------------
There are 4 groups of distinct atoms

 Group   1 Type C   : 11s6p2d1f contracted to 5s3p2d1f pattern {62111/411/11/1}
 Group   2 Type O   : 11s6p2d1f contracted to 5s3p2d1f pattern {62111/411/11/1}
 Group   3 Type P   : 14s9p3d1f contracted to 5s5p2d1f pattern {73211/51111/21/1}
 Group   4 Type H   : 5s1p contracted to 3s1p pattern {311/1}

Atom   0C    basis set group =>   1
Atom   1C    basis set group =>   1
Atom   2O    basis set group =>   2
Atom   3C    basis set group =>   1
Atom   4C    basis set group =>   1
Atom   5P    basis set group =>   3
Atom   6C    basis set group =>   1
Atom   7C    basis set group =>   1
Atom   8C    basis set group =>   1
Atom   9C    basis set group =>   1
Atom  10O    basis set group =>   2
Atom  11C    basis set group =>   1
Atom  12C    basis set group =>   1
Atom  13C    basis set group =>   1
Atom  14C    basis set group =>   1
Atom  15O    basis set group =>   2
Atom  16H    basis set group =>   4
Atom  17H    basis set group =>   4
Atom  18H    basis set group =>   4
Atom  19H    basis set group =>   4
Atom  20H    basis set group =>   4
Atom  21H    basis set group =>   4
Atom  22H    basis set group =>   4
Atom  23H    basis set group =>   4
Atom  24H    basis set group =>   4
---------------------------------
AUXILIARY/J BASIS SET INFORMATION
---------------------------------
There are 4 groups of distinct atoms

 Group   1 Type C   : 12s5p4d2f1g contracted to 6s4p3d1f1g pattern {711111/2111/211/2/1}
 Group   2 Type O   : 12s5p4d2f1g contracted to 6s4p3d1f1g pattern {711111/2111/211/2/1}
 Group   3 Type P   : 14s5p5d2f1g contracted to 8s4p3d1f1g pattern {71111111/2111/311/2/1}
 Group   4 Type H   : 5s2p1d contracted to 3s1p1d pattern {311/2/1}

Atom   0C    basis set group =>   1
Atom   1C    basis set group =>   1
Atom   2O    basis set group =>   2
Atom   3C    basis set group =>   1
Atom   4C    basis set group =>   1
Atom   5P    basis set group =>   3
Atom   6C    basis set group =>   1
Atom   7C    basis set group =>   1
Atom   8C    basis set group =>   1
Atom   9C    basis set group =>   1
Atom  10O    basis set group =>   2
Atom  11C    basis set group =>   1
Atom  12C    basis set group =>   1
Atom  13C    basis set group =>   1
Atom  14C    basis set group =>   1
Atom  15O    basis set group =>   2
Atom  16H    basis set group =>   4
Atom  17H    basis set group =>   4
Atom  18H    basis set group =>   4
Atom  19H    basis set group =>   4
Atom  20H    basis set group =>   4
Atom  21H    basis set group =>   4
Atom  22H    basis set group =>   4
Atom  23H    basis set group =>   4
Atom  24H    basis set group =>   4


           ************************************************************
           *        Program running with 6 parallel MPI-processes     *
           *              working on a common directory               *
           ************************************************************
------------------------------------------------------------------------------
                             ORCA STARTUP CALCULATIONS
                           -- RI-GTO INTEGRALS CHOSEN --
------------------------------------------------------------------------------
------------------------------------------------------------------------------
                   ___                                                        
                  /   \      - P O W E R E D   B Y -                         
                 /     \                                                     
                 |  |  |   _    _      __       _____    __    __             
                 |  |  |  | |  | |    /  \     |  _  \  |  |  /  |          
                  \  \/   | |  | |   /    \    | | | |  |  | /  /          
                 / \  \   | |__| |  /  /\  \   | |_| |  |  |/  /          
                |  |  |   |  __  | /  /__\  \  |    /   |      \           
                |  |  |   | |  | | |   __   |  |    \   |  |\   \          
                \     /   | |  | | |  |  |  |  | |\  \  |  | \   \       
                 \___/    |_|  |_| |__|  |__|  |_| \__\ |__|  \__/        
                                                                              
                      - O R C A' S   B I G   F R I E N D -                    
                                      &                                       
                       - I N T E G R A L  F E E D E R -                       
                                                                              
 v1 FN, 2020, v2 2021, v3 2022-2024                                           
------------------------------------------------------------------------------


----------------------
SHARK INTEGRAL PACKAGE
----------------------

Number of atoms                             ...     25
Number of basis functions                   ...    556
Number of shells                            ...    214
Maximum angular momentum                    ...      3
Integral batch strategy                     ... SHARK/LIBINT Hybrid
RI-J (if used) integral strategy            ... SPLIT-RIJ (Revised 2003 algorithm where possible)
Printlevel                                  ...      1
Contraction scheme used                     ... SEGMENTED contraction
Prescreening option                         ... SCHWARTZ
   Thresh                                   ... 1.000e-10
   Tcut                                     ... 1.000e-11
   Tpresel                                  ... 1.000e-11 
Coulomb Range Separation                    ... NOT USED
Exchange Range Separation                   ... NOT USED
Multipole approximations                    ... NOT USED
Finite Nucleus Model                        ... NOT USED
CABS basis                                  ... NOT available
Auxiliary Coulomb fitting basis             ... AVAILABLE
   # of basis functions in Aux-J            ...    885
   # of shells in Aux-J                     ...    287
   Maximum angular momentum in Aux-J        ...      4
Auxiliary J/K fitting basis                 ... NOT available
Auxiliary Correlation fitting basis         ... NOT available
Auxiliary 'external' fitting basis          ... NOT available

Checking pre-screening integrals            ... done (  0.0 sec) Dimension = 214
Check shell pair data                       ... done (  0.0 sec)
Shell pair information
Shell pair cut-off parameter TPreSel        ...   1.0e-11
Total number of shell pairs                 ...     23005
Shell pairs after pre-screening             ...     17547
Total number of primitive shell pairs       ...     73164
Primitive shell pairs kept                  ...     37383
          la=0 lb=0:   4116 shell pairs
          la=1 lb=0:   4950 shell pairs
          la=1 lb=1:   1490 shell pairs
          la=2 lb=0:   2562 shell pairs
          la=2 lb=1:   1557 shell pairs
          la=2 lb=2:    432 shell pairs
          la=3 lb=0:   1193 shell pairs
          la=3 lb=1:    743 shell pairs
          la=3 lb=2:    404 shell pairs
          la=3 lb=3:    100 shell pairs

Calculating one electron integrals          ... done (  0.0 sec)
Calculating RI/J V-Matrix + Cholesky decomp.... done (  0.0 sec)
Calculating Nuclear repulsion               ... done (  0.0 sec) ENN=   1156.117179558631 Eh

Diagonalization of the overlap matrix:
Smallest eigenvalue                        ... 3.381e-05
Time for diagonalization                   ...    0.067 sec
Threshold for overlap eigenvalues          ... 1.000e-07
Number of eigenvalues below threshold      ... 0
Time for construction of square roots      ...    0.032 sec
Total time needed                          ...    0.104 sec

-------------------
DFT GRID GENERATION
-------------------

General Integration Accuracy     IntAcc      ... 4.388
Radial Grid Type                 RadialGrid  ... OptM3 with GC (2021)
Angular Grid (max. ang.)         AngularGrid ... 4 (Lebedev-302)
Angular grid pruning method      GridPruning ... 4 (adaptive)
Weight generation scheme         WeightScheme... mBecke (2022)
Basis function cutoff            BFCut       ... 1.0000e-10
Integration weight cutoff        WCut        ... 1.0000e-14
Partially contracted basis set               ... off
Rotationally invariant grid construction     ... off
Angular grids for H and He will be reduced by one unit

Total number of grid points                  ...   126596
Total number of batches                      ...     1992
Average number of points per batch           ...       63
Average number of grid points per atom       ...     5064

--------------------
COSX GRID GENERATION
--------------------

GRIDX 1
-------
General Integration Accuracy     IntAcc      ... 3.816
Radial Grid Type                 RadialGrid  ... OptM3 with GC (2021)
Angular Grid (max. ang.)         AngularGrid ... 1 (Lebedev-50)
Angular grid pruning method      GridPruning ... 4 (adaptive)
Weight generation scheme         WeightScheme... mBecke (2022)
Basis function cutoff            BFCut       ... 1.0000e-10
Integration weight cutoff        WCut        ... 1.0000e-14
Partially contracted basis set               ... on
Rotationally invariant grid construction     ... off
Angular grids for H and He will be reduced by one unit

Total number of grid points                  ...    17097
Total number of batches                      ...      145
Average number of points per batch           ...      117
Average number of grid points per atom       ...      684
UseSFitting                                  ... on

GRIDX 2
-------
General Integration Accuracy     IntAcc      ... 4.020
Radial Grid Type                 RadialGrid  ... OptM3 with GC (2021)
Angular Grid (max. ang.)         AngularGrid ... 2 (Lebedev-110)
Angular grid pruning method      GridPruning ... 4 (adaptive)
Weight generation scheme         WeightScheme... mBecke (2022)
Basis function cutoff            BFCut       ... 1.0000e-10
Integration weight cutoff        WCut        ... 1.0000e-14
Partially contracted basis set               ... on
Rotationally invariant grid construction     ... off
Angular grids for H and He will be reduced by one unit

Total number of grid points                  ...    35552
Total number of batches                      ...      294
Average number of points per batch           ...      120
Average number of grid points per atom       ...     1422
UseSFitting                                  ... on

GRIDX 3
-------
General Integration Accuracy     IntAcc      ... 4.338
Radial Grid Type                 RadialGrid  ... OptM3 with GC (2021)
Angular Grid (max. ang.)         AngularGrid ... 3 (Lebedev-194)
Angular grid pruning method      GridPruning ... 4 (adaptive)
Weight generation scheme         WeightScheme... mBecke (2022)
Basis function cutoff            BFCut       ... 1.0000e-10
Integration weight cutoff        WCut        ... 1.0000e-14
Partially contracted basis set               ... on
Rotationally invariant grid construction     ... off
Angular grids for H and He will be reduced by one unit

Total number of grid points                  ...    78713
Total number of batches                      ...      624
Average number of points per batch           ...      126
Average number of grid points per atom       ...     3149
UseSFitting                                  ... on
Initializing property integral containers    ... done (  0.0 sec)

SHARK setup successfully completed in   2.4 seconds

Maximum memory used throughout the entire STARTUP-calculation: 48.9 MB


           ************************************************************
           *        Program running with 6 parallel MPI-processes     *
           *              working on a common directory               *
           ************************************************************
-------------------------------------------------------------------------------
                                 ORCA GUESS
                   Start orbitals & Density for SCF / CASSCF
-------------------------------------------------------------------------------

------------
SCF SETTINGS
------------
Hamiltonian:
 Density Functional     Method          .... DFT(GTOs)
 Exchange Functional    Exchange        .... M062X
 Correlation Functional Correlation     .... M062X
 Gradients option       PostSCFGGA      .... off
 Hybrid DFT is turned on
   Fraction HF Exchange ScalHFX         ....  0.540000
   Scaling of DF-GGA-X  ScalDFX         ....  0.460000
   Scaling of DF-GGA-C  ScalDFC         ....  1.000000
   Scaling of DF-LDA-C  ScalLDAC        ....  1.000000
   Perturbative correction              ....  0.000000
 RI-approximation to the Coulomb term is turned on
   Number of AuxJ basis functions       .... 885
   RIJ-COSX (HFX calculated with COS-X)).... on


General Settings:
 Integral files         IntName         .... data/single_point_P_M06-2x/521585/521585
 Hartree-Fock type      HFTyp           .... RHF
 Total Charge           Charge          ....    0
 Multiplicity           Mult            ....    1
 Number of Electrons    NEL             ....  120
 Basis Dimension        Dim             ....  556
 Nuclear Repulsion      ENuc            ....   1156.1171795586 Eh

Convergence Acceleration:
 AO-DIIS                CNVDIIS         .... on
   Start iteration      DIISMaxIt       ....    12
   Startup error        DIISStart       ....  0.200000
   # of expansion vecs  DIISMaxEq       ....     5
   Bias factor          DIISBfac        ....   1.050
   Max. coefficient     DIISMaxC        ....  10.000
 MO-DIIS                CNVKDIIS        .... off
 Trust-Rad. Augm. Hess. CNVTRAH         .... auto
   Auto Start mean grad. ratio tolernc. ....  1.125000
   Auto Start start iteration           ....    50
   Auto Start num. interpolation iter.  ....    10
   Max. Number of Micro iterations      ....    24
   Max. Number of Macro iterations      .... Maxiter - #DIIS iter
   Number of Davidson start vectors     ....     2
   Converg. threshold    (grad. norm)   ....   5.000e-05
   Grad. Scal. Fac. for Micro threshold ....   0.100
   Minimum threshold for Micro iter.    ....   1.000e-02
   NR start threshold (gradient norm)   ....   1.000e-04
   Initial trust radius                 ....   0.400
   Minimum AH scaling param. (alpha)    ....   1.000
   Maximum AH scaling param. (alpha)    .... 1000.000
   Quad. conv. algorithm                .... NR
   White noise on init. David. guess    .... on
   Maximum white noise                  ....   0.010
   Pseudo random numbers                .... off
   Inactive MOs                         .... canonical
   Orbital update algorithm             .... Taylor
   Preconditioner                       .... Diag
   Full preconditioner red. dimension   ....   250
 SOSCF                  CNVSOSCF        .... on
   Start iteration      SOSCFMaxIt      ....   150
   Startup grad/error   SOSCFStart      ....  0.003300
   Hessian update       SOSCFHessUp     .... L-BFGS
 Level Shifting         CNVShift        .... on
   Level shift para.    LevelShift      ....    0.2500
   Turn off err/grad.   ShiftErr        ....    0.0010
 Zerner damping         CNVZerner       .... off
 Static damping         CNVDamp         .... on
   Fraction old density DampFac         ....    0.7000
   Max. Damping (<1)    DampMax         ....    0.9800
   Min. Damping (>=0)   DampMin         ....    0.0000
   Turn off err/grad.   DampErr         ....    0.1000

SCF Procedure:
 Maximum # iterations   MaxIter         ....   125
 SCF integral mode      SCFMode         .... Direct
   Integral package                     .... SHARK and LIBINT hybrid scheme
 Reset frequency        DirectResetFreq ....    20
 Integral Threshold     Thresh          ....  1.000e-10 Eh
 Primitive CutOff       TCut            ....  1.000e-11 Eh

Convergence Tolerance:
 Convergence Check Mode ConvCheckMode   .... Total+1el-Energy
 Convergence forced     ConvForced      .... 0
 Energy Change          TolE            ....  1.000e-06 Eh
 1-El. energy change                    ....  1.000e-03 Eh
 Orbital Gradient       TolG            ....  5.000e-05
 Orbital Rotation angle TolX            ....  5.000e-05
 DIIS Error             TolErr          ....  1.000e-05

------------------------------
INITIAL GUESS: MODEL POTENTIAL
------------------------------
Loading Hartree-Fock densities                     ... done
Calculating cut-offs                               ... done
Initializing the effective Hamiltonian             ... done
Setting up the integral package (SHARK)            ... done
Starting the Coulomb interaction                   ... done (   0.2 sec)
Making the grid                                    ... done (   0.2 sec)
Mapping shells                                     ... done
Starting the XC term evaluation                    ... done (   0.3 sec)
  promolecular density results
     # of electrons  =    120.000275793
     EX              =   -110.983330333
     EC              =     -4.102992082
     EX+EC           =   -115.086322416
Transforming the Hamiltonian                       ... done (   0.0 sec)
Diagonalizing the Hamiltonian                      ... done (   0.1 sec)
Back transforming the eigenvectors                 ... done (   0.0 sec)
Now organizing SCF variables                       ... done
                      ------------------
                      INITIAL GUESS DONE (   0.8 sec)
                      ------------------
             **** ENERGY FILE WAS UPDATED (data/single_point_P_M06-2x/521585/521585.en.tmp) ****
Finished Guess after   1.0 sec
Maximum memory used throughout the entire GUESS-calculation: 34.8 MB


           ************************************************************
           *        Program running with 6 parallel MPI-processes     *
           *              working on a common directory               *
           ************************************************************

-------------------------------------------------------------------------------------------
                                      ORCA LEAN-SCF
                              memory conserving SCF solver
-------------------------------------------------------------------------------------------

----------------------------------------D-I-I-S--------------------------------------------
Iteration    Energy (Eh)           Delta-E    RMSDP     MaxDP     DIISErr   Damp  Time(sec)
-------------------------------------------------------------------------------------------
               ***  Starting incremental Fock matrix formation  ***
    1    -1029.3042867118535924     0.00e+00  8.51e-04  4.17e-02  1.46e-01  0.700   7.8
    2    -1029.4361213573940859    -1.32e-01  6.54e-04  2.93e-02  8.44e-02  0.700   4.5
                               ***Turning on AO-DIIS***
    3    -1029.4998733589357016    -6.38e-02  4.09e-04  1.79e-02  4.44e-02  0.700   4.2
    4    -1029.5376823744575177    -3.78e-02  9.31e-04  3.74e-02  3.11e-02  0.000   4.2
                              *** Initializing SOSCF ***
---------------------------------------S-O-S-C-F--------------------------------------
Iteration    Energy (Eh)           Delta-E    RMSDP     MaxDP     MaxGrad    Time(sec)
--------------------------------------------------------------------------------------
    5    -1029.6185684069048420    -8.09e-02  1.06e-04  1.37e-02  3.12e-03     4.4
               *** Restarting incremental Fock matrix formation ***
    6    -1029.6187882664578410    -2.20e-04  6.92e-05  9.44e-03  5.04e-04     7.5
    7    -1029.6187853949247710     2.87e-06  2.28e-05  2.24e-03  1.07e-03     5.6
    8    -1029.6188132190470697    -2.78e-05  7.86e-06  2.66e-04  9.94e-05     5.3
    9    -1029.6188132739619050    -5.49e-08  1.63e-06  1.28e-04  7.34e-05     4.6
                 **** Energy Check signals convergence ****

               *****************************************************
               *                     SUCCESS                       *
               *           SCF CONVERGED AFTER   9 CYCLES          *
               *****************************************************

Recomputing exchange energy using gridx3       ... done (   10.879 sec)
Old exchange energy                            :    -60.784574667 Eh
New exchange energy                            :    -60.784580525 Eh
Exchange energy change after final integration :     -0.000005858 Eh
Total energy after final integration           :  -1029.618819132 Eh
             **** ENERGY FILE WAS UPDATED (data/single_point_P_M06-2x/521585/521585.en.tmp) ****

----------------
TOTAL SCF ENERGY
----------------

Total Energy       :      -1029.61881913222078 Eh          -28017.35244 eV

Components:
Nuclear Repulsion  :       1156.11717955863128 Eh           31459.54783 eV
Electronic Energy  :      -2185.73599283259318 Eh          -59476.90011 eV
One Electron Energy:      -3705.06357340391241 Eh         -100819.90542 eV
Two Electron Energy:       1519.32758057131923 Eh           41343.00531 eV

Virial components:
Potential Energy   :      -2054.57523774109268 Eh          -55907.83452 eV
Kinetic Energy     :       1024.95641860887190 Eh           27890.48208 eV
Virial Ratio       :          2.00454887684852

DFT components:
N(Alpha)           :       60.000022757133 electrons
N(Beta)            :       60.000022757133 electrons
N(Total)           :      120.000045514266 electrons
E(XC)              :      -56.334521499961 Eh       

---------------
SCF CONVERGENCE
---------------

  Last Energy change         ...    5.4915e-08  Tolerance :   1.0000e-06
  Last MAX-Density change    ...    1.2812e-04  Tolerance :   1.0000e-05
  Last RMS-Density change    ...    1.6333e-06  Tolerance :   1.0000e-06
  Last DIIS Error            ...    3.1152e-03  Tolerance :   1.0000e-05
  Last Orbital Gradient      ...    7.3360e-05  Tolerance :   5.0000e-05
  Last Orbital Rotation      ...    6.8819e-05  Tolerance :   5.0000e-05


----------------
ORBITAL ENERGIES
----------------

  NO   OCC          E(Eh)            E(eV) 
   0   2.0000     -78.049534     -2123.8358 
   1   2.0000     -19.694474      -535.9139 
   2   2.0000     -19.694430      -535.9127 
   3   2.0000     -19.694426      -535.9126 
   4   2.0000     -10.598880      -288.4102 
   5   2.0000     -10.598809      -288.4082 
   6   2.0000     -10.598800      -288.4080 
   7   2.0000     -10.594595      -288.2936 
   8   2.0000     -10.594575      -288.2930 
   9   2.0000     -10.594566      -288.2928 
  10   2.0000     -10.548885      -287.0498 
  11   2.0000     -10.548854      -287.0489 
  12   2.0000     -10.548836      -287.0484 
  13   2.0000     -10.544487      -286.9301 
  14   2.0000     -10.544456      -286.9292 
  15   2.0000     -10.544421      -286.9283 
  16   2.0000      -6.864349      -186.7884 
  17   2.0000      -4.979544      -135.5003 
  18   2.0000      -4.978598      -135.4745 
  19   2.0000      -4.978591      -135.4744 
  20   2.0000      -1.231909       -33.5220 
  21   2.0000      -1.228068       -33.4174 
  22   2.0000      -1.228040       -33.4167 
  23   2.0000      -0.899074       -24.4651 
  24   2.0000      -0.896237       -24.3878 
  25   2.0000      -0.896205       -24.3870 
  26   2.0000      -0.870495       -23.6874 
  27   2.0000      -0.831648       -22.6303 
  28   2.0000      -0.831618       -22.6295 
  29   2.0000      -0.730901       -19.8888 
  30   2.0000      -0.681388       -18.5415 
  31   2.0000      -0.674781       -18.3617 
  32   2.0000      -0.674753       -18.3610 
  33   2.0000      -0.640390       -17.4259 
  34   2.0000      -0.640366       -17.4252 
  35   2.0000      -0.632216       -17.2035 
  36   2.0000      -0.607280       -16.5249 
  37   2.0000      -0.607245       -16.5240 
  38   2.0000      -0.560927       -15.2636 
  39   2.0000      -0.537585       -14.6284 
  40   2.0000      -0.537570       -14.6280 
  41   2.0000      -0.522849       -14.2274 
  42   2.0000      -0.500381       -13.6160 
  43   2.0000      -0.500371       -13.6158 
  44   2.0000      -0.483238       -13.1496 
  45   2.0000      -0.469335       -12.7713 
  46   2.0000      -0.466195       -12.6858 
  47   2.0000      -0.466158       -12.6848 
  48   2.0000      -0.453850       -12.3499 
  49   2.0000      -0.453802       -12.3486 
  50   2.0000      -0.451315       -12.2809 
  51   2.0000      -0.417357       -11.3569 
  52   2.0000      -0.417304       -11.3554 
  53   2.0000      -0.344457        -9.3731 
  54   2.0000      -0.344432        -9.3725 
  55   2.0000      -0.340131        -9.2554 
  56   2.0000      -0.318654        -8.6710 
  57   2.0000      -0.291737        -7.9386 
  58   2.0000      -0.291676        -7.9369 
  59   2.0000      -0.271404        -7.3853 
  60   0.0000       0.007264         0.1977 
  61   0.0000       0.007294         0.1985 
  62   0.0000       0.053775         1.4633 
  63   0.0000       0.083023         2.2592 
  64   0.0000       0.083127         2.2620 
  65   0.0000       0.086652         2.3579 
  66   0.0000       0.086718         2.3597 
  67   0.0000       0.087794         2.3890 
  68   0.0000       0.101504         2.7621 
  69   0.0000       0.107341         2.9209 
  70   0.0000       0.107358         2.9213 
*Only the first 10 virtual orbitals were printed.

                    ********************************
                    * MULLIKEN POPULATION ANALYSIS *
                    ********************************

-----------------------
MULLIKEN ATOMIC CHARGES
-----------------------
   0 C :   -0.206393
   1 C :    0.002709
   2 O :   -0.206227
   3 C :    0.084283
   4 C :   -0.182258
   5 P :    0.107231
   6 C :    0.085969
   7 C :   -0.182457
   8 C :   -0.209216
   9 C :    0.004297
  10 O :   -0.206471
  11 C :    0.087159
  12 C :   -0.182922
  13 C :   -0.207900
  14 C :    0.003026
  15 O :   -0.206059
  16 H :    0.149235
  17 H :    0.160882
  18 H :    0.161429
  19 H :    0.161172
  20 H :    0.149772
  21 H :    0.161070
  22 H :    0.161147
  23 H :    0.149566
  24 H :    0.160955
Sum of atomic charges:   -0.0000000

--------------------------------
MULLIKEN REDUCED ORBITAL CHARGES
--------------------------------
  0 C s       :     3.215448  s :     3.215448
      pz      :     0.905911  p :     2.927233
      px      :     1.016491
      py      :     1.004831
      dz2     :     0.013970  d :     0.056545
      dxz     :     0.013644
      dyz     :     0.009924
      dx2y2   :     0.007815
      dxy     :     0.011192
      f0      :     0.000980  f :     0.007167
      f+1     :     0.000715
      f-1     :     0.000919
      f+2     :     0.001136
      f-2     :     0.001378
      f+3     :     0.001261
      f-3     :     0.000778

  1 C s       :     3.186487  s :     3.186487
      pz      :     0.998458  p :     2.692255
      px      :     0.913454
      py      :     0.780343
      dz2     :     0.021003  d :     0.106457
      dxz     :     0.013530
      dyz     :     0.020379
      dx2y2   :     0.033794
      dxy     :     0.017750
      f0      :     0.001682  f :     0.012091
      f+1     :     0.001363
      f-1     :     0.001748
      f+2     :     0.001471
      f-2     :     0.001714
      f+3     :     0.001436
      f-3     :     0.002678

  2 O s       :     3.787420  s :     3.787420
      pz      :     1.359019  p :     4.370651
      px      :     1.587759
      py      :     1.423873
      dz2     :     0.012584  d :     0.045887
      dxz     :     0.009501
      dyz     :     0.006997
      dx2y2   :     0.007763
      dxy     :     0.009041
      f0      :     0.000435  f :     0.002269
      f+1     :     0.000316
      f-1     :     0.000406
      f+2     :     0.000202
      f-2     :     0.000278
      f+3     :     0.000323
      f-3     :     0.000309

  3 C s       :     3.192080  s :     3.192080
      pz      :     0.678296  p :     2.583567
      px      :     0.962677
      py      :     0.942593
      dz2     :     0.032724  d :     0.127678
      dxz     :     0.026213
      dyz     :     0.031731
      dx2y2   :     0.023747
      dxy     :     0.013263
      f0      :     0.002470  f :     0.012392
      f+1     :     0.002140
      f-1     :     0.002607
      f+2     :     0.001078
      f-2     :     0.001407
      f+3     :     0.001243
      f-3     :     0.001447

  4 C s       :     3.202107  s :     3.202107
      pz      :     1.005443  p :     2.907520
      px      :     0.973685
      py      :     0.928391
      dz2     :     0.015051  d :     0.065407
      dxz     :     0.012902
      dyz     :     0.007857
      dx2y2   :     0.018093
      dxy     :     0.011503
      f0      :     0.001039  f :     0.007225
      f+1     :     0.001331
      f-1     :     0.000920
      f+2     :     0.000799
      f-2     :     0.001328
      f+3     :     0.000876
      f-3     :     0.000931

  5 P s       :     5.716443  s :     5.716443
      pz      :     3.301573  p :     8.859280
      px      :     2.813098
      py      :     2.744610
      dz2     :     0.025275  d :     0.290680
      dxz     :     0.028870
      dyz     :     0.067984
      dx2y2   :     0.096658
      dxy     :     0.071893
      f0      :     0.002106  f :     0.026367
      f+1     :     0.002423
      f-1     :     0.003656
      f+2     :     0.004652
      f-2     :     0.004296
      f+3     :     0.003566
      f-3     :     0.005669

  6 C s       :     3.190234  s :     3.190234
      pz      :     0.697059  p :     2.583695
      px      :     0.867560
      py      :     1.019077
      dz2     :     0.030558  d :     0.127717
      dxz     :     0.033124
      dyz     :     0.035155
      dx2y2   :     0.011629
      dxy     :     0.017251
      f0      :     0.002642  f :     0.012384
      f+1     :     0.001615
      f-1     :     0.001622
      f+2     :     0.002176
      f-2     :     0.001971
      f+3     :     0.001065
      f-3     :     0.001295

  7 C s       :     3.202612  s :     3.202612
      pz      :     0.999101  p :     2.907154
      px      :     0.901409
      py      :     1.006645
      dz2     :     0.013059  d :     0.065462
      dxz     :     0.014892
      dyz     :     0.006795
      dx2y2   :     0.007720
      dxy     :     0.022997
      f0      :     0.001294  f :     0.007228
      f+1     :     0.001514
      f-1     :     0.000625
      f+2     :     0.000845
      f-2     :     0.001260
      f+3     :     0.000767
      f-3     :     0.000923

  8 C s       :     3.215444  s :     3.215444
      pz      :     0.910035  p :     2.930059
      px      :     0.974136
      py      :     1.045888
      dz2     :     0.010747  d :     0.056542
      dxz     :     0.009111
      dyz     :     0.015840
      dx2y2   :     0.010278
      dxy     :     0.010566
      f0      :     0.000841  f :     0.007172
      f+1     :     0.001446
      f-1     :     0.001203
      f+2     :     0.001027
      f-2     :     0.000471
      f+3     :     0.001183
      f-3     :     0.001001

  9 C s       :     3.184865  s :     3.184865
      pz      :     0.982990  p :     2.692423
      px      :     0.703272
      py      :     1.006161
      dz2     :     0.018072  d :     0.106324
      dxz     :     0.029303
      dyz     :     0.018361
      dx2y2   :     0.012567
      dxy     :     0.028020
      f0      :     0.001752  f :     0.012090
      f+1     :     0.002029
      f-1     :     0.001673
      f+2     :     0.001774
      f-2     :     0.000445
      f+3     :     0.001620
      f-3     :     0.002797

 10 O s       :     3.787291  s :     3.787291
      pz      :     1.484404  p :     4.370998
      px      :     1.277034
      py      :     1.609560
      dz2     :     0.011217  d :     0.045913
      dxz     :     0.011363
      dyz     :     0.006557
      dx2y2   :     0.007618
      dxy     :     0.009157
      f0      :     0.000288  f :     0.002270
      f+1     :     0.000391
      f-1     :     0.000226
      f+2     :     0.000345
      f-2     :     0.000213
      f+3     :     0.000418
      f-3     :     0.000389

 11 C s       :     3.189149  s :     3.189149
      pz      :     0.670290  p :     2.583440
      px      :     0.968903
      py      :     0.944246
      dz2     :     0.030866  d :     0.127860
      dxz     :     0.025373
      dyz     :     0.033401
      dx2y2   :     0.023304
      dxy     :     0.014916
      f0      :     0.002813  f :     0.012392
      f+1     :     0.001904
      f-1     :     0.002507
      f+2     :     0.001107
      f-2     :     0.001453
      f+3     :     0.000877
      f-3     :     0.001732

 12 C s       :     3.204424  s :     3.204424
      pz      :     0.990520  p :     2.905722
      px      :     0.996756
      py      :     0.918445
      dz2     :     0.014411  d :     0.065548
      dxz     :     0.015067
      dyz     :     0.009278
      dx2y2   :     0.012651
      dxy     :     0.014142
      f0      :     0.001388  f :     0.007229
      f+1     :     0.001306
      f-1     :     0.000679
      f+2     :     0.000596
      f-2     :     0.001271
      f+3     :     0.000619
      f-3     :     0.001371

 13 C s       :     3.214999  s :     3.214999
      pz      :     0.904634  p :     2.929175
      px      :     1.022355
      py      :     1.002186
      dz2     :     0.010783  d :     0.056553
      dxz     :     0.015615
      dyz     :     0.012962
      dx2y2   :     0.009429
      dxy     :     0.007763
      f0      :     0.000952  f :     0.007174
      f+1     :     0.000840
      f-1     :     0.000930
      f+2     :     0.001276
      f-2     :     0.001032
      f+3     :     0.001195
      f-3     :     0.000947

 14 C s       :     3.185303  s :     3.185303
      pz      :     0.960478  p :     2.693102
      px      :     0.976654
      py      :     0.755970
      dz2     :     0.021060  d :     0.106473
      dxz     :     0.013525
      dyz     :     0.021316
      dx2y2   :     0.028665
      dxy     :     0.021905
      f0      :     0.001033  f :     0.012096
      f+1     :     0.001251
      f-1     :     0.002642
      f+2     :     0.002045
      f-2     :     0.001611
      f+3     :     0.001621
      f-3     :     0.001892

 15 O s       :     3.787433  s :     3.787433
      pz      :     1.281434  p :     4.370455
      px      :     1.604635
      py      :     1.484387
      dz2     :     0.010951  d :     0.045901
      dxz     :     0.010436
      dyz     :     0.009757
      dx2y2   :     0.007527
      dxy     :     0.007229
      f0      :     0.000450  f :     0.002270
      f+1     :     0.000373
      f-1     :     0.000384
      f+2     :     0.000336
      f-2     :     0.000263
      f+3     :     0.000227
      f-3     :     0.000237

 16 H s       :     0.830690  s :     0.830690
      pz      :     0.002828  p :     0.020075
      px      :     0.007231
      py      :     0.010016

 17 H s       :     0.819096  s :     0.819096
      pz      :     0.012701  p :     0.020022
      px      :     0.003484
      py      :     0.003837

 18 H s       :     0.818570  s :     0.818570
      pz      :     0.011585  p :     0.020001
      px      :     0.005359
      py      :     0.003056

 19 H s       :     0.818852  s :     0.818852
      pz      :     0.012731  p :     0.019976
      px      :     0.003061
      py      :     0.004184

 20 H s       :     0.830149  s :     0.830149
      pz      :     0.004648  p :     0.020079
      px      :     0.011305
      py      :     0.004127

 21 H s       :     0.818921  s :     0.818921
      pz      :     0.009777  p :     0.020009
      px      :     0.005741
      py      :     0.004490

 22 H s       :     0.818876  s :     0.818876
      pz      :     0.010502  p :     0.019976
      px      :     0.005626
      py      :     0.003849

 23 H s       :     0.830350  s :     0.830350
      pz      :     0.003367  p :     0.020084
      px      :     0.005241
      py      :     0.011476

 24 H s       :     0.819026  s :     0.819026
      pz      :     0.013359  p :     0.020020
      px      :     0.004478
      py      :     0.002183



                     *******************************
                     * LOEWDIN POPULATION ANALYSIS *
                     *******************************

----------------------
LOEWDIN ATOMIC CHARGES
----------------------
   0 C :   -0.193150
   1 C :   -0.224565
   2 O :    0.331721
   3 C :   -0.387748
   4 C :   -0.172718
   5 P :    0.655985
   6 C :   -0.387665
   7 C :   -0.172694
   8 C :   -0.193333
   9 C :   -0.224423
  10 O :    0.331681
  11 C :   -0.387671
  12 C :   -0.172636
  13 C :   -0.193265
  14 C :   -0.224485
  15 O :    0.331737
  16 H :    0.144417
  17 H :    0.136101
  18 H :    0.147217
  19 H :    0.147218
  20 H :    0.144411
  21 H :    0.136127
  22 H :    0.147227
  23 H :    0.144406
  24 H :    0.136105

-------------------------------
LOEWDIN REDUCED ORBITAL CHARGES
-------------------------------
  0 C s       :     2.782409  s :     2.782409
      pz      :     1.032614  p :     3.003995
      px      :     0.986730
      py      :     0.984651
      dz2     :     0.105815  d :     0.360321
      dxz     :     0.080011
      dyz     :     0.077393
      dx2y2   :     0.032052
      dxy     :     0.065050
      f0      :     0.007414  f :     0.046425
      f+1     :     0.005750
      f-1     :     0.007054
      f+2     :     0.008981
      f-2     :     0.009901
      f+3     :     0.004406
      f-3     :     0.002919

  1 C s       :     2.806247  s :     2.806247
      pz      :     1.019799  p :     2.835909
      px      :     0.952004
      py      :     0.864105
      dz2     :     0.117364  d :     0.500574
      dxz     :     0.060053
      dyz     :     0.103875
      dx2y2   :     0.115343
      dxy     :     0.103940
      f0      :     0.011344  f :     0.081835
      f+1     :     0.010308
      f-1     :     0.011614
      f+2     :     0.011111
      f-2     :     0.011905
      f+3     :     0.011620
      f-3     :     0.013932

  2 O s       :     3.243036  s :     3.243036
      pz      :     1.376768  p :     4.292902
      px      :     1.508019
      py      :     1.408115
      dz2     :     0.033307  d :     0.124186
      dxz     :     0.024562
      dyz     :     0.027572
      dx2y2   :     0.018102
      dxy     :     0.020642
      f0      :     0.001632  f :     0.008155
      f+1     :     0.001469
      f-1     :     0.001558
      f+2     :     0.000689
      f-2     :     0.000793
      f+3     :     0.000876
      f-3     :     0.001138

  3 C s       :     2.807822  s :     2.807822
      pz      :     0.871864  p :     2.921848
      px      :     0.998707
      py      :     1.051277
      dz2     :     0.155877  d :     0.575122
      dxz     :     0.119485
      dyz     :     0.149653
      dx2y2   :     0.081060
      dxy     :     0.069047
      f0      :     0.018738  f :     0.082956
      f+1     :     0.017027
      f-1     :     0.018874
      f+2     :     0.006928
      f-2     :     0.008408
      f+3     :     0.006713
      f-3     :     0.006269

  4 C s       :     2.783298  s :     2.783298
      pz      :     0.991423  p :     2.970724
      px      :     0.973785
      py      :     1.005516
      dz2     :     0.090962  d :     0.371983
      dxz     :     0.071465
      dyz     :     0.068006
      dx2y2   :     0.075762
      dxy     :     0.065788
      f0      :     0.007133  f :     0.046712
      f+1     :     0.005735
      f-1     :     0.008475
      f+2     :     0.006098
      f-2     :     0.008842
      f+3     :     0.005911
      f-3     :     0.004518

  5 P s       :     4.907756  s :     4.907756
      pz      :     3.230370  p :     8.791083
      px      :     2.810255
      py      :     2.750458
      dz2     :     0.060922  d :     0.544076
      dxz     :     0.058860
      dyz     :     0.121852
      dx2y2   :     0.173932
      dxy     :     0.128510
      f0      :     0.007935  f :     0.101099
      f+1     :     0.007857
      f-1     :     0.015324
      f+2     :     0.019409
      f-2     :     0.014986
      f+3     :     0.016278
      f-3     :     0.019310

  6 C s       :     2.807812  s :     2.807812
      pz      :     0.901511  p :     2.921781
      px      :     1.064256
      py      :     0.956014
      dz2     :     0.168613  d :     0.575122
      dxz     :     0.167548
      dyz     :     0.111649
      dx2y2   :     0.076425
      dxy     :     0.050888
      f0      :     0.019677  f :     0.082950
      f+1     :     0.018655
      f-1     :     0.007881
      f+2     :     0.014889
      f-2     :     0.014472
      f+3     :     0.003953
      f-3     :     0.003424

  7 C s       :     2.783292  s :     2.783292
      pz      :     1.009879  p :     2.970700
      px      :     1.035002
      py      :     0.925819
      dz2     :     0.100413  d :     0.371992
      dxz     :     0.110370
      dyz     :     0.023554
      dx2y2   :     0.055397
      dxy     :     0.082257
      f0      :     0.006150  f :     0.046711
      f+1     :     0.014204
      f-1     :     0.001803
      f+2     :     0.007129
      f-2     :     0.010070
      f+3     :     0.004188
      f-3     :     0.003168

  8 C s       :     2.782427  s :     2.782427
      pz      :     1.048760  p :     3.004172
      px      :     0.996547
      py      :     0.958866
      dz2     :     0.098967  d :     0.360303
      dxz     :     0.112302
      dyz     :     0.060933
      dx2y2   :     0.054549
      dxy     :     0.033553
      f0      :     0.007742  f :     0.046430
      f+1     :     0.014437
      f-1     :     0.006397
      f+2     :     0.004894
      f-2     :     0.004057
      f+3     :     0.005018
      f-3     :     0.003884

  9 C s       :     2.806219  s :     2.806219
      pz      :     1.060640  p :     2.835760
      px      :     0.824961
      py      :     0.950159
      dz2     :     0.097492  d :     0.500605
      dxz     :     0.180482
      dyz     :     0.059317
      dx2y2   :     0.076817
      dxy     :     0.086497
      f0      :     0.015062  f :     0.081839
      f+1     :     0.017126
      f-1     :     0.008911
      f+2     :     0.011330
      f-2     :     0.002084
      f+3     :     0.012596
      f-3     :     0.014730

 10 O s       :     3.243035  s :     3.243035
      pz      :     1.484272  p :     4.292951
      px      :     1.326138
      py      :     1.482541
      dz2     :     0.026440  d :     0.124180
      dxz     :     0.035337
      dyz     :     0.012331
      dx2y2   :     0.023252
      dxy     :     0.026819
      f0      :     0.001868  f :     0.008154
      f+1     :     0.001606
      f-1     :     0.000863
      f+2     :     0.001267
      f-2     :     0.000808
      f+3     :     0.000809
      f-3     :     0.000933

 11 C s       :     2.807779  s :     2.807779
      pz      :     0.883380  p :     2.921768
      px      :     0.964823
      py      :     1.073565
      dz2     :     0.152244  d :     0.575169
      dxz     :     0.106898
      dyz     :     0.169533
      dx2y2   :     0.084157
      dxy     :     0.062338
      f0      :     0.021502  f :     0.082954
      f+1     :     0.015806
      f-1     :     0.018057
      f+2     :     0.005988
      f-2     :     0.009293
      f+3     :     0.005576
      f-3     :     0.006733

 12 C s       :     2.783305  s :     2.783305
      pz      :     0.996728  p :     2.970628
      px      :     0.950835
      py      :     1.023065
      dz2     :     0.089477  d :     0.371991
      dxz     :     0.068613
      dyz     :     0.090554
      dx2y2   :     0.058894
      dxy     :     0.064452
      f0      :     0.010984  f :     0.046713
      f+1     :     0.006639
      f-1     :     0.006237
      f+2     :     0.004121
      f-2     :     0.007248
      f+3     :     0.005044
      f-3     :     0.006440

 13 C s       :     2.782427  s :     2.782427
      pz      :     1.027327  p :     3.004133
      px      :     0.978839
      py      :     0.997967
      dz2     :     0.096841  d :     0.360278
      dxz     :     0.078777
      dyz     :     0.098020
      dx2y2   :     0.043729
      dxy     :     0.042912
      f0      :     0.007498  f :     0.046425
      f+1     :     0.005860
      f-1     :     0.008332
      f+2     :     0.008826
      f-2     :     0.008247
      f+3     :     0.004765
      f-3     :     0.002898

 14 C s       :     2.806219  s :     2.806219
      pz      :     0.981246  p :     2.835801
      px      :     0.968536
      py      :     0.886020
      dz2     :     0.125788  d :     0.500630
      dxz     :     0.055409
      dyz     :     0.106528
      dx2y2   :     0.113743
      dxy     :     0.099163
      f0      :     0.006905  f :     0.081835
      f+1     :     0.007027
      f-1     :     0.019874
      f+2     :     0.016057
      f-2     :     0.012772
      f+3     :     0.011278
      f-3     :     0.007922

 15 O s       :     3.243043  s :     3.243043
      pz      :     1.321666  p :     4.292898
      px      :     1.502929
      py      :     1.468303
      dz2     :     0.034812  d :     0.124168
      dxz     :     0.028212
      dyz     :     0.032214
      dx2y2   :     0.013952
      dxy     :     0.014979
      f0      :     0.001364  f :     0.008154
      f+1     :     0.001118
      f-1     :     0.002110
      f+2     :     0.001102
      f-2     :     0.000982
      f+3     :     0.000727
      f-3     :     0.000751

 16 H s       :     0.797334  s :     0.797334
      pz      :     0.010183  p :     0.058249
      px      :     0.020640
      py      :     0.027426

 17 H s       :     0.804627  s :     0.804627
      pz      :     0.034989  p :     0.059272
      px      :     0.011812
      py      :     0.012472

 18 H s       :     0.794539  s :     0.794539
      pz      :     0.031294  p :     0.058244
      px      :     0.016259
      py      :     0.010691

 19 H s       :     0.794551  s :     0.794551
      pz      :     0.033984  p :     0.058231
      px      :     0.010726
      py      :     0.013522

 20 H s       :     0.797335  s :     0.797335
      pz      :     0.014368  p :     0.058254
      px      :     0.030575
      py      :     0.013311

 21 H s       :     0.804621  s :     0.804621
      pz      :     0.027669  p :     0.059253
      px      :     0.017070
      py      :     0.014514

 22 H s       :     0.794532  s :     0.794532
      pz      :     0.028691  p :     0.058241
      px      :     0.016950
      py      :     0.012600

 23 H s       :     0.797326  s :     0.797326
      pz      :     0.011497  p :     0.058267
      px      :     0.015915
      py      :     0.030855

 24 H s       :     0.804630  s :     0.804630
      pz      :     0.036545  p :     0.059265
      px      :     0.014410
      py      :     0.008309



                      *****************************
                      * MAYER POPULATION ANALYSIS *
                      *****************************

  NA   - Mulliken gross atomic population
  ZA   - Total nuclear charge
  QA   - Mulliken gross atomic charge
  VA   - Mayer's total valence
  BVA  - Mayer's bonded valence
  FA   - Mayer's free valence

  ATOM       NA         ZA         QA         VA         BVA        FA
  0 C      6.2064     6.0000    -0.2064     3.9368     3.9368     0.0000
  1 C      5.9973     6.0000     0.0027     3.8997     3.8997     0.0000
  2 O      8.2062     8.0000    -0.2062     2.2502     2.2502    -0.0000
  3 C      5.9157     6.0000     0.0843     3.7494     3.7494    -0.0000
  4 C      6.1823     6.0000    -0.1823     3.8978     3.8978     0.0000
  5 P     14.8928    15.0000     0.1072     3.1571     3.1571    -0.0000
  6 C      5.9140     6.0000     0.0860     3.7478     3.7478    -0.0000
  7 C      6.1825     6.0000    -0.1825     3.9025     3.9025     0.0000
  8 C      6.2092     6.0000    -0.2092     3.9386     3.9386     0.0000
  9 C      5.9957     6.0000     0.0043     3.9002     3.9002    -0.0000
 10 O      8.2065     8.0000    -0.2065     2.2507     2.2507    -0.0000
 11 C      5.9128     6.0000     0.0872     3.7474     3.7474    -0.0000
 12 C      6.1829     6.0000    -0.1829     3.9020     3.9020    -0.0000
 13 C      6.2079     6.0000    -0.2079     3.9377     3.9377    -0.0000
 14 C      5.9970     6.0000     0.0030     3.9005     3.9005    -0.0000
 15 O      8.2061     8.0000    -0.2061     2.2507     2.2507    -0.0000
 16 H      0.8508     1.0000     0.1492     0.9710     0.9710     0.0000
 17 H      0.8391     1.0000     0.1609     0.9648     0.9648    -0.0000
 18 H      0.8386     1.0000     0.1614     0.9675     0.9675     0.0000
 19 H      0.8388     1.0000     0.1612     0.9675     0.9675     0.0000
 20 H      0.8502     1.0000     0.1498     0.9708     0.9708     0.0000
 21 H      0.8389     1.0000     0.1611     0.9648     0.9648    -0.0000
 22 H      0.8389     1.0000     0.1611     0.9676     0.9676    -0.0000
 23 H      0.8504     1.0000     0.1496     0.9710     0.9710    -0.0000
 24 H      0.8390     1.0000     0.1610     0.9649     0.9649    -0.0000

  Mayer bond orders larger than 0.100000
B(  0-C ,  1-C ) :   1.6713 B(  0-C ,  4-C ) :   1.2782 B(  0-C , 16-H ) :   0.9497 
B(  1-C ,  2-O ) :   1.1308 B(  1-C , 17-H ) :   0.9538 B(  2-O ,  3-C ) :   1.0391 
B(  3-C ,  4-C ) :   1.5936 B(  3-C ,  5-P ) :   0.9849 B(  4-C , 18-H ) :   0.9323 
B(  5-P ,  6-C ) :   0.9813 B(  5-P , 11-C ) :   0.9811 B(  6-C ,  7-C ) :   1.5955 
B(  6-C , 10-O ) :   1.0390 B(  7-C ,  8-C ) :   1.2800 B(  7-C , 19-H ) :   0.9319 
B(  8-C ,  9-C ) :   1.6717 B(  8-C , 20-H ) :   0.9491 B(  9-C , 10-O ) :   1.1312 
B(  9-C , 21-H ) :   0.9536 B( 11-C , 12-C ) :   1.5954 B( 11-C , 15-O ) :   1.0392 
B( 12-C , 13-C ) :   1.2790 B( 12-C , 22-H ) :   0.9322 B( 13-C , 14-C ) :   1.6717 
B( 13-C , 23-H ) :   0.9494 B( 14-C , 15-O ) :   1.1310 B( 14-C , 24-H ) :   0.9537 


-------
TIMINGS
-------

Total SCF time: 0 days 0 hours 0 min 59 sec 

Total time                  ....      59.508 sec
Sum of individual times     ....      59.517 sec  (100.0%)

SCF preparation             ....       0.190 sec  (  0.3%)
Fock matrix formation       ....      57.536 sec  ( 96.7%)
  Startup                   ....       0.064 sec  (  0.1% of F)
  Split-RI-J                ....       3.743 sec  (  6.5% of F)
  Chain of spheres X        ....      40.839 sec  ( 71.0% of F)
  XC integration            ....      12.701 sec  ( 22.1% of F)
    Basis function eval.    ....       1.733 sec  ( 13.6% of XC)
    Density eval.           ....       4.969 sec  ( 39.1% of XC)
    XC-Functional eval.     ....       0.250 sec  (  2.0% of XC)
    XC-Potential eval.      ....       4.897 sec  ( 38.6% of XC)
Diagonalization             ....       0.000 sec  (  0.0%)
Density matrix formation    ....       0.176 sec  (  0.3%)
Total Energy calculation    ....       0.064 sec  (  0.1%)
Population analysis         ....       0.115 sec  (  0.2%)
Orbital Transformation      ....       0.223 sec  (  0.4%)
Orbital Orthonormalization  ....       0.000 sec  (  0.0%)
DIIS solution               ....       0.779 sec  (  1.3%)
SOSCF solution              ....       0.434 sec  (  0.7%)
Finished LeanSCF after  59.5 sec

Maximum memory used throughout the entire LEANSCF-calculation: 65.1 MB


-------------------------------------------------------------------------------
                          DFT DISPERSION CORRECTION                            
                                                                               
                              DFTD3 V3.1  Rev 1                                
                              USING zero damping                               
-------------------------------------------------------------------------------
The M062X functional is recognized
Active option DFTDOPT                   ...         3   

molecular C6(AA) [au] = 9335.306328 


            DFT-D V3
 parameters
 s6 scaling factor         :     1.0000 
 rs6 scaling factor        :     1.6190 
 s8 scaling factor         :     0.0000 
 rs8 scaling factor        :     1.0000 
 Damping factor alpha6     :    14.0000 
 Damping factor alpha8     :    16.0000 
 ad hoc parameters k1-k3   :    16.0000     1.3333    -4.0000 

 Edisp/kcal,au: -0.760499460831  -0.001211932905 
 E6   /kcal   :  -0.760499461 
 E8   /kcal   :  -0.000000000 
 % E8         :   0.000000000 

-------------------------   ----------------
Dispersion correction           -0.001211933
-------------------------   ----------------


-------------------------   --------------------
FINAL SINGLE POINT ENERGY     -1029.620031065126
-------------------------   --------------------



           ************************************************************
           *        Program running with 6 parallel MPI-processes     *
           *              working on a common directory               *
           ************************************************************

------------------------------------------------------------------------------
                              ORCA PROPERTY CALCULATIONS
------------------------------------------------------------------------------

GBWName                                 ... data/single_point_P_M06-2x/521585/521585.gbw
Number of atoms                         ...     25
Number of basis functions               ...    556
Max core memory                         ...   1024 MB

Electric properties:
Dipole moment                           ... YES
Quadrupole moment                       ...  NO
Static polarizability (Dipole/Dipole)   ...  NO
Static polarizability (Dipole/Quad.)    ...  NO
Static polarizability (Quad./Quad.)     ...  NO
Static polarizability (Velocity)        ...  NO

Atomic electric properties:
Dipole moment                           ...  NO
Quadrupole moment                       ...  NO
Static polarizability                   ...  NO

Choice of electric origin               ... Center of mass
Position of electric origin             ...    -0.039827     0.017393    -0.101025

General magnetic properties:
Magnetizability                         ...  NO

EPR properties:
g-Tensor (aka g-matrix)                 ...  NO
Zero-Field splitting spin-orbit         ...  NO
Zero-field splitting spin-spin          ...  NO
Hyperfine couplings                     ...  NO (   0 nuclei)
Quadrupole couplings                    ...  NO (   0 nuclei)
Contact density                         ...  NO (   0 nuclei)

NMR properties:
Chemical shifts                         ...  NO (   0 nuclei)
Spin-rotation constants                 ...  NO (   0 nuclei)
Spin-spin couplings                     ...  NO (   0 nuclei,    0 pairs)

Choice of magnetic origin               ... GIAO
Position of magnetic origin             ...     0.000000     0.000000     0.000000

Properties with geometric perturbations:
SCF Hessian                             ...  NO
IR spectrum                             ...  NO
VCD spectrum                            ...  NO
X-ray spectroscopy properties:
SCF XES/XAS/RIXS spectra                ...  NO


-------------
DIPOLE MOMENT
-------------

Method             : SCF
Type of density    : Electron Density
Multiplicity       :   1
Irrep              :   0
Energy             : -1029.6188191322207786 Eh
Relativity type    : 
Basis              : AO
                                X                 Y                 Z
Electronic contribution:     -0.499600675       0.220003821      -1.269555012
Nuclear contribution   :      0.573323106      -0.252011244       1.457108082
                        -----------------------------------------
Total Dipole Moment    :      0.073722431      -0.032007423       0.187553071
                        -----------------------------------------
Magnitude (a.u.)       :      0.204048098
Magnitude (Debye)      :      0.518649048



--------------------
Rotational spectrum 
--------------------
 
Rotational constants in cm-1:             0.016892             0.016881             0.010775 
Rotational constants in MHz :           506.404547           506.085954           323.029793 

Dipole components along the rotational axes: 
x,y,z [a.u.] :     0.000945    -0.000512     0.204045 
x,y,z [Debye]:     0.002402    -0.001302     0.518642 

 

Dipole moment calculation done in   0.0 sec 

Maximum memory used throughout the entire PROP-calculation: 34.8 MB

--------------------------------
SUGGESTED CITATIONS FOR THIS RUN
--------------------------------

Below you find a list of papers that are relevant to this ORCA run
We neither can nor want to force you to cite these papers, but we appreciate if you do
You receive ORCA, which is the product of decades of hard work by many enthusiastic individuals, for free
The only thing we kindly ask in return is that you cite our papers,
We deeply appreciate it, if you show your appreciation for ORCA by not just citing the generic ORCA reference.

Please note that relegating all ORCA citations to the supporting information does *not* help us.
SI sections are not indexed - citations you put there will not count into any citation statistics
But we need these citations in order to attract the funding resources that allow us to do what we are doing

Therefore, if you are a happy ORCA user, please consider citing a few of the papers listed below in the main body of your paper

In addition to the list printed below, the program has created the file data/single_point_P_M06-2x/521585/521585.bibtex that contains the list in bibtex format
You can import this file easily into all common literature databanks and citation aid programs


List of essential papers. We consider these as the minimum necessary citations

  1. Neese,F.
     Software update: the ORCA program system, version 5.0
     WIRES Comput. Molec. Sci., 2022 12(1)e1606
     doi.org/10.1002/wcms.1606

List of papers to cite with high priority. The work reported in these papers was absolutely
necessary for this run to complete.
Our perspective: the developers of density functionals and basis sets usually get cited in chemistry papers
Good! But without the algorithms to do something with them, the functionals or basis sets would not do anything.
Hence, in our opinion, the algorithm design and method developments papers are equally worthy of getting cited

  1. Neese,F.
     An improvement of the resolution of the identity approximation for the formation of the Coulomb matrix
     J. Comp. Chem., 2003 24(14)1740-1747
     doi.org/10.1002/jcc.10318
  2. Neese,F.; Wennmohs,F.; Hansen,A.; Becker,U.
     Efficient, approximate and parallel Hartree-Fock and hybrid DFT calculations. A 'chain-of-spheres' algorithm for the Hartree-Fock exchange
     Chem. Phys., 2009 356(1-3)98-109
     doi.org/10.1016/j.chemphys.2008.10.036
  3. Helmich-Paris,B.; de Souza,B.; Neese,F.; Izsák,R.
     An improved chain of spheres for exchange algorithm
     J. Chem. Phys., 2021 155 104109
     doi.org/doi: 10.1063/5.0058766.
  4. Neese,F.
     The SHARK Integral Generation and Digestion System
     J. Comp. Chem., 2022  1-16
     doi.org/10.1002/jcc.26942
  5. Grimme,S.; Antony,J.; Ehrlich,S.; Krieg,H.
     A consistent and accurate ab initio parametrization of density functional dispersion correction (DFT-D) for the 94 elements H-Pu
     J. Chem. Phys., 2010 132 154104-XXXX
     doi.org/10.1063/1.3382344

List of suggested additional citations. These are papers that are important in the 'surrounding' of 
of this run, or papers that preceded the highly important papers. If you like your results we are grateful for a citation.

  1. Izsak,R.; Neese,F.
     An overlap fitted chain of spheres exchange method
     J. Chem. Phys., 2011 135 144105
     doi.org/10.1063/1.3646921
  2. Izsak,R.; Hansen,A.; Neese,F.
     The resolution of identity and chain of spheres approximations for the LPNO-CCSD singles Fock term
     Molec. Phys., 2012 110 2413-2417
     doi.org/10.1080/00268976.2012.687466
  3. Neese,F.
     The ORCA program system
     WIRES Comput. Molec. Sci., 2012 2(1)73-78
     doi.org/10.1002/wcms.81
  4. Izsak,R.; Neese,F.; Klopper,W.
     Robust fitting techniques in the chain of spheres approximation to the Fock exchange: The role of the complementary space
     J. Chem. Phys., 2013 139 
     doi.org/10.1063/1.4819264
  5. Neese,F.
     Software update: the ORCA program system, version 4.0
     WIRES Comput. Molec. Sci., 2018 8(1)1-6
     doi.org/10.1002/wcms.1327
  6. Neese,F.; Wennmohs,F.; Becker,U.; Riplinger,C.
     The ORCA quantum chemistry program package
     J. Chem. Phys., 2020 152 Art. No. L224108
     doi.org/10.1063/5.0004608

List of optional additional citations

  1. Neese,F.
     Approximate second-order SCF convergence for spin unrestricted wavefunctions
     Chem. Phys. Lett., 2000 325(1-3)93-98
     doi.org/10.1016/s0009-2614(00)00662-x

Timings for individual modules:

Sum of individual times          ...       63.537 sec (=   1.059 min)
Startup calculation              ...        2.588 sec (=   0.043 min)   4.1 %
SCF iterations                   ...       60.702 sec (=   1.012 min)  95.5 %
Property calculations            ...        0.247 sec (=   0.004 min)   0.4 %
                             ****ORCA TERMINATED NORMALLY****
TOTAL RUN TIME: 0 days 0 hours 1 minutes 3 seconds 759 msec
