
                                 *****************
                                 * O   R   C   A *
                                 *****************

                                            #,                                       
                                            ###                                      
                                            ####                                     
                                            #####                                    
                                            ######                                   
                                           ########,                                 
                                     ,,################,,,,,                         
                               ,,#################################,,                 
                          ,,##########################################,,             
                       ,#########################################, ''#####,          
                    ,#############################################,,   '####,        
                  ,##################################################,,,,####,       
                ,###########''''           ''''###############################       
              ,#####''   ,,,,##########,,,,          '''####'''          '####       
            ,##' ,,,,###########################,,,                        '##       
           ' ,,###''''                  '''############,,,                           
         ,,##''                                '''############,,,,        ,,,,,,###''
      ,#''                                            '''#######################'''  
     '                                                          ''''####''''         
             ,#######,   #######,   ,#######,      ##                                
            ,#'     '#,  ##    ##  ,#'     '#,    #''#        ,####,   ,####,        
            ##       ##  ##   ,#'  ##            #'  '#       #'       #'  '#        
            ##       ##  #######   ##           ,######,      #####,   #    #        
            '#,     ,#'  ##    ##  '#,     ,#' ,#      #,     #,   #   #,  ,#        
             '#######'   ##     ##  '#######'  #'      '#     '####' # '####'        



                #########################################################
                #                        -***-                          #
                #          Department of theory and spectroscopy        #
                #                                                       #
                #                      Frank Neese                      #
                #                                                       #
                #     Directorship, Architecture, Infrastructure        #
                #                    SHARK, DRIVERS                     #
                #        Core code/Algorithms in most modules           #
                #                                                       #
                #        Max Planck Institute fuer Kohlenforschung      #
                #                Kaiser Wilhelm Platz 1                 #
                #                 D-45470 Muelheim/Ruhr                 #
                #                      Germany                          #
                #                                                       #
                #                  All rights reserved                  #
                #                        -***-                          #
                #########################################################


                         Program Version 6.0.0  -   RELEASE   -


 With contributions from (in alphabetic order):
   Daniel Aravena         : Magnetic Suceptibility
   Michael Atanasov       : Ab Initio Ligand Field Theory (pilot matlab implementation)
   Alexander A. Auer      : GIAO ZORA, VPT2 properties, NMR spectrum
   Ute Becker             : All parallelization in ORCA, NUMFREQ, NUMCALC
   Giovanni Bistoni       : ED, misc. LED, open-shell LED, HFLD
   Martin Brehm           : Molecular dynamics
   Dmytro Bykov           : pre 5.0 version of the SCF Hessian
   Marcos Casanova-Páez   : Triplet and SCS-CIS(D). UHF-(DLPNO)-IP/EA/STEOM-CCSD. UHF-CVS-IP/STEOM-CCSD
   Vijay G. Chilkuri      : MRCI spin determinant printing, contributions to CSF-ICE
   Pauline Colinet        : FMM embedding
   Dipayan Datta          : RHF DLPNO-CCSD density
   Achintya Kumar Dutta   : EOM-CC, STEOM-CC
   Nicolas Foglia         : Exact transition moments, OPA infrastructure, MCD improvements
   Dmitry Ganyushin       : Spin-Orbit,Spin-Spin,Magnetic field MRCI
   Miquel Garcia          : C-PCM and meta-GGA Hessian, CCSD/C-PCM, Gaussian charge scheme
   Tiago L. C. Gouveia    : GS-ROHF, GS-ROCIS
   Yang Guo               : DLPNO-NEVPT2, F12-NEVPT2, CIM, IAO-localization
   Andreas Hansen         : Spin unrestricted coupled pair/coupled cluster methods
   Ingolf Harden          : AUTO-CI MPn and infrastructure 
   Benjamin Helmich-Paris : MC-RPA, TRAH-(SCF,CASSCF), AVAS, COSX integrals, SCF dyn. polar.
   Lee Huntington         : MR-EOM, pCC
   Robert Izsak           : Overlap fitted RIJCOSX, COSX-SCS-MP3, EOM
   Riya Kayal             : Wick's Theorem for AUTO-CI, AUTO-CI UHF-CCSDT
   Emily Kempfer          : AUTO-CI, RHF CISDT and CCSDT
   Christian Kollmar      : KDIIS, OOCD, Brueckner-CCSD(T), CCSD density, CASPT2, CASPT2-K, improved NEVPT2
   Axel Koslowski         : Symmetry handling
   Simone Kossmann        : Meta GGA functionals, TD-DFT gradient, OOMP2, (MP2 Hessian; deprecated post 5.0)
   Lucas Lang             : DCDCAS
   Marvin Lechner         : AUTO-CI (C++ implementation), FIC-MRCC
   Spencer Leger          : CASSCF response
   Dagmar Lenk            : GEPOL surface, SMD, ORCA-2-JSON
   Dimitrios Liakos       : Extrapolation schemes; Compound Job, initial MDCI parallelization
   Dimitrios Manganas     : Further ROCIS development; embedding schemes. LFT, Crystal Embedding
   Dimitrios Pantazis     : SARC Basis sets
   Anastasios Papadopoulos: AUTO-CI, single reference methods and gradients
   Taras Petrenko         : pre 6.0 DFT Hessian and TD-DFT gradient, (ASA, deprecated), ECA, 1-Electron XAS/XES, NRVS
   Peter Pinski           : DLPNO-MP2, DLPNO-MP2 Gradient
   Christoph Reimann      : Effective Core Potentials
   Marius Retegan         : Local ZFS, SOC
   Christoph Riplinger    : Optimizer, TS searches, QM/MM, DLPNO-CCSD(T), (RO)-DLPNO pert. Triples
   Michael Roemelt        : Original ROCIS implementation
   Masaaki Saitow         : Open-shell DLPNO-CCSD energy and density
   Barbara Sandhoefer     : DKH picture change effects
   Kantharuban Sivalingam : CASSCF convergence/infrastructure, NEVPT2 and variants, FIC-MRCI
   Bernardo de Souza      : ESD, SOC TD-DFT
   Georgi Stoychev        : AutoAux, RI-MP2 NMR, DLPNO-MP2 response, X2C
   Van Anh Tran           : RI-MP2 g-tensors
   Willem Van den Heuvel  : Paramagnetic NMR
   Zikuan Wang            : NOTCH, Electric field optimization 
   Frank Wennmohs         : Technical directorship and infrastructure
   Hang Xu                : AUTO-CI-Response properties 


 We gratefully acknowledge several colleagues who have allowed us to
 interface, adapt or use parts of their codes:
   Stefan Grimme, W. Hujo, H. Kruse, P. Pracht,  : VdW corrections, initial TS optimization,
                  C. Bannwarth, S. Ehlert,         DFT functionals, gCP, sTDA/sTD-DF
                  L. Wittmann, M. Mueller
   Ed Valeev, F. Pavosevic, A. Kumar             : LibInt (2-el integral package), F12 methods
   Garnet Chan, S. Sharma, J. Yang, R. Olivares  : DMRG
   Ulf Ekstrom                                   : XCFun DFT Library
   Mihaly Kallay                                 : mrcc  (arbitrary order and MRCC methods)
   Frank Weinhold                                : gennbo (NPA and NBO analysis)
   Simon Mueller                                 : openCOSMO-RS
   Christopher J. Cramer and Donald G. Truhlar   : smd solvation model
   Lars Goerigk                                  : TD-DFT with DH, B97 family of functionals
   V. Asgeirsson, H. Jonsson                     : NEB implementation
   FAccTs GmbH                                   : IRC, NEB, NEB-TS, DLPNO-Multilevel, CI-OPT
                                                   MM, QMMM, 2- and 3-layer-ONIOM, Crystal-QMMM,
                                                   LR-CPCM, SF, NACMEs, symmetry and pop. for TD-DFT,
                                                   nearIR, NL-DFT gradient (VV10), updates on ESD,
                                                   ML-optimized integration grids, MBIS, APM,
                                                   GOAT, DOCKER, SOLVATOR, interface openCOSMO-RS
   S Lehtola, MJT Oliveira, MAL Marques          : LibXC Library
   Liviu Ungur et al                             : ANISO software


 Your calculation uses the libint2 library for the computation of 2-el integrals
 For citations please refer to: http://libint.valeyev.net

 Your ORCA version has been built with support for libXC version: 6.2.2
 For citations please refer to: https://libxc.gitlab.io

 This ORCA versions uses:
   CBLAS   interface :  Fast vector & matrix operations
   LAPACKE interface :  Fast linear algebra routines
   Shared memory     :  Shared parallel matrices


Your calculation utilizes the atom-pairwise dispersion correction
with the zero-damping scheme (D30)


XCFun DFT library Copyright 2009-2010 Ulf Ekstrom and contributors.
See http://admol.org/xcfun for more information.
This is free software; see the source code for copying conditions.
There is ABSOLUTELY NO WARRANTY; not even for MERCHANTABILITY or FITNESS FOR A PARTICULAR PURPOSE.
For details see the documentation.
Scientific users of this library should cite U. Ekstrom, L. Visscher, R. Bast, A. J. Thorvaldsen and K. Ruud;
J.Chem.Theor.Comp. 2010, DOI: 10.1021/ct100117s
XCFun Version 0.99 

Warning: RI is on but no J-basis has been assigned. Assigning Def2/J (nothing to worry about!)
================================================================================

----- Orbital basis set information -----
Your calculation utilizes the basis: def2-TZVP
   F. Weigend and R. Ahlrichs, Phys. Chem. Chem. Phys. 7, 3297 (2005).

----- AuxJ basis set information -----
Your calculation utilizes the auxiliary basis: def2/J
   F. Weigend, Phys. Chem. Chem. Phys. 8, 1057 (2006).

================================================================================
                                        WARNINGS
                       Please study these warnings very carefully!
================================================================================

WARNING: Functional chosen is sensitive to the integration grid.
         DEFGRID3 seems to be a minimum grid for robust results!

================================================================================
                                       INPUT FILE
================================================================================
NAME = data/single_point_P_M06-2x/87021/87021.inp
|  1> ! RIJCOSX M062X def2-TZVP D3ZERO NormalSCF
|  2> %pal
|  3> nprocs 6
|  4> end
|  5> 
|  6> * xyz 0 1
|  7>   C          -3.15510360728847     -3.00739784247355     -1.30230800710728
|  8>   C          -2.40568037993976     -3.56914048085475     -0.25419429440732
|  9>   C          -1.52450586447554     -2.76572548394425      0.48639148136380
| 10>   C          -1.36059915814612     -1.39682242850792      0.17695139584226
| 11>   C          -2.12215990166175     -0.84195144691940     -0.87375003776740
| 12>   C          -3.01455916209555     -1.64239982328373     -1.60572099353474
| 13>   P          -0.16545104087987     -0.43949362531127      1.23548478058563
| 14>   C          -0.67813334101304      1.28916106664140      0.81536538137892
| 15>   C          -1.65591430607608      1.88892693874687      1.63554950539258
| 16>   C          -2.11776603270112      3.18587794886712      1.36257983513012
| 17>   C          -1.59726855291071      3.90475528833060      0.27299921920188
| 18>   C          -0.61647330022771      3.31740679128731     -0.54392790349967
| 19>   C          -0.16137470897714      2.01575294178146     -0.27732951783991
| 20>   C           1.38370278173850     -0.61962974866679      0.21563762893590
| 21>   C           1.40902960425405     -1.44414120001216     -0.93033503248328
| 22>   C           2.58763572696736     -1.64397050221523     -1.66487177428240
| 23>   C           3.78450474436053     -1.02384113794516     -1.27084748784273
| 24>   C           3.78811004890303     -0.20646054715751     -0.13512098824173
| 25>   C           2.60689916810699      0.00129652822761      0.61083740340340
| 26>   C           2.64540375886327      0.86385414349979      1.82101478768895
| 27>   O           1.67533751608341      1.13974791635990      2.51485053646214
| 28>   O           3.88836979462547      1.33311169885714      2.11688214544564
| 29>   H          -3.85483417066213     -3.63267994366411     -1.87808737744784
| 30>   H          -2.51687429454309     -4.63592027634452     -0.00495821918027
| 31>   H          -0.94878815067989     -3.20190606131401      1.31940296659777
| 32>   H          -2.01284904678968      0.22464733649774     -1.12084230931116
| 33>   H          -3.60427798163834     -1.19606924212706     -2.42173082925983
| 34>   H          -2.05287155996188      1.33172025188189      2.49900122624514
| 35>   H          -2.88256155932988      3.64202808929611      2.01019169643533
| 36>   H          -1.95418319779668      4.92463512995136      0.06211386165398
| 37>   H          -0.20445771930823      3.87516640002861     -1.39950198980057
| 38>   H           0.60139016673161      1.55868795643696     -0.92590054678122
| 39>   H           0.48189604917018     -1.93320843942459     -1.26003642889678
| 40>   H           2.56521964078366     -2.28707585816826     -2.55840766442974
| 41>   H           4.70987558293709     -1.17593469861273     -1.84636062936509
| 42>   H           4.71165468306563      0.28812691677003      0.19514236653011
| 43>   H           3.76765677051187      1.87886444348510      2.92383281318540
| 44> **                         ****END OF INPUT****
================================================================================

                       ****************************
                       * Single Point Calculation *
                       ****************************

---------------------------------
CARTESIAN COORDINATES (ANGSTROEM)
---------------------------------
  C     -3.155104   -3.007398   -1.302308
  C     -2.405680   -3.569140   -0.254194
  C     -1.524506   -2.765725    0.486391
  C     -1.360599   -1.396822    0.176951
  C     -2.122160   -0.841951   -0.873750
  C     -3.014559   -1.642400   -1.605721
  P     -0.165451   -0.439494    1.235485
  C     -0.678133    1.289161    0.815365
  C     -1.655914    1.888927    1.635550
  C     -2.117766    3.185878    1.362580
  C     -1.597269    3.904755    0.272999
  C     -0.616473    3.317407   -0.543928
  C     -0.161375    2.015753   -0.277330
  C      1.383703   -0.619630    0.215638
  C      1.409030   -1.444141   -0.930335
  C      2.587636   -1.643971   -1.664872
  C      3.784505   -1.023841   -1.270847
  C      3.788110   -0.206461   -0.135121
  C      2.606899    0.001297    0.610837
  C      2.645404    0.863854    1.821015
  O      1.675338    1.139748    2.514851
  O      3.888370    1.333112    2.116882
  H     -3.854834   -3.632680   -1.878087
  H     -2.516874   -4.635920   -0.004958
  H     -0.948788   -3.201906    1.319403
  H     -2.012849    0.224647   -1.120842
  H     -3.604278   -1.196069   -2.421731
  H     -2.052872    1.331720    2.499001
  H     -2.882562    3.642028    2.010192
  H     -1.954183    4.924635    0.062114
  H     -0.204458    3.875166   -1.399502
  H      0.601390    1.558688   -0.925901
  H      0.481896   -1.933208   -1.260036
  H      2.565220   -2.287076   -2.558408
  H      4.709876   -1.175935   -1.846361
  H      4.711655    0.288127    0.195142
  H      3.767657    1.878864    2.923833

----------------------------
CARTESIAN COORDINATES (A.U.)
----------------------------
  NO LB      ZA    FRAG     MASS         X           Y           Z
   0 C     6.0000    0    12.011   -5.962282   -5.683158   -2.461005
   1 C     6.0000    0    12.011   -4.546077   -6.744698   -0.480358
   2 C     6.0000    0    12.011   -2.880899   -5.226464    0.919147
   3 C     6.0000    0    12.011   -2.571160   -2.639612    0.334390
   4 C     6.0000    0    12.011   -4.010301   -1.591058   -1.651148
   5 C     6.0000    0    12.011   -5.696691   -3.103686   -3.034373
   6 P    15.0000    0    30.974   -0.312657   -0.830523    2.334728
   7 C     6.0000    0    12.011   -1.281486    2.436161    1.540817
   8 C     6.0000    0    12.011   -3.129225    3.569555    3.090741
   9 C     6.0000    0    12.011   -4.001998    6.020437    2.574903
  10 C     6.0000    0    12.011   -3.018400    7.378918    0.515894
  11 C     6.0000    0    12.011   -1.164966    6.268990   -1.027875
  12 C     6.0000    0    12.011   -0.304954    3.809221   -0.524077
  13 C     6.0000    0    12.011    2.614819   -1.170931    0.407496
  14 C     6.0000    0    12.011    2.662680   -2.729031   -1.758078
  15 C     6.0000    0    12.011    4.889923   -3.106654   -3.146152
  16 C     6.0000    0    12.011    7.151678   -1.934779   -2.401554
  17 C     6.0000    0    12.011    7.158491   -0.390154   -0.255342
  18 C     6.0000    0    12.011    4.926325    0.002450    1.154315
  19 C     6.0000    0    12.011    4.999089    1.632448    3.441219
  20 O     8.0000    0    15.999    3.165929    2.153811    4.752379
  21 O     8.0000    0    15.999    7.347954    2.519216    4.000328
  22 H     1.0000    0     1.008   -7.284581   -6.864770   -3.549071
  23 H     1.0000    0     1.008   -4.756203   -8.760620   -0.009370
  24 H     1.0000    0     1.008   -1.792950   -6.050726    2.493310
  25 H     1.0000    0     1.008   -3.803733    0.424522   -2.118085
  26 H     1.0000    0     1.008   -6.811098   -2.260243   -4.576408
  27 H     1.0000    0     1.008   -3.879365    2.516587    4.722428
  28 H     1.0000    0     1.008   -5.447252    6.882436    3.798712
  29 H     1.0000    0     1.008   -3.692871    9.306212    0.117378
  30 H     1.0000    0     1.008   -0.386369    7.323003   -2.644675
  31 H     1.0000    0     1.008    1.136463    2.945493   -1.749698
  32 H     1.0000    0     1.008    0.910652   -3.653235   -2.381124
  33 H     1.0000    0     1.008    4.847563   -4.321947   -4.834690
  34 H     1.0000    0     1.008    8.900375   -2.222195   -3.489116
  35 H     1.0000    0     1.008    8.903737    0.544481    0.368766
  36 H     1.0000    0     1.008    7.119839    3.550539    5.525243

--------------------------------
INTERNAL COORDINATES (ANGSTROEM)
--------------------------------
 C      0   0   0     0.000000000000     0.00000000     0.00000000
 C      1   0   0     1.405607455947     0.00000000     0.00000000
 C      2   1   0     1.403713459093   119.95786837     0.00000000
 C      3   2   1     1.412980590840   120.78200045   358.86315073
 C      4   3   2     1.411322101741   118.77278137     1.38649725
 C      5   4   3     1.404590874004   120.44785182   359.30120268
 P      4   3   2     1.861545160949   116.62625364   179.87990046
 C      7   4   3     1.851375298115    99.98286436   196.42895163
 C      8   7   4     1.410133580292   117.20405780    91.63831762
 C      9   8   7     1.403531752730   120.53589256   181.43959100
 C     10   9   8     1.405307145883   120.10678690   359.35980501
 C     11  10   9     1.405100533225   119.70154609     0.22545231
 C     12  11  10     1.404454403293   120.21451821     0.26311304
 C      7   4   3     1.863441655056    99.95156119    92.94179644
 C     14   7   4     1.411989349131   121.03376678   354.01979536
 C     15  14   7     1.403063921412   121.54217481   183.45534406
 C     16  15  14     1.404389907230   120.40600741     0.15829128
 C     17  16  15     1.399285071139   119.19957191     0.13503103
 C     18  17  16     1.412400817526   120.82653415   359.84841127
 C     19  18  17     1.486612775611   119.57916522   179.36663514
 O     20  19  18     1.224154375706   124.86433135   177.80936492
 O     20  19  18     1.361140959895   113.61765980   357.31203280
 H      1   2   3     1.100964327623   120.12265135   180.64014954
 H      2   1   3     1.101136612735   120.13984220   179.29057255
 H      3   2   1     1.102548192409   119.99826226   178.98805923
 H      5   4   3     1.100289243079   119.64984130   179.43378132
 H      6   5   4     1.101295294550   119.69512768   179.87063322
 H      9   8   7     1.101636613200   119.38037126     1.74607358
 H     10   9   8     1.101084134418   119.80091053   179.91750243
 H     11  10   9     1.100915795648   120.15447354   180.40305734
 H     12  11  10     1.101299068016   120.07388039   179.99042679
 H     13  12  11     1.100619387447   119.84094237   179.52312347
 H     15  14   7     1.098847762170   119.22728081     4.03772779
 H     16  15  14     1.101132765273   119.40000023   180.55145230
 H     17  16  15     1.100299512019   120.59430704   180.18811019
 H     18  17  16     1.098464990006   120.61102728   179.86696565
 H     22  20  19     0.981624710684   104.95520982   179.93878899

---------------------------
INTERNAL COORDINATES (A.U.)
---------------------------
 C      0   0   0     0.000000000000     0.00000000     0.00000000
 C      1   0   0     2.656213143538     0.00000000     0.00000000
 C      2   1   0     2.652634008185   119.95786837     0.00000000
 C      3   2   1     2.670146349234   120.78200045   358.86315073
 C      4   3   2     2.667012259041   118.77278137     1.38649725
 C      5   4   3     2.654292082072   120.44785182   359.30120268
 P      4   3   2     3.517810540119   116.62625364   179.87990046
 C      7   4   3     3.498592284544    99.98286436   196.42895163
 C      8   7   4     2.664766278997   117.20405780    91.63831762
 C      9   8   7     2.652290632922   120.53589256   181.43959100
 C     10   9   8     2.655645639761   120.10678690   359.35980501
 C     11  10   9     2.655255198422   119.70154609     0.22545231
 C     12  11  10     2.654034189803   120.21451821     0.26311304
 C      7   4   3     3.521394394597    99.95156119    92.94179644
 C     14   7   4     2.668273173871   121.03376678   354.01979536
 C     15  14   7     2.651406559855   121.54217481   183.45534406
 C     16  15  14     2.653912309908   120.40600741     0.15829128
 C     17  16  15     2.644265567738   119.19957191     0.13503103
 C     18  17  16     2.669050736451   120.82653415   359.84841127
 C     19  18  17     2.809291013093   119.57916522   179.36663514
 O     20  19  18     2.313316515725   124.86433135   177.80936492
 O     20  19  18     2.572183643865   113.61765980   357.31203280
 H      1   2   3     2.080521062424   120.12265135   180.64014954
 H      2   1   3     2.080846634102   120.13984220   179.29057255
 H      3   2   1     2.083514133103   119.99826226   178.98805923
 H      5   4   3     2.079245337520   119.64984130   179.43378132
 H      6   5   4     2.081146499276   119.69512768   179.87063322
 H      9   8   7     2.081791498049   119.38037126     1.74607358
 H     10   9   8     2.080747464457   119.80091053   179.91750243
 H     11  10   9     2.080429350282   120.15447354   180.40305734
 H     12  11  10     2.081153630093   120.07388039   179.99042679
 H     13  12  11     2.079869219960   119.84094237   179.52312347
 H     15  14   7     2.076521333373   119.22728081     4.03772779
 H     16  15  14     2.080839363452   119.40000023   180.55145230
 H     17  16  15     2.079264743003   120.59430704   180.18811019
 H     18  17  16     2.075797998813   120.61102728   179.86696565
 H     22  20  19     1.855001869482   104.95520982   179.93878899

---------------------
BASIS SET INFORMATION
---------------------
There are 4 groups of distinct atoms

 Group   1 Type C   : 11s6p2d1f contracted to 5s3p2d1f pattern {62111/411/11/1}
 Group   2 Type P   : 14s9p3d1f contracted to 5s5p2d1f pattern {73211/51111/21/1}
 Group   3 Type O   : 11s6p2d1f contracted to 5s3p2d1f pattern {62111/411/11/1}
 Group   4 Type H   : 5s1p contracted to 3s1p pattern {311/1}

Atom   0C    basis set group =>   1
Atom   1C    basis set group =>   1
Atom   2C    basis set group =>   1
Atom   3C    basis set group =>   1
Atom   4C    basis set group =>   1
Atom   5C    basis set group =>   1
Atom   6P    basis set group =>   2
Atom   7C    basis set group =>   1
Atom   8C    basis set group =>   1
Atom   9C    basis set group =>   1
Atom  10C    basis set group =>   1
Atom  11C    basis set group =>   1
Atom  12C    basis set group =>   1
Atom  13C    basis set group =>   1
Atom  14C    basis set group =>   1
Atom  15C    basis set group =>   1
Atom  16C    basis set group =>   1
Atom  17C    basis set group =>   1
Atom  18C    basis set group =>   1
Atom  19C    basis set group =>   1
Atom  20O    basis set group =>   3
Atom  21O    basis set group =>   3
Atom  22H    basis set group =>   4
Atom  23H    basis set group =>   4
Atom  24H    basis set group =>   4
Atom  25H    basis set group =>   4
Atom  26H    basis set group =>   4
Atom  27H    basis set group =>   4
Atom  28H    basis set group =>   4
Atom  29H    basis set group =>   4
Atom  30H    basis set group =>   4
Atom  31H    basis set group =>   4
Atom  32H    basis set group =>   4
Atom  33H    basis set group =>   4
Atom  34H    basis set group =>   4
Atom  35H    basis set group =>   4
Atom  36H    basis set group =>   4
---------------------------------
AUXILIARY/J BASIS SET INFORMATION
---------------------------------
There are 4 groups of distinct atoms

 Group   1 Type C   : 12s5p4d2f1g contracted to 6s4p3d1f1g pattern {711111/2111/211/2/1}
 Group   2 Type P   : 14s5p5d2f1g contracted to 8s4p3d1f1g pattern {71111111/2111/311/2/1}
 Group   3 Type O   : 12s5p4d2f1g contracted to 6s4p3d1f1g pattern {711111/2111/211/2/1}
 Group   4 Type H   : 5s2p1d contracted to 3s1p1d pattern {311/2/1}

Atom   0C    basis set group =>   1
Atom   1C    basis set group =>   1
Atom   2C    basis set group =>   1
Atom   3C    basis set group =>   1
Atom   4C    basis set group =>   1
Atom   5C    basis set group =>   1
Atom   6P    basis set group =>   2
Atom   7C    basis set group =>   1
Atom   8C    basis set group =>   1
Atom   9C    basis set group =>   1
Atom  10C    basis set group =>   1
Atom  11C    basis set group =>   1
Atom  12C    basis set group =>   1
Atom  13C    basis set group =>   1
Atom  14C    basis set group =>   1
Atom  15C    basis set group =>   1
Atom  16C    basis set group =>   1
Atom  17C    basis set group =>   1
Atom  18C    basis set group =>   1
Atom  19C    basis set group =>   1
Atom  20O    basis set group =>   3
Atom  21O    basis set group =>   3
Atom  22H    basis set group =>   4
Atom  23H    basis set group =>   4
Atom  24H    basis set group =>   4
Atom  25H    basis set group =>   4
Atom  26H    basis set group =>   4
Atom  27H    basis set group =>   4
Atom  28H    basis set group =>   4
Atom  29H    basis set group =>   4
Atom  30H    basis set group =>   4
Atom  31H    basis set group =>   4
Atom  32H    basis set group =>   4
Atom  33H    basis set group =>   4
Atom  34H    basis set group =>   4
Atom  35H    basis set group =>   4
Atom  36H    basis set group =>   4


           ************************************************************
           *        Program running with 6 parallel MPI-processes     *
           *              working on a common directory               *
           ************************************************************
------------------------------------------------------------------------------
                             ORCA STARTUP CALCULATIONS
                           -- RI-GTO INTEGRALS CHOSEN --
------------------------------------------------------------------------------
------------------------------------------------------------------------------
                   ___                                                        
                  /   \      - P O W E R E D   B Y -                         
                 /     \                                                     
                 |  |  |   _    _      __       _____    __    __             
                 |  |  |  | |  | |    /  \     |  _  \  |  |  /  |          
                  \  \/   | |  | |   /    \    | | | |  |  | /  /          
                 / \  \   | |__| |  /  /\  \   | |_| |  |  |/  /          
                |  |  |   |  __  | /  /__\  \  |    /   |      \           
                |  |  |   | |  | | |   __   |  |    \   |  |\   \          
                \     /   | |  | | |  |  |  |  | |\  \  |  | \   \       
                 \___/    |_|  |_| |__|  |__|  |_| \__\ |__|  \__/        
                                                                              
                      - O R C A' S   B I G   F R I E N D -                    
                                      &                                       
                       - I N T E G R A L  F E E D E R -                       
                                                                              
 v1 FN, 2020, v2 2021, v3 2022-2024                                           
------------------------------------------------------------------------------


----------------------
SHARK INTEGRAL PACKAGE
----------------------

Number of atoms                             ...     37
Number of basis functions                   ...    778
Number of shells                            ...    304
Maximum angular momentum                    ...      3
Integral batch strategy                     ... SHARK/LIBINT Hybrid
RI-J (if used) integral strategy            ... SPLIT-RIJ (Revised 2003 algorithm where possible)
Printlevel                                  ...      1
Contraction scheme used                     ... SEGMENTED contraction
Prescreening option                         ... SCHWARTZ
   Thresh                                   ... 1.000e-10
   Tcut                                     ... 1.000e-11
   Tpresel                                  ... 1.000e-11 
Coulomb Range Separation                    ... NOT USED
Exchange Range Separation                   ... NOT USED
Multipole approximations                    ... NOT USED
Finite Nucleus Model                        ... NOT USED
CABS basis                                  ... NOT available
Auxiliary Coulomb fitting basis             ... AVAILABLE
   # of basis functions in Aux-J            ...   1245
   # of shells in Aux-J                     ...    407
   Maximum angular momentum in Aux-J        ...      4
Auxiliary J/K fitting basis                 ... NOT available
Auxiliary Correlation fitting basis         ... NOT available
Auxiliary 'external' fitting basis          ... NOT available

Checking pre-screening integrals            ... done (  0.0 sec) Dimension = 304
Check shell pair data                       ... done (  0.0 sec)
Shell pair information
Shell pair cut-off parameter TPreSel        ...   1.0e-11
Total number of shell pairs                 ...     46360
Shell pairs after pre-screening             ...     33242
Total number of primitive shell pairs       ...    144996
Primitive shell pairs kept                  ...     68085
          la=0 lb=0:   8219 shell pairs
          la=1 lb=0:   9581 shell pairs
          la=1 lb=1:   2808 shell pairs
          la=2 lb=0:   4746 shell pairs
          la=2 lb=1:   2818 shell pairs
          la=2 lb=2:    732 shell pairs
          la=3 lb=0:   2210 shell pairs
          la=3 lb=1:   1309 shell pairs
          la=3 lb=2:    660 shell pairs
          la=3 lb=3:    159 shell pairs

Calculating one electron integrals          ... done (  0.1 sec)
Calculating RI/J V-Matrix + Cholesky decomp.... done (  0.1 sec)
Calculating Nuclear repulsion               ... done (  0.0 sec) ENN=   1826.351953911630 Eh

Diagonalization of the overlap matrix:
Smallest eigenvalue                        ... 6.585e-06
Time for diagonalization                   ...    0.123 sec
Threshold for overlap eigenvalues          ... 1.000e-07
Number of eigenvalues below threshold      ... 0
Time for construction of square roots      ...    0.059 sec
Total time needed                          ...    0.188 sec

-------------------
DFT GRID GENERATION
-------------------

General Integration Accuracy     IntAcc      ... 4.388
Radial Grid Type                 RadialGrid  ... OptM3 with GC (2021)
Angular Grid (max. ang.)         AngularGrid ... 4 (Lebedev-302)
Angular grid pruning method      GridPruning ... 4 (adaptive)
Weight generation scheme         WeightScheme... mBecke (2022)
Basis function cutoff            BFCut       ... 1.0000e-10
Integration weight cutoff        WCut        ... 1.0000e-14
Partially contracted basis set               ... off
Rotationally invariant grid construction     ... off
Angular grids for H and He will be reduced by one unit

Total number of grid points                  ...   180647
Total number of batches                      ...     2846
Average number of points per batch           ...       63
Average number of grid points per atom       ...     4882

--------------------
COSX GRID GENERATION
--------------------

GRIDX 1
-------
General Integration Accuracy     IntAcc      ... 3.816
Radial Grid Type                 RadialGrid  ... OptM3 with GC (2021)
Angular Grid (max. ang.)         AngularGrid ... 1 (Lebedev-50)
Angular grid pruning method      GridPruning ... 4 (adaptive)
Weight generation scheme         WeightScheme... mBecke (2022)
Basis function cutoff            BFCut       ... 1.0000e-10
Integration weight cutoff        WCut        ... 1.0000e-14
Partially contracted basis set               ... on
Rotationally invariant grid construction     ... off
Angular grids for H and He will be reduced by one unit

Total number of grid points                  ...    23899
Total number of batches                      ...      200
Average number of points per batch           ...      119
Average number of grid points per atom       ...      646
UseSFitting                                  ... on

GRIDX 2
-------
General Integration Accuracy     IntAcc      ... 4.020
Radial Grid Type                 RadialGrid  ... OptM3 with GC (2021)
Angular Grid (max. ang.)         AngularGrid ... 2 (Lebedev-110)
Angular grid pruning method      GridPruning ... 4 (adaptive)
Weight generation scheme         WeightScheme... mBecke (2022)
Basis function cutoff            BFCut       ... 1.0000e-10
Integration weight cutoff        WCut        ... 1.0000e-14
Partially contracted basis set               ... on
Rotationally invariant grid construction     ... off
Angular grids for H and He will be reduced by one unit

Total number of grid points                  ...    49953
Total number of batches                      ...      410
Average number of points per batch           ...      121
Average number of grid points per atom       ...     1350
UseSFitting                                  ... on

GRIDX 3
-------
General Integration Accuracy     IntAcc      ... 4.338
Radial Grid Type                 RadialGrid  ... OptM3 with GC (2021)
Angular Grid (max. ang.)         AngularGrid ... 3 (Lebedev-194)
Angular grid pruning method      GridPruning ... 4 (adaptive)
Weight generation scheme         WeightScheme... mBecke (2022)
Basis function cutoff            BFCut       ... 1.0000e-10
Integration weight cutoff        WCut        ... 1.0000e-14
Partially contracted basis set               ... on
Rotationally invariant grid construction     ... off
Angular grids for H and He will be reduced by one unit

Total number of grid points                  ...   109732
Total number of batches                      ...      874
Average number of points per batch           ...      125
Average number of grid points per atom       ...     2966
UseSFitting                                  ... on
Initializing property integral containers    ... done (  0.0 sec)

SHARK setup successfully completed in   4.6 seconds

Maximum memory used throughout the entire STARTUP-calculation: 76.9 MB


           ************************************************************
           *        Program running with 6 parallel MPI-processes     *
           *              working on a common directory               *
           ************************************************************
-------------------------------------------------------------------------------
                                 ORCA GUESS
                   Start orbitals & Density for SCF / CASSCF
-------------------------------------------------------------------------------

------------
SCF SETTINGS
------------
Hamiltonian:
 Density Functional     Method          .... DFT(GTOs)
 Exchange Functional    Exchange        .... M062X
 Correlation Functional Correlation     .... M062X
 Gradients option       PostSCFGGA      .... off
 Hybrid DFT is turned on
   Fraction HF Exchange ScalHFX         ....  0.540000
   Scaling of DF-GGA-X  ScalDFX         ....  0.460000
   Scaling of DF-GGA-C  ScalDFC         ....  1.000000
   Scaling of DF-LDA-C  ScalLDAC        ....  1.000000
   Perturbative correction              ....  0.000000
 RI-approximation to the Coulomb term is turned on
   Number of AuxJ basis functions       .... 1245
   RIJ-COSX (HFX calculated with COS-X)).... on


General Settings:
 Integral files         IntName         .... data/single_point_P_M06-2x/87021/87021
 Hartree-Fock type      HFTyp           .... RHF
 Total Charge           Charge          ....    0
 Multiplicity           Mult            ....    1
 Number of Electrons    NEL             ....  160
 Basis Dimension        Dim             ....  778
 Nuclear Repulsion      ENuc            ....   1826.3519539116 Eh

Convergence Acceleration:
 AO-DIIS                CNVDIIS         .... on
   Start iteration      DIISMaxIt       ....    12
   Startup error        DIISStart       ....  0.200000
   # of expansion vecs  DIISMaxEq       ....     5
   Bias factor          DIISBfac        ....   1.050
   Max. coefficient     DIISMaxC        ....  10.000
 MO-DIIS                CNVKDIIS        .... off
 Trust-Rad. Augm. Hess. CNVTRAH         .... auto
   Auto Start mean grad. ratio tolernc. ....  1.125000
   Auto Start start iteration           ....    50
   Auto Start num. interpolation iter.  ....    10
   Max. Number of Micro iterations      ....    24
   Max. Number of Macro iterations      .... Maxiter - #DIIS iter
   Number of Davidson start vectors     ....     2
   Converg. threshold    (grad. norm)   ....   5.000e-05
   Grad. Scal. Fac. for Micro threshold ....   0.100
   Minimum threshold for Micro iter.    ....   1.000e-02
   NR start threshold (gradient norm)   ....   1.000e-04
   Initial trust radius                 ....   0.400
   Minimum AH scaling param. (alpha)    ....   1.000
   Maximum AH scaling param. (alpha)    .... 1000.000
   Quad. conv. algorithm                .... NR
   White noise on init. David. guess    .... on
   Maximum white noise                  ....   0.010
   Pseudo random numbers                .... off
   Inactive MOs                         .... canonical
   Orbital update algorithm             .... Taylor
   Preconditioner                       .... Diag
   Full preconditioner red. dimension   ....   250
 SOSCF                  CNVSOSCF        .... on
   Start iteration      SOSCFMaxIt      ....   150
   Startup grad/error   SOSCFStart      ....  0.003300
   Hessian update       SOSCFHessUp     .... L-BFGS
 Level Shifting         CNVShift        .... on
   Level shift para.    LevelShift      ....    0.2500
   Turn off err/grad.   ShiftErr        ....    0.0010
 Zerner damping         CNVZerner       .... off
 Static damping         CNVDamp         .... on
   Fraction old density DampFac         ....    0.7000
   Max. Damping (<1)    DampMax         ....    0.9800
   Min. Damping (>=0)   DampMin         ....    0.0000
   Turn off err/grad.   DampErr         ....    0.1000

SCF Procedure:
 Maximum # iterations   MaxIter         ....   125
 SCF integral mode      SCFMode         .... Direct
   Integral package                     .... SHARK and LIBINT hybrid scheme
 Reset frequency        DirectResetFreq ....    20
 Integral Threshold     Thresh          ....  1.000e-10 Eh
 Primitive CutOff       TCut            ....  1.000e-11 Eh

Convergence Tolerance:
 Convergence Check Mode ConvCheckMode   .... Total+1el-Energy
 Convergence forced     ConvForced      .... 0
 Energy Change          TolE            ....  1.000e-06 Eh
 1-El. energy change                    ....  1.000e-03 Eh
 Orbital Gradient       TolG            ....  5.000e-05
 Orbital Rotation angle TolX            ....  5.000e-05
 DIIS Error             TolErr          ....  1.000e-05

------------------------------
INITIAL GUESS: MODEL POTENTIAL
------------------------------
Loading Hartree-Fock densities                     ... done
Calculating cut-offs                               ... done
Initializing the effective Hamiltonian             ... done
Setting up the integral package (SHARK)            ... done
Starting the Coulomb interaction                   ... done (   0.6 sec)
Making the grid                                    ... done (   0.4 sec)
Mapping shells                                     ... done
Starting the XC term evaluation                    ... done (   0.5 sec)
  promolecular density results
     # of electrons  =    159.981853420
     EX              =   -140.303795975
     EC              =     -5.412952046
     EX+EC           =   -145.716748021
Transforming the Hamiltonian                       ... done (   0.1 sec)
Diagonalizing the Hamiltonian                      ... done (   0.1 sec)
Back transforming the eigenvectors                 ... done (   0.0 sec)
Now organizing SCF variables                       ... done
                      ------------------
                      INITIAL GUESS DONE (   1.8 sec)
                      ------------------
             **** ENERGY FILE WAS UPDATED (data/single_point_P_M06-2x/87021/87021.en.tmp) ****
Finished Guess after   2.0 sec
Maximum memory used throughout the entire GUESS-calculation: 59.2 MB


           ************************************************************
           *        Program running with 6 parallel MPI-processes     *
           *              working on a common directory               *
           ************************************************************

-------------------------------------------------------------------------------------------
                                      ORCA LEAN-SCF
                              memory conserving SCF solver
-------------------------------------------------------------------------------------------

----------------------------------------D-I-I-S--------------------------------------------
Iteration    Energy (Eh)           Delta-E    RMSDP     MaxDP     DIISErr   Damp  Time(sec)
-------------------------------------------------------------------------------------------
               ***  Starting incremental Fock matrix formation  ***
    1    -1224.2981578020869620     0.00e+00  1.24e-03  4.62e-02  2.74e-01  0.700  17.4
    2    -1224.5240581764358012    -2.26e-01  9.95e-04  3.60e-02  1.27e-01  0.700  10.0
                               ***Turning on AO-DIIS***
    3    -1224.6300324596265909    -1.06e-01  6.82e-04  2.75e-02  4.79e-02  0.700   9.9
    4    -1224.6930213355014985    -6.30e-02  1.63e-03  9.15e-02  3.28e-02  0.000   9.8
    5    -1224.8287901927253642    -1.36e-01  1.55e-04  1.56e-02  4.24e-03  0.000   9.2
                              *** Initializing SOSCF ***
---------------------------------------S-O-S-C-F--------------------------------------
Iteration    Energy (Eh)           Delta-E    RMSDP     MaxDP     MaxGrad    Time(sec)
--------------------------------------------------------------------------------------
    6    -1224.8291433039478306    -3.53e-04  5.64e-05  6.34e-03  8.43e-04     8.5
               *** Restarting incremental Fock matrix formation ***
    7    -1224.8292401289920690    -9.68e-05  1.04e-04  4.77e-03  4.48e-04    17.6
    8    -1224.8292504208191076    -1.03e-05  5.60e-05  2.39e-03  3.65e-04    12.5
    9    -1224.8292534166860150    -3.00e-06  4.74e-05  2.24e-03  1.78e-04    12.3
   10    -1224.8292545854189939    -1.17e-06  7.30e-06  3.10e-04  2.42e-05    12.1
   11    -1224.8292547566845769    -1.71e-07  4.99e-06  2.26e-04  2.98e-05     9.4
                 **** Energy Check signals convergence ****

               *****************************************************
               *                     SUCCESS                       *
               *           SCF CONVERGED AFTER  11 CYCLES          *
               *****************************************************

Recomputing exchange energy using gridx3       ... done (   25.310 sec)
Old exchange energy                            :    -77.092733509 Eh
New exchange energy                            :    -77.092738867 Eh
Exchange energy change after final integration :     -0.000005358 Eh
Total energy after final integration           :  -1224.829260115 Eh
             **** ENERGY FILE WAS UPDATED (data/single_point_P_M06-2x/87021/87021.en.tmp) ****

----------------
TOTAL SCF ENERGY
----------------

Total Energy       :      -1224.82926011462905 Eh          -33329.29860 eV

Components:
Nuclear Repulsion  :       1826.35195391163029 Eh           49697.56324 eV
Electronic Energy  :      -3051.18120866831487 Eh          -83026.86169 eV
One Electron Energy:      -5301.10573824282892 Eh         -144250.42069 eV
Two Electron Energy:       2249.92452957451405 Eh           61223.55900 eV

Virial components:
Potential Energy   :      -2443.59910360109689 Eh          -66493.71208 eV
Kinetic Energy     :       1218.76984348646783 Eh           33164.41349 eV
Virial Ratio       :          2.00497174807905

DFT components:
N(Alpha)           :       79.999945319596 electrons
N(Beta)            :       79.999945319596 electrons
N(Total)           :      159.999890639193 electrons
E(XC)              :      -71.577086712655 Eh       

---------------
SCF CONVERGENCE
---------------

  Last Energy change         ...    1.7127e-07  Tolerance :   1.0000e-06
  Last MAX-Density change    ...    2.2581e-04  Tolerance :   1.0000e-05
  Last RMS-Density change    ...    4.9903e-06  Tolerance :   1.0000e-06
  Last DIIS Error            ...    8.4348e-04  Tolerance :   1.0000e-05
  Last Orbital Gradient      ...    2.9847e-05  Tolerance :   5.0000e-05
  Last Orbital Rotation      ...    6.8570e-05  Tolerance :   5.0000e-05


----------------
ORBITAL ENERGIES
----------------

  NO   OCC          E(Eh)            E(eV) 
   0   2.0000     -78.031389     -2123.3420 
   1   2.0000     -19.679437      -535.5047 
   2   2.0000     -19.625151      -534.0275 
   3   2.0000     -10.686747      -290.8012 
   4   2.0000     -10.574190      -287.7383 
   5   2.0000     -10.572131      -287.6823 
   6   2.0000     -10.565252      -287.4951 
   7   2.0000     -10.564283      -287.4688 
   8   2.0000     -10.560315      -287.3608 
   9   2.0000     -10.557598      -287.2868 
  10   2.0000     -10.551162      -287.1117 
  11   2.0000     -10.551039      -287.1084 
  12   2.0000     -10.550617      -287.0969 
  13   2.0000     -10.550045      -287.0813 
  14   2.0000     -10.549594      -287.0690 
  15   2.0000     -10.549270      -287.0602 
  16   2.0000     -10.547965      -287.0247 
  17   2.0000     -10.547703      -287.0176 
  18   2.0000     -10.547168      -287.0030 
  19   2.0000     -10.546682      -286.9898 
  20   2.0000     -10.546499      -286.9848 
  21   2.0000     -10.545992      -286.9710 
  22   2.0000      -6.846698      -186.3081 
  23   2.0000      -4.961272      -135.0031 
  24   2.0000      -4.960820      -134.9908 
  25   2.0000      -4.960542      -134.9832 
  26   2.0000      -1.235825       -33.6285 
  27   2.0000      -1.139775       -31.0148 
  28   2.0000      -0.972189       -26.4546 
  29   2.0000      -0.955802       -26.0087 
  30   2.0000      -0.950468       -25.8636 
  31   2.0000      -0.873427       -23.7672 
  32   2.0000      -0.867300       -23.6004 
  33   2.0000      -0.842538       -22.9266 
  34   2.0000      -0.839606       -22.8468 
  35   2.0000      -0.836346       -22.7581 
  36   2.0000      -0.832166       -22.6444 
  37   2.0000      -0.758136       -20.6299 
  38   2.0000      -0.725707       -19.7475 
  39   2.0000      -0.697719       -18.9859 
  40   2.0000      -0.685856       -18.6631 
  41   2.0000      -0.682540       -18.5729 
  42   2.0000      -0.672819       -18.3083 
  43   2.0000      -0.666758       -18.1434 
  44   2.0000      -0.634147       -17.2560 
  45   2.0000      -0.605870       -16.4866 
  46   2.0000      -0.588390       -16.0109 
  47   2.0000      -0.583890       -15.8885 
  48   2.0000      -0.570027       -15.5112 
  49   2.0000      -0.550783       -14.9876 
  50   2.0000      -0.540548       -14.7091 
  51   2.0000      -0.530503       -14.4357 
  52   2.0000      -0.521821       -14.1995 
  53   2.0000      -0.517827       -14.0908 
  54   2.0000      -0.514798       -14.0084 
  55   2.0000      -0.512683       -13.9508 
  56   2.0000      -0.509142       -13.8545 
  57   2.0000      -0.485536       -13.2121 
  58   2.0000      -0.483651       -13.1608 
  59   2.0000      -0.482252       -13.1227 
  60   2.0000      -0.476278       -12.9602 
  61   2.0000      -0.465683       -12.6719 
  62   2.0000      -0.446941       -12.1619 
  63   2.0000      -0.438108       -11.9215 
  64   2.0000      -0.434248       -11.8165 
  65   2.0000      -0.430469       -11.7137 
  66   2.0000      -0.420388       -11.4393 
  67   2.0000      -0.404173       -10.9981 
  68   2.0000      -0.401623       -10.9287 
  69   2.0000      -0.400478       -10.8976 
  70   2.0000      -0.384402       -10.4601 
  71   2.0000      -0.382493       -10.4082 
  72   2.0000      -0.360345        -9.8055 
  73   2.0000      -0.332684        -9.0528 
  74   2.0000      -0.323713        -8.8087 
  75   2.0000      -0.312620        -8.5068 
  76   2.0000      -0.310473        -8.4484 
  77   2.0000      -0.305245        -8.3061 
  78   2.0000      -0.303316        -8.2536 
  79   2.0000      -0.266097        -7.2409 
  80   0.0000      -0.035294        -0.9604 
  81   0.0000      -0.002599        -0.0707 
  82   0.0000       0.003810         0.1037 
  83   0.0000       0.012651         0.3443 
  84   0.0000       0.017071         0.4645 
  85   0.0000       0.024719         0.6726 
  86   0.0000       0.065499         1.7823 
  87   0.0000       0.073457         1.9989 
  88   0.0000       0.080025         2.1776 
  89   0.0000       0.083172         2.2632 
  90   0.0000       0.086116         2.3433 
*Only the first 10 virtual orbitals were printed.

                    ********************************
                    * MULLIKEN POPULATION ANALYSIS *
                    ********************************

-----------------------
MULLIKEN ATOMIC CHARGES
-----------------------
   0 C :   -0.135773
   1 C :   -0.143663
   2 C :   -0.147062
   3 C :   -0.106671
   4 C :   -0.128699
   5 C :   -0.160977
   6 P :    0.143413
   7 C :   -0.057666
   8 C :   -0.122361
   9 C :   -0.151339
  10 C :   -0.138262
  11 C :   -0.145237
  12 C :   -0.188884
  13 C :   -0.125478
  14 C :   -0.086199
  15 C :   -0.166526
  16 C :   -0.127520
  17 C :   -0.168706
  18 C :   -0.021005
  19 C :    0.401113
  20 O :   -0.348931
  21 O :   -0.426207
  22 H :    0.145573
  23 H :    0.145366
  24 H :    0.156593
  25 H :    0.187679
  26 H :    0.145421
  27 H :    0.152738
  28 H :    0.143677
  29 H :    0.143970
  30 H :    0.144158
  31 H :    0.185180
  32 H :    0.182962
  33 H :    0.151889
  34 H :    0.150611
  35 H :    0.172857
  36 H :    0.343967
Sum of atomic charges:   -0.0000000

--------------------------------
MULLIKEN REDUCED ORBITAL CHARGES
--------------------------------
  0 C s       :     3.223263  s :     3.223263
      pz      :     0.949313  p :     2.845075
      px      :     0.970319
      py      :     0.925442
      dz2     :     0.013102  d :     0.061149
      dxz     :     0.008460
      dyz     :     0.013545
      dx2y2   :     0.009213
      dxy     :     0.016830
      f0      :     0.000962  f :     0.006287
      f+1     :     0.000744
      f-1     :     0.000691
      f+2     :     0.001276
      f-2     :     0.000929
      f+3     :     0.001041
      f-3     :     0.000644

  1 C s       :     3.224704  s :     3.224704
      pz      :     0.921085  p :     2.852017
      px      :     0.922433
      py      :     1.008499
      dz2     :     0.019029  d :     0.060641
      dxz     :     0.006749
      dyz     :     0.010785
      dx2y2   :     0.014448
      dxy     :     0.009630
      f0      :     0.000777  f :     0.006302
      f+1     :     0.001102
      f-1     :     0.000775
      f+2     :     0.001337
      f-2     :     0.000907
      f+3     :     0.000628
      f-3     :     0.000776

  2 C s       :     3.201871  s :     3.201871
      pz      :     1.015375  p :     2.874641
      px      :     0.949448
      py      :     0.909819
      dz2     :     0.009279  d :     0.064033
      dxz     :     0.009100
      dyz     :     0.016667
      dx2y2   :     0.014959
      dxy     :     0.014028
      f0      :     0.000486  f :     0.006516
      f+1     :     0.000981
      f-1     :     0.000882
      f+2     :     0.001236
      f-2     :     0.000783
      f+3     :     0.001305
      f-3     :     0.000843

  3 C s       :     3.243459  s :     3.243459
      pz      :     0.913535  p :     2.778891
      px      :     0.948336
      py      :     0.917020
      dz2     :     0.020502  d :     0.077450
      dxz     :     0.009529
      dyz     :     0.015801
      dx2y2   :     0.013283
      dxy     :     0.018334
      f0      :     0.000935  f :     0.006871
      f+1     :     0.001009
      f-1     :     0.000803
      f+2     :     0.001501
      f-2     :     0.000821
      f+3     :     0.001095
      f-3     :     0.000707

  4 C s       :     3.179414  s :     3.179414
      pz      :     0.905917  p :     2.877671
      px      :     0.926134
      py      :     1.045620
      dz2     :     0.018403  d :     0.065186
      dxz     :     0.009926
      dyz     :     0.011809
      dx2y2   :     0.016561
      dxy     :     0.008488
      f0      :     0.000755  f :     0.006429
      f+1     :     0.001172
      f-1     :     0.000746
      f+2     :     0.001395
      f-2     :     0.000944
      f+3     :     0.000646
      f-3     :     0.000771

  5 C s       :     3.234904  s :     3.234904
      pz      :     0.985633  p :     2.859442
      px      :     0.970668
      py      :     0.903142
      dz2     :     0.007749  d :     0.060381
      dxz     :     0.008259
      dyz     :     0.016309
      dx2y2   :     0.013924
      dxy     :     0.014141
      f0      :     0.000452  f :     0.006250
      f+1     :     0.000939
      f-1     :     0.000832
      f+2     :     0.001208
      f-2     :     0.000815
      f+3     :     0.001222
      f-3     :     0.000784

  6 P s       :     5.770220  s :     5.770220
      pz      :     3.270190  p :     8.793695
      px      :     2.730127
      py      :     2.793378
      dz2     :     0.028490  d :     0.267323
      dxz     :     0.066421
      dyz     :     0.045488
      dx2y2   :     0.066770
      dxy     :     0.060154
      f0      :     0.002445  f :     0.025349
      f+1     :     0.003413
      f-1     :     0.002571
      f+2     :     0.004890
      f-2     :     0.004809
      f+3     :     0.003309
      f-3     :     0.003914

  7 C s       :     3.231702  s :     3.231702
      pz      :     0.872101  p :     2.742622
      px      :     0.970242
      py      :     0.900279
      dz2     :     0.021573  d :     0.076187
      dxz     :     0.009687
      dyz     :     0.015261
      dx2y2   :     0.017658
      dxy     :     0.012009
      f0      :     0.000983  f :     0.007154
      f+1     :     0.001157
      f-1     :     0.000833
      f+2     :     0.001501
      f-2     :     0.001209
      f+3     :     0.000780
      f-3     :     0.000692

  8 C s       :     3.189842  s :     3.189842
      pz      :     0.972449  p :     2.861794
      px      :     0.942305
      py      :     0.947040
      dz2     :     0.008816  d :     0.064138
      dxz     :     0.008725
      dyz     :     0.017915
      dx2y2   :     0.016089
      dxy     :     0.012592
      f0      :     0.000503  f :     0.006587
      f+1     :     0.001020
      f-1     :     0.000828
      f+2     :     0.001082
      f-2     :     0.000988
      f+3     :     0.001077
      f-3     :     0.001090

  9 C s       :     3.230340  s :     3.230340
      pz      :     0.946929  p :     2.854131
      px      :     0.988987
      py      :     0.918215
      dz2     :     0.013617  d :     0.060550
      dxz     :     0.010507
      dyz     :     0.011042
      dx2y2   :     0.009882
      dxy     :     0.015502
      f0      :     0.000997  f :     0.006318
      f+1     :     0.000681
      f-1     :     0.000764
      f+2     :     0.001100
      f-2     :     0.001072
      f+3     :     0.000674
      f-3     :     0.001029

 10 C s       :     3.223037  s :     3.223037
      pz      :     0.915291  p :     2.847995
      px      :     0.937320
      py      :     0.995384
      dz2     :     0.018784  d :     0.060917
      dxz     :     0.008399
      dyz     :     0.011367
      dx2y2   :     0.012116
      dxy     :     0.010250
      f0      :     0.000857  f :     0.006313
      f+1     :     0.001098
      f-1     :     0.000760
      f+2     :     0.001267
      f-2     :     0.001001
      f+3     :     0.000805
      f-3     :     0.000524

 11 C s       :     3.223004  s :     3.223004
      pz      :     0.994620  p :     2.855291
      px      :     0.933774
      py      :     0.926897
      dz2     :     0.009050  d :     0.060643
      dxz     :     0.008055
      dyz     :     0.015705
      dx2y2   :     0.017195
      dxy     :     0.010638
      f0      :     0.000511  f :     0.006298
      f+1     :     0.001014
      f-1     :     0.000767
      f+2     :     0.001053
      f-2     :     0.000971
      f+3     :     0.000960
      f-3     :     0.001022

 12 C s       :     3.217223  s :     3.217223
      pz      :     0.900130  p :     2.899047
      px      :     1.026169
      py      :     0.972747
      dz2     :     0.012374  d :     0.066086
      dxz     :     0.011321
      dyz     :     0.015208
      dx2y2   :     0.011418
      dxy     :     0.015764
      f0      :     0.000992  f :     0.006529
      f+1     :     0.000619
      f-1     :     0.000784
      f+2     :     0.001249
      f-2     :     0.001103
      f+3     :     0.000716
      f-3     :     0.001065

 13 C s       :     3.290370  s :     3.290370
      pz      :     0.896448  p :     2.743586
      px      :     0.917668
      py      :     0.929471
      dz2     :     0.021234  d :     0.084632
      dxz     :     0.022702
      dyz     :     0.007104
      dx2y2   :     0.016507
      dxy     :     0.017086
      f0      :     0.000998  f :     0.006890
      f+1     :     0.000975
      f-1     :     0.000861
      f+2     :     0.000995
      f-2     :     0.001219
      f+3     :     0.001119
      f-3     :     0.000723

 14 C s       :     3.175728  s :     3.175728
      pz      :     0.901318  p :     2.841803
      px      :     1.006896
      py      :     0.933589
      dz2     :     0.017015  d :     0.062119
      dxz     :     0.012112
      dyz     :     0.009928
      dx2y2   :     0.009377
      dxy     :     0.013687
      f0      :     0.000925  f :     0.006549
      f+1     :     0.001145
      f-1     :     0.000753
      f+2     :     0.001011
      f-2     :     0.001384
      f+3     :     0.000495
      f-3     :     0.000837

 15 C s       :     3.250659  s :     3.250659
      pz      :     0.997380  p :     2.847100
      px      :     0.889942
      py      :     0.959778
      dz2     :     0.009185  d :     0.062536
      dxz     :     0.015732
      dyz     :     0.008618
      dx2y2   :     0.011210
      dxy     :     0.017791
      f0      :     0.000363  f :     0.006231
      f+1     :     0.001172
      f-1     :     0.000752
      f+2     :     0.000945
      f-2     :     0.000997
      f+3     :     0.001149
      f-3     :     0.000852

 16 C s       :     3.218806  s :     3.218806
      pz      :     0.942134  p :     2.843535
      px      :     0.962849
      py      :     0.938552
      dz2     :     0.013903  d :     0.058880
      dxz     :     0.014642
      dyz     :     0.007008
      dx2y2   :     0.014174
      dxy     :     0.009154
      f0      :     0.001022  f :     0.006299
      f+1     :     0.000684
      f-1     :     0.000824
      f+2     :     0.001087
      f-2     :     0.001091
      f+3     :     0.001057
      f-3     :     0.000534

 17 C s       :     3.242572  s :     3.242572
      pz      :     0.913275  p :     2.855557
      px      :     0.994847
      py      :     0.947436
      dz2     :     0.018386  d :     0.064112
      dxz     :     0.013861
      dyz     :     0.008601
      dx2y2   :     0.010057
      dxy     :     0.013207
      f0      :     0.000973  f :     0.006465
      f+1     :     0.001134
      f-1     :     0.000749
      f+2     :     0.000998
      f-2     :     0.001304
      f+3     :     0.000479
      f-3     :     0.000827

 18 C s       :     3.166282  s :     3.166282
      pz      :     0.879429  p :     2.771240
      px      :     0.924379
      py      :     0.967432
      dz2     :     0.016682  d :     0.074932
      dxz     :     0.011463
      dyz     :     0.013655
      dx2y2   :     0.016266
      dxy     :     0.016866
      f0      :     0.000742  f :     0.008552
      f+1     :     0.001514
      f-1     :     0.001214
      f+2     :     0.001246
      f-2     :     0.001596
      f+3     :     0.001341
      f-3     :     0.000899

 19 C s       :     3.001111  s :     3.001111
      pz      :     0.847177  p :     2.288904
      px      :     0.649546
      py      :     0.792181
      dz2     :     0.068703  d :     0.286673
      dxz     :     0.056013
      dyz     :     0.032186
      dx2y2   :     0.065157
      dxy     :     0.064614
      f0      :     0.002181  f :     0.022198
      f+1     :     0.004959
      f-1     :     0.001287
      f+2     :     0.002879
      f-2     :     0.004166
      f+3     :     0.004241
      f-3     :     0.002485

 20 O s       :     3.849855  s :     3.849855
      pz      :     1.505897  p :     4.466488
      px      :     1.459054
      py      :     1.501538
      dz2     :     0.006119  d :     0.030654
      dxz     :     0.008634
      dyz     :     0.003174
      dx2y2   :     0.005430
      dxy     :     0.007299
      f0      :     0.000178  f :     0.001933
      f+1     :     0.000509
      f-1     :     0.000029
      f+2     :     0.000388
      f-2     :     0.000331
      f+3     :     0.000235
      f-3     :     0.000264

 21 O s       :     3.803749  s :     3.803749
      pz      :     1.506709  p :     4.591229
      px      :     1.475203
      py      :     1.609317
      dz2     :     0.005423  d :     0.029555
      dxz     :     0.005424
      dyz     :     0.004734
      dx2y2   :     0.007654
      dxy     :     0.006320
      f0      :     0.000106  f :     0.001674
      f+1     :     0.000110
      f-1     :     0.000509
      f+2     :     0.000267
      f-2     :     0.000163
      f+3     :     0.000230
      f-3     :     0.000289

 22 H s       :     0.834798  s :     0.834798
      pz      :     0.005992  p :     0.019629
      px      :     0.007537
      py      :     0.006100

 23 H s       :     0.834965  s :     0.834965
      pz      :     0.003668  p :     0.019669
      px      :     0.003435
      py      :     0.012565

 24 H s       :     0.823493  s :     0.823493
      pz      :     0.009306  p :     0.019913
      px      :     0.006249
      py      :     0.004358

 25 H s       :     0.791522  s :     0.791522
      pz      :     0.003569  p :     0.020799
      px      :     0.003508
      py      :     0.013722

 26 H s       :     0.834935  s :     0.834935
      pz      :     0.008886  p :     0.019644
      px      :     0.006318
      py      :     0.004440

 27 H s       :     0.827283  s :     0.827283
      pz      :     0.009680  p :     0.019980
      px      :     0.004601
      py      :     0.005699

 28 H s       :     0.836674  s :     0.836674
      pz      :     0.006680  p :     0.019649
      px      :     0.008315
      py      :     0.004654

 29 H s       :     0.836427  s :     0.836427
      pz      :     0.003457  p :     0.019603
      px      :     0.004367
      py      :     0.011778

 30 H s       :     0.836241  s :     0.836241
      pz      :     0.009360  p :     0.019601
      px      :     0.004723
      py      :     0.005518

 31 H s       :     0.794615  s :     0.794615
      pz      :     0.006634  p :     0.020205
      px      :     0.008560
      py      :     0.005011

 32 H s       :     0.795662  s :     0.795662
      pz      :     0.003992  p :     0.021375
      px      :     0.011814
      py      :     0.005569

 33 H s       :     0.828433  s :     0.828433
      pz      :     0.010040  p :     0.019677
      px      :     0.002693
      py      :     0.006943

 34 H s       :     0.829578  s :     0.829578
      pz      :     0.005968  p :     0.019811
      px      :     0.010242
      py      :     0.003601

 35 H s       :     0.806677  s :     0.806677
      pz      :     0.004252  p :     0.020466
      px      :     0.010521
      py      :     0.005693

 36 H s       :     0.612855  s :     0.612855
      pz      :     0.018320  p :     0.043177
      px      :     0.009295
      py      :     0.015562



                     *******************************
                     * LOEWDIN POPULATION ANALYSIS *
                     *******************************

----------------------
LOEWDIN ATOMIC CHARGES
----------------------
   0 C :   -0.141956
   1 C :   -0.146173
   2 C :   -0.148955
   3 C :   -0.278608
   4 C :   -0.135807
   5 C :   -0.143342
   6 P :    0.715578
   7 C :   -0.267364
   8 C :   -0.134614
   9 C :   -0.141430
  10 C :   -0.143220
  11 C :   -0.145771
  12 C :   -0.144596
  13 C :   -0.208156
  14 C :   -0.130716
  15 C :   -0.123021
  16 C :   -0.138511
  17 C :   -0.087934
  18 C :   -0.130196
  19 C :   -0.433124
  20 O :    0.101673
  21 O :    0.076313
  22 H :    0.146796
  23 H :    0.147402
  24 H :    0.149996
  25 H :    0.158050
  26 H :    0.147597
  27 H :    0.151266
  28 H :    0.147433
  29 H :    0.146338
  30 H :    0.146892
  31 H :    0.155352
  32 H :    0.162820
  33 H :    0.150960
  34 H :    0.149662
  35 H :    0.159576
  36 H :    0.209788

-------------------------------
LOEWDIN REDUCED ORBITAL CHARGES
-------------------------------
  0 C s       :     2.779080  s :     2.779080
      pz      :     0.971319  p :     2.947564
      px      :     0.939648
      py      :     1.036598
      dz2     :     0.059250  d :     0.374781
      dxz     :     0.047510
      dyz     :     0.108699
      dx2y2   :     0.065103
      dxy     :     0.094219
      f0      :     0.006178  f :     0.040531
      f+1     :     0.004532
      f-1     :     0.005085
      f+2     :     0.007877
      f-2     :     0.004510
      f+3     :     0.007398
      f-3     :     0.004951

  1 C s       :     2.778429  s :     2.778429
      pz      :     0.991615  p :     2.951588
      px      :     0.970658
      py      :     0.989315
      dz2     :     0.088321  d :     0.375615
      dxz     :     0.070158
      dyz     :     0.069412
      dx2y2   :     0.095976
      dxy     :     0.051749
      f0      :     0.004518  f :     0.040541
      f+1     :     0.006109
      f-1     :     0.006150
      f+2     :     0.007624
      f-2     :     0.006103
      f+3     :     0.005395
      f-3     :     0.004643

  2 C s       :     2.778674  s :     2.778674
      pz      :     0.957637  p :     2.945402
      px      :     0.944787
      py      :     1.042978
      dz2     :     0.053367  d :     0.384292
      dxz     :     0.048259
      dyz     :     0.098691
      dx2y2   :     0.083620
      dxy     :     0.100354
      f0      :     0.003425  f :     0.040588
      f+1     :     0.004462
      f-1     :     0.006622
      f+2     :     0.007401
      f-2     :     0.004634
      f+3     :     0.009059
      f-3     :     0.004985

  3 C s       :     2.782280  s :     2.782280
      pz      :     0.998804  p :     2.998000
      px      :     0.957520
      py      :     1.041676
      dz2     :     0.083965  d :     0.453691
      dxz     :     0.071467
      dyz     :     0.117618
      dx2y2   :     0.081978
      dxy     :     0.098663
      f0      :     0.006070  f :     0.044638
      f+1     :     0.005812
      f-1     :     0.005984
      f+2     :     0.009084
      f-2     :     0.004605
      f+3     :     0.007866
      f-3     :     0.005219

  4 C s       :     2.777144  s :     2.777144
      pz      :     0.976657  p :     2.936801
      px      :     0.964322
      py      :     0.995822
      dz2     :     0.086217  d :     0.381327
      dxz     :     0.073417
      dyz     :     0.070511
      dx2y2   :     0.098532
      dxy     :     0.052650
      f0      :     0.004493  f :     0.040536
      f+1     :     0.006126
      f-1     :     0.006013
      f+2     :     0.007739
      f-2     :     0.005970
      f+3     :     0.005520
      f-3     :     0.004673

  5 C s       :     2.778656  s :     2.778656
      pz      :     0.950928  p :     2.948468
      px      :     0.950356
      py      :     1.047184
      dz2     :     0.050486  d :     0.375760
      dxz     :     0.046877
      dyz     :     0.096132
      dx2y2   :     0.085484
      dxy     :     0.096781
      f0      :     0.003454  f :     0.040459
      f+1     :     0.004283
      f-1     :     0.006445
      f+2     :     0.007425
      f-2     :     0.004652
      f+3     :     0.009166
      f-3     :     0.005033

  6 P s       :     4.939597  s :     4.939597
      pz      :     3.238585  p :     8.742338
      px      :     2.721991
      py      :     2.781762
      dz2     :     0.066006  d :     0.508983
      dxz     :     0.114811
      dyz     :     0.084627
      dx2y2   :     0.124923
      dxy     :     0.118616
      f0      :     0.007529  f :     0.093503
      f+1     :     0.012950
      f-1     :     0.007753
      f+2     :     0.019380
      f-2     :     0.016823
      f+3     :     0.014943
      f-3     :     0.014127

  7 C s       :     2.777741  s :     2.777741
      pz      :     1.010639  p :     2.987323
      px      :     0.959271
      py      :     1.017413
      dz2     :     0.100941  d :     0.456914
      dxz     :     0.082141
      dyz     :     0.107492
      dx2y2   :     0.092368
      dxy     :     0.073973
      f0      :     0.005884  f :     0.045385
      f+1     :     0.007327
      f-1     :     0.006391
      f+2     :     0.009468
      f-2     :     0.006205
      f+3     :     0.005406
      f-3     :     0.004703

  8 C s       :     2.776403  s :     2.776403
      pz      :     0.956473  p :     2.935794
      px      :     0.957577
      py      :     1.021744
      dz2     :     0.059887  d :     0.381639
      dxz     :     0.048579
      dyz     :     0.099385
      dx2y2   :     0.080531
      dxy     :     0.093256
      f0      :     0.003984  f :     0.040778
      f+1     :     0.005731
      f-1     :     0.005406
      f+2     :     0.007474
      f-2     :     0.004903
      f+3     :     0.007375
      f-3     :     0.005905

  9 C s       :     2.778036  s :     2.778036
      pz      :     0.979533  p :     2.947383
      px      :     0.937956
      py      :     1.029895
      dz2     :     0.060758  d :     0.375422
      dxz     :     0.060616
      dyz     :     0.105158
      dx2y2   :     0.070729
      dxy     :     0.078161
      f0      :     0.006646  f :     0.040589
      f+1     :     0.004711
      f-1     :     0.005342
      f+2     :     0.007422
      f-2     :     0.004667
      f+3     :     0.005250
      f-3     :     0.006551

 10 C s       :     2.778593  s :     2.778593
      pz      :     1.003126  p :     2.949494
      px      :     0.967645
      py      :     0.978724
      dz2     :     0.096218  d :     0.374560
      dxz     :     0.075675
      dyz     :     0.067662
      dx2y2   :     0.074791
      dxy     :     0.060213
      f0      :     0.004869  f :     0.040572
      f+1     :     0.007068
      f-1     :     0.005948
      f+2     :     0.008138
      f-2     :     0.005665
      f+3     :     0.005121
      f-3     :     0.003764

 11 C s       :     2.778332  s :     2.778332
      pz      :     0.960396  p :     2.949845
      px      :     0.966229
      py      :     1.023220
      dz2     :     0.057769  d :     0.377018
      dxz     :     0.048477
      dyz     :     0.097889
      dx2y2   :     0.081195
      dxy     :     0.091687
      f0      :     0.003987  f :     0.040576
      f+1     :     0.005799
      f-1     :     0.005278
      f+2     :     0.007388
      f-2     :     0.004822
      f+3     :     0.007440
      f-3     :     0.005862

 12 C s       :     2.776357  s :     2.776357
      pz      :     0.974598  p :     2.945231
      px      :     0.941161
      py      :     1.029471
      dz2     :     0.061266  d :     0.382405
      dxz     :     0.061080
      dyz     :     0.107819
      dx2y2   :     0.073730
      dxy     :     0.078510
      f0      :     0.006650  f :     0.040602
      f+1     :     0.004620
      f-1     :     0.005409
      f+2     :     0.007404
      f-2     :     0.004625
      f+3     :     0.005275
      f-3     :     0.006619

 13 C s       :     2.780015  s :     2.780015
      pz      :     0.998636  p :     2.942442
      px      :     1.024300
      py      :     0.919506
      dz2     :     0.089896  d :     0.442124
      dxz     :     0.133307
      dyz     :     0.058559
      dx2y2   :     0.086209
      dxy     :     0.074153
      f0      :     0.006054  f :     0.043576
      f+1     :     0.008638
      f-1     :     0.004989
      f+2     :     0.004520
      f-2     :     0.007592
      f+3     :     0.006885
      f-3     :     0.004897

 14 C s       :     2.774238  s :     2.774238
      pz      :     0.989476  p :     2.938595
      px      :     1.011894
      py      :     0.937224
      dz2     :     0.086785  d :     0.377571
      dxz     :     0.102049
      dyz     :     0.056271
      dx2y2   :     0.055376
      dxy     :     0.077089
      f0      :     0.005002  f :     0.040313
      f+1     :     0.008474
      f-1     :     0.004843
      f+2     :     0.005241
      f-2     :     0.007861
      f+3     :     0.004277
      f-3     :     0.004615

 15 C s       :     2.779269  s :     2.779269
      pz      :     0.953342  p :     2.924168
      px      :     1.059526
      py      :     0.911300
      dz2     :     0.062839  d :     0.378849
      dxz     :     0.088781
      dyz     :     0.052843
      dx2y2   :     0.091380
      dxy     :     0.083007
      f0      :     0.002978  f :     0.040734
      f+1     :     0.009600
      f-1     :     0.002728
      f+2     :     0.004666
      f-2     :     0.007516
      f+3     :     0.007923
      f-3     :     0.005323

 16 C s       :     2.776144  s :     2.776144
      pz      :     0.989918  p :     2.950506
      px      :     1.007058
      py      :     0.953530
      dz2     :     0.065633  d :     0.371061
      dxz     :     0.112159
      dyz     :     0.054037
      dx2y2   :     0.077049
      dxy     :     0.062183
      f0      :     0.006219  f :     0.040800
      f+1     :     0.006348
      f-1     :     0.005269
      f+2     :     0.004398
      f-2     :     0.007571
      f+3     :     0.006699
      f-3     :     0.004296

 17 C s       :     2.770573  s :     2.770573
      pz      :     0.986617  p :     2.903200
      px      :     0.995961
      py      :     0.920622
      dz2     :     0.090546  d :     0.373637
      dxz     :     0.096462
      dyz     :     0.056739
      dx2y2   :     0.053302
      dxy     :     0.076588
      f0      :     0.005226  f :     0.040524
      f+1     :     0.008438
      f-1     :     0.004807
      f+2     :     0.005267
      f-2     :     0.007918
      f+3     :     0.004092
      f-3     :     0.004776

 18 C s       :     2.717077  s :     2.717077
      pz      :     0.939874  p :     2.886859
      px      :     1.028900
      py      :     0.918085
      dz2     :     0.089274  d :     0.474803
      dxz     :     0.112861
      dyz     :     0.075427
      dx2y2   :     0.104363
      dxy     :     0.092878
      f0      :     0.005364  f :     0.051457
      f+1     :     0.011284
      f-1     :     0.005245
      f+2     :     0.005919
      f-2     :     0.009668
      f+3     :     0.008674
      f-3     :     0.005304

 19 C s       :     2.753644  s :     2.753644
      pz      :     0.911655  p :     2.606777
      px      :     0.889695
      py      :     0.805428
      dz2     :     0.192479  d :     0.924938
      dxz     :     0.214424
      dyz     :     0.101772
      dx2y2   :     0.216024
      dxy     :     0.200239
      f0      :     0.015250  f :     0.147766
      f+1     :     0.035233
      f-1     :     0.006946
      f+2     :     0.017223
      f-2     :     0.027104
      f+3     :     0.029035
      f-3     :     0.016975

 20 O s       :     3.407434  s :     3.407434
      pz      :     1.485077  p :     4.418963
      px      :     1.516091
      py      :     1.417794
      dz2     :     0.010480  d :     0.066174
      dxz     :     0.022321
      dyz     :     0.006293
      dx2y2   :     0.014595
      dxy     :     0.012486
      f0      :     0.000592  f :     0.005756
      f+1     :     0.001298
      f-1     :     0.000120
      f+2     :     0.001334
      f-2     :     0.000936
      f+3     :     0.000825
      f-3     :     0.000650

 21 O s       :     3.343671  s :     3.343671
      pz      :     1.446344  p :     4.509806
      px      :     1.533095
      py      :     1.530367
      dz2     :     0.011755  d :     0.065504
      dxz     :     0.011466
      dyz     :     0.011814
      dx2y2   :     0.017289
      dxy     :     0.013179
      f0      :     0.000408  f :     0.004706
      f+1     :     0.000653
      f-1     :     0.000791
      f+2     :     0.000644
      f-2     :     0.000501
      f+3     :     0.000854
      f-3     :     0.000856

 22 H s       :     0.797422  s :     0.797422
      pz      :     0.017304  p :     0.055782
      px      :     0.020734
      py      :     0.017744

 23 H s       :     0.796807  s :     0.796807
      pz      :     0.011995  p :     0.055791
      px      :     0.011273
      py      :     0.032522

 24 H s       :     0.793719  s :     0.793719
      pz      :     0.024759  p :     0.056285
      px      :     0.018061
      py      :     0.013465

 25 H s       :     0.783260  s :     0.783260
      pz      :     0.011648  p :     0.058690
      px      :     0.011589
      py      :     0.035453

 26 H s       :     0.796655  s :     0.796655
      pz      :     0.023924  p :     0.055748
      px      :     0.017883
      py      :     0.013941

 27 H s       :     0.792532  s :     0.792532
      pz      :     0.025682  p :     0.056202
      px      :     0.013934
      py      :     0.016585

 28 H s       :     0.796854  s :     0.796854
      pz      :     0.018931  p :     0.055713
      px      :     0.022508
      py      :     0.014274

 29 H s       :     0.797889  s :     0.797889
      pz      :     0.011513  p :     0.055774
      px      :     0.013510
      py      :     0.030750

 30 H s       :     0.797397  s :     0.797397
      pz      :     0.025053  p :     0.055711
      px      :     0.014361
      py      :     0.016296

 31 H s       :     0.786818  s :     0.786818
      pz      :     0.019081  p :     0.057830
      px      :     0.023564
      py      :     0.015185

 32 H s       :     0.777073  s :     0.777073
      pz      :     0.012537  p :     0.060107
      px      :     0.031361
      py      :     0.016209

 33 H s       :     0.793391  s :     0.793391
      pz      :     0.026532  p :     0.055649
      px      :     0.009930
      py      :     0.019188

 34 H s       :     0.794278  s :     0.794278
      pz      :     0.017155  p :     0.056060
      px      :     0.027268
      py      :     0.011636

 35 H s       :     0.782487  s :     0.782487
      pz      :     0.013292  p :     0.057937
      px      :     0.028102
      py      :     0.016543

 36 H s       :     0.646913  s :     0.646913
      pz      :     0.065950  p :     0.143299
      px      :     0.029103
      py      :     0.048246



                      *****************************
                      * MAYER POPULATION ANALYSIS *
                      *****************************

  NA   - Mulliken gross atomic population
  ZA   - Total nuclear charge
  QA   - Mulliken gross atomic charge
  VA   - Mayer's total valence
  BVA  - Mayer's bonded valence
  FA   - Mayer's free valence

  ATOM       NA         ZA         QA         VA         BVA        FA
  0 C      6.1358     6.0000    -0.1358     3.9182     3.9182     0.0000
  1 C      6.1437     6.0000    -0.1437     3.9394     3.9394     0.0000
  2 C      6.1471     6.0000    -0.1471     3.9202     3.9202     0.0000
  3 C      6.1067     6.0000    -0.1067     3.8128     3.8128    -0.0000
  4 C      6.1287     6.0000    -0.1287     3.8486     3.8486    -0.0000
  5 C      6.1610     6.0000    -0.1610     3.9810     3.9810     0.0000
  6 P     14.8566    15.0000     0.1434     3.1007     3.1007    -0.0000
  7 C      6.0577     6.0000    -0.0577     3.8015     3.8015     0.0000
  8 C      6.1224     6.0000    -0.1224     3.9674     3.9674     0.0000
  9 C      6.1513     6.0000    -0.1513     3.9569     3.9569     0.0000
 10 C      6.1383     6.0000    -0.1383     3.9240     3.9240    -0.0000
 11 C      6.1452     6.0000    -0.1452     3.9733     3.9733    -0.0000
 12 C      6.1889     6.0000    -0.1889     3.8253     3.8253     0.0000
 13 C      6.1255     6.0000    -0.1255     3.8472     3.8472    -0.0000
 14 C      6.0862     6.0000    -0.0862     3.7995     3.7995    -0.0000
 15 C      6.1665     6.0000    -0.1665     3.9929     3.9929    -0.0000
 16 C      6.1275     6.0000    -0.1275     3.8930     3.8930    -0.0000
 17 C      6.1687     6.0000    -0.1687     3.9764     3.9764    -0.0000
 18 C      6.0210     6.0000    -0.0210     3.8180     3.8180    -0.0000
 19 C      5.5989     6.0000     0.4011     4.1297     4.1297    -0.0000
 20 O      8.3489     8.0000    -0.3489     2.0809     2.0809    -0.0000
 21 O      8.4262     8.0000    -0.4262     2.0442     2.0442    -0.0000
 22 H      0.8544     1.0000     0.1456     0.9641     0.9641     0.0000
 23 H      0.8546     1.0000     0.1454     0.9652     0.9652     0.0000
 24 H      0.8434     1.0000     0.1566     0.9703     0.9703     0.0000
 25 H      0.8123     1.0000     0.1877     0.9425     0.9425    -0.0000
 26 H      0.8546     1.0000     0.1454     0.9660     0.9660    -0.0000
 27 H      0.8473     1.0000     0.1527     0.9676     0.9676     0.0000
 28 H      0.8563     1.0000     0.1437     0.9653     0.9653     0.0000
 29 H      0.8560     1.0000     0.1440     0.9641     0.9641    -0.0000
 30 H      0.8558     1.0000     0.1442     0.9652     0.9652    -0.0000
 31 H      0.8148     1.0000     0.1852     0.9458     0.9458     0.0000
 32 H      0.8170     1.0000     0.1830     0.9534     0.9534    -0.0000
 33 H      0.8481     1.0000     0.1519     0.9649     0.9649    -0.0000
 34 H      0.8494     1.0000     0.1506     0.9659     0.9659    -0.0000
 35 H      0.8271     1.0000     0.1729     0.9698     0.9698     0.0000
 36 H      0.6560     1.0000     0.3440     0.9144     0.9144    -0.0000

  Mayer bond orders larger than 0.100000
B(  0-C ,  1-C ) :   1.4306 B(  0-C ,  5-C ) :   1.4332 B(  0-C , 22-H ) :   0.9476 
B(  1-C ,  2-C ) :   1.4503 B(  1-C , 23-H ) :   0.9484 B(  2-C ,  3-C ) :   1.3976 
B(  2-C , 24-H ) :   0.9361 B(  3-C ,  4-C ) :   1.3563 B(  3-C ,  6-P ) :   0.8953 
B(  4-C ,  5-C ) :   1.4659 B(  4-C , 25-H ) :   0.9205 B(  5-C , 26-H ) :   0.9449 
B(  6-P ,  7-C ) :   0.9251 B(  6-P , 13-C ) :   0.9911 B(  7-C ,  8-C ) :   1.4338 
B(  7-C , 12-C ) :   1.3062 B(  8-C ,  9-C ) :   1.4577 B(  8-C , 27-H ) :   0.9280 
B(  9-C , 10-C ) :   1.4317 B(  9-C , 28-H ) :   0.9476 B( 10-C , 11-C ) :   1.4389 
B( 10-C , 29-H ) :   0.9470 B( 11-C , 12-C ) :   1.4624 B( 11-C , 30-H ) :   0.9447 
B( 12-C , 31-H ) :   0.9372 B( 13-C , 14-C ) :   1.3523 B( 13-C , 18-C ) :   1.3237 
B( 14-C , 15-C ) :   1.4545 B( 14-C , 32-H ) :   0.9268 B( 15-C , 16-C ) :   1.4214 
B( 15-C , 33-H ) :   0.9417 B( 16-C , 17-C ) :   1.4472 B( 16-C , 34-H ) :   0.9489 
B( 17-C , 18-C ) :   1.4217 B( 17-C , 35-H ) :   0.9190 B( 18-C , 19-C ) :   1.0146 
B( 19-C , 20-O ) :   1.9276 B( 19-C , 21-O ) :   1.1899 B( 21-O , 36-H ) :   0.8560 


-------
TIMINGS
-------

Total SCF time: 0 days 0 hours 2 min 34 sec 

Total time                  ....     154.966 sec
Sum of individual times     ....     155.022 sec  (100.0%)

SCF preparation             ....       0.337 sec  (  0.2%)
Fock matrix formation       ....     149.836 sec  ( 96.7%)
  Startup                   ....       0.170 sec  (  0.1% of F)
  Split-RI-J                ....      11.009 sec  (  7.3% of F)
  Chain of spheres X        ....     106.983 sec  ( 71.4% of F)
  XC integration            ....      31.247 sec  ( 20.9% of F)
    Basis function eval.    ....       4.715 sec  ( 15.1% of XC)
    Density eval.           ....      13.373 sec  ( 42.8% of XC)
    XC-Functional eval.     ....       0.523 sec  (  1.7% of XC)
    XC-Potential eval.      ....      11.317 sec  ( 36.2% of XC)
Diagonalization             ....       0.000 sec  (  0.0%)
Density matrix formation    ....       0.462 sec  (  0.3%)
Total Energy calculation    ....       0.147 sec  (  0.1%)
Population analysis         ....       0.224 sec  (  0.1%)
Orbital Transformation      ....       0.549 sec  (  0.4%)
Orbital Orthonormalization  ....       0.000 sec  (  0.0%)
DIIS solution               ....       2.253 sec  (  1.5%)
SOSCF solution              ....       1.214 sec  (  0.8%)
Finished LeanSCF after 155.0 sec

Maximum memory used throughout the entire LEANSCF-calculation: 114.1 MB


-------------------------------------------------------------------------------
                          DFT DISPERSION CORRECTION                            
                                                                               
                              DFTD3 V3.1  Rev 1                                
                              USING zero damping                               
-------------------------------------------------------------------------------
The M062X functional is recognized
Active option DFTDOPT                   ...         3   

molecular C6(AA) [au] = 19735.758387 


            DFT-D V3
 parameters
 s6 scaling factor         :     1.0000 
 rs6 scaling factor        :     1.6190 
 s8 scaling factor         :     0.0000 
 rs8 scaling factor        :     1.0000 
 Damping factor alpha6     :    14.0000 
 Damping factor alpha8     :    16.0000 
 ad hoc parameters k1-k3   :    16.0000     1.3333    -4.0000 

 Edisp/kcal,au: -1.612868786666  -0.002570269743 
 E6   /kcal   :  -1.612868787 
 E8   /kcal   :  -0.000000000 
 % E8         :   0.000000000 

-------------------------   ----------------
Dispersion correction           -0.002570270
-------------------------   ----------------


-------------------------   --------------------
FINAL SINGLE POINT ENERGY     -1224.831830384372
-------------------------   --------------------



           ************************************************************
           *        Program running with 6 parallel MPI-processes     *
           *              working on a common directory               *
           ************************************************************

------------------------------------------------------------------------------
                              ORCA PROPERTY CALCULATIONS
------------------------------------------------------------------------------

GBWName                                 ... data/single_point_P_M06-2x/87021/87021.gbw
Number of atoms                         ...     37
Number of basis functions               ...    778
Max core memory                         ...   1024 MB

Electric properties:
Dipole moment                           ... YES
Quadrupole moment                       ...  NO
Static polarizability (Dipole/Dipole)   ...  NO
Static polarizability (Dipole/Quad.)    ...  NO
Static polarizability (Quad./Quad.)     ...  NO
Static polarizability (Velocity)        ...  NO

Atomic electric properties:
Dipole moment                           ...  NO
Quadrupole moment                       ...  NO
Static polarizability                   ...  NO

Choice of electric origin               ... Center of mass
Position of electric origin             ...     0.334352     0.032432     0.557604

General magnetic properties:
Magnetizability                         ...  NO

EPR properties:
g-Tensor (aka g-matrix)                 ...  NO
Zero-Field splitting spin-orbit         ...  NO
Zero-field splitting spin-spin          ...  NO
Hyperfine couplings                     ...  NO (   0 nuclei)
Quadrupole couplings                    ...  NO (   0 nuclei)
Contact density                         ...  NO (   0 nuclei)

NMR properties:
Chemical shifts                         ...  NO (   0 nuclei)
Spin-rotation constants                 ...  NO (   0 nuclei)
Spin-spin couplings                     ...  NO (   0 nuclei,    0 pairs)

Choice of magnetic origin               ... GIAO
Position of magnetic origin             ...     0.000000     0.000000     0.000000

Properties with geometric perturbations:
SCF Hessian                             ...  NO
IR spectrum                             ...  NO
VCD spectrum                            ...  NO
X-ray spectroscopy properties:
SCF XES/XAS/RIXS spectra                ...  NO


-------------
DIPOLE MOMENT
-------------

Method             : SCF
Type of density    : Electron Density
Multiplicity       :   1
Irrep              :   0
Energy             : -1224.8292601146290508 Eh
Relativity type    : 
Basis              : AO
                                X                 Y                 Z
Electronic contribution:      5.511659211       0.098697336       8.267254073
Nuclear contribution   :     -5.103465321      -0.115396894      -9.066650786
                        -----------------------------------------
Total Dipole Moment    :      0.408193890      -0.016699558      -0.799396714
                        -----------------------------------------
Magnitude (a.u.)       :      0.897739513
Magnitude (Debye)      :      2.281872498



--------------------
Rotational spectrum 
--------------------
 
Rotational constants in cm-1:             0.010704             0.008303             0.005736 
Rotational constants in MHz :           320.886549           248.928377           171.970830 

Dipole components along the rotational axes: 
x,y,z [a.u.] :     0.139711     0.424731    -0.778473 
x,y,z [Debye]:     0.355117     1.079582    -1.978721 

 

Dipole moment calculation done in   0.0 sec 

Maximum memory used throughout the entire PROP-calculation: 62.0 MB

--------------------------------
SUGGESTED CITATIONS FOR THIS RUN
--------------------------------

Below you find a list of papers that are relevant to this ORCA run
We neither can nor want to force you to cite these papers, but we appreciate if you do
You receive ORCA, which is the product of decades of hard work by many enthusiastic individuals, for free
The only thing we kindly ask in return is that you cite our papers,
We deeply appreciate it, if you show your appreciation for ORCA by not just citing the generic ORCA reference.

Please note that relegating all ORCA citations to the supporting information does *not* help us.
SI sections are not indexed - citations you put there will not count into any citation statistics
But we need these citations in order to attract the funding resources that allow us to do what we are doing

Therefore, if you are a happy ORCA user, please consider citing a few of the papers listed below in the main body of your paper

In addition to the list printed below, the program has created the file data/single_point_P_M06-2x/87021/87021.bibtex that contains the list in bibtex format
You can import this file easily into all common literature databanks and citation aid programs


List of essential papers. We consider these as the minimum necessary citations

  1. Neese,F.
     Software update: the ORCA program system, version 5.0
     WIRES Comput. Molec. Sci., 2022 12(1)e1606
     doi.org/10.1002/wcms.1606

List of papers to cite with high priority. The work reported in these papers was absolutely
necessary for this run to complete.
Our perspective: the developers of density functionals and basis sets usually get cited in chemistry papers
Good! But without the algorithms to do something with them, the functionals or basis sets would not do anything.
Hence, in our opinion, the algorithm design and method developments papers are equally worthy of getting cited

  1. Neese,F.
     An improvement of the resolution of the identity approximation for the formation of the Coulomb matrix
     J. Comp. Chem., 2003 24(14)1740-1747
     doi.org/10.1002/jcc.10318
  2. Neese,F.; Wennmohs,F.; Hansen,A.; Becker,U.
     Efficient, approximate and parallel Hartree-Fock and hybrid DFT calculations. A 'chain-of-spheres' algorithm for the Hartree-Fock exchange
     Chem. Phys., 2009 356(1-3)98-109
     doi.org/10.1016/j.chemphys.2008.10.036
  3. Helmich-Paris,B.; de Souza,B.; Neese,F.; Izsák,R.
     An improved chain of spheres for exchange algorithm
     J. Chem. Phys., 2021 155 104109
     doi.org/doi: 10.1063/5.0058766.
  4. Neese,F.
     The SHARK Integral Generation and Digestion System
     J. Comp. Chem., 2022  1-16
     doi.org/10.1002/jcc.26942
  5. Grimme,S.; Antony,J.; Ehrlich,S.; Krieg,H.
     A consistent and accurate ab initio parametrization of density functional dispersion correction (DFT-D) for the 94 elements H-Pu
     J. Chem. Phys., 2010 132 154104-XXXX
     doi.org/10.1063/1.3382344

List of suggested additional citations. These are papers that are important in the 'surrounding' of 
of this run, or papers that preceded the highly important papers. If you like your results we are grateful for a citation.

  1. Izsak,R.; Neese,F.
     An overlap fitted chain of spheres exchange method
     J. Chem. Phys., 2011 135 144105
     doi.org/10.1063/1.3646921
  2. Izsak,R.; Hansen,A.; Neese,F.
     The resolution of identity and chain of spheres approximations for the LPNO-CCSD singles Fock term
     Molec. Phys., 2012 110 2413-2417
     doi.org/10.1080/00268976.2012.687466
  3. Neese,F.
     The ORCA program system
     WIRES Comput. Molec. Sci., 2012 2(1)73-78
     doi.org/10.1002/wcms.81
  4. Izsak,R.; Neese,F.; Klopper,W.
     Robust fitting techniques in the chain of spheres approximation to the Fock exchange: The role of the complementary space
     J. Chem. Phys., 2013 139 
     doi.org/10.1063/1.4819264
  5. Neese,F.
     Software update: the ORCA program system, version 4.0
     WIRES Comput. Molec. Sci., 2018 8(1)1-6
     doi.org/10.1002/wcms.1327
  6. Neese,F.; Wennmohs,F.; Becker,U.; Riplinger,C.
     The ORCA quantum chemistry program package
     J. Chem. Phys., 2020 152 Art. No. L224108
     doi.org/10.1063/5.0004608

List of optional additional citations

  1. Neese,F.
     Approximate second-order SCF convergence for spin unrestricted wavefunctions
     Chem. Phys. Lett., 2000 325(1-3)93-98
     doi.org/10.1016/s0009-2614(00)00662-x

Timings for individual modules:

Sum of individual times          ...      162.275 sec (=   2.705 min)
Startup calculation              ...        4.706 sec (=   0.078 min)   2.9 %
SCF iterations                   ...      157.254 sec (=   2.621 min)  96.9 %
Property calculations            ...        0.315 sec (=   0.005 min)   0.2 %
                             ****ORCA TERMINATED NORMALLY****
TOTAL RUN TIME: 0 days 0 hours 2 minutes 42 seconds 526 msec
