
                                 *****************
                                 * O   R   C   A *
                                 *****************

                                            #,                                       
                                            ###                                      
                                            ####                                     
                                            #####                                    
                                            ######                                   
                                           ########,                                 
                                     ,,################,,,,,                         
                               ,,#################################,,                 
                          ,,##########################################,,             
                       ,#########################################, ''#####,          
                    ,#############################################,,   '####,        
                  ,##################################################,,,,####,       
                ,###########''''           ''''###############################       
              ,#####''   ,,,,##########,,,,          '''####'''          '####       
            ,##' ,,,,###########################,,,                        '##       
           ' ,,###''''                  '''############,,,                           
         ,,##''                                '''############,,,,        ,,,,,,###''
      ,#''                                            '''#######################'''  
     '                                                          ''''####''''         
             ,#######,   #######,   ,#######,      ##                                
            ,#'     '#,  ##    ##  ,#'     '#,    #''#        ,####,   ,####,        
            ##       ##  ##   ,#'  ##            #'  '#       #'       #'  '#        
            ##       ##  #######   ##           ,######,      #####,   #    #        
            '#,     ,#'  ##    ##  '#,     ,#' ,#      #,     #,   #   #,  ,#        
             '#######'   ##     ##  '#######'  #'      '#     '####' # '####'        



                #########################################################
                #                        -***-                          #
                #          Department of theory and spectroscopy        #
                #                                                       #
                #                      Frank Neese                      #
                #                                                       #
                #     Directorship, Architecture, Infrastructure        #
                #                    SHARK, DRIVERS                     #
                #        Core code/Algorithms in most modules           #
                #                                                       #
                #        Max Planck Institute fuer Kohlenforschung      #
                #                Kaiser Wilhelm Platz 1                 #
                #                 D-45470 Muelheim/Ruhr                 #
                #                      Germany                          #
                #                                                       #
                #                  All rights reserved                  #
                #                        -***-                          #
                #########################################################


                         Program Version 6.0.0  -   RELEASE   -


 With contributions from (in alphabetic order):
   Daniel Aravena         : Magnetic Suceptibility
   Michael Atanasov       : Ab Initio Ligand Field Theory (pilot matlab implementation)
   Alexander A. Auer      : GIAO ZORA, VPT2 properties, NMR spectrum
   Ute Becker             : All parallelization in ORCA, NUMFREQ, NUMCALC
   Giovanni Bistoni       : ED, misc. LED, open-shell LED, HFLD
   Martin Brehm           : Molecular dynamics
   Dmytro Bykov           : pre 5.0 version of the SCF Hessian
   Marcos Casanova-Páez   : Triplet and SCS-CIS(D). UHF-(DLPNO)-IP/EA/STEOM-CCSD. UHF-CVS-IP/STEOM-CCSD
   Vijay G. Chilkuri      : MRCI spin determinant printing, contributions to CSF-ICE
   Pauline Colinet        : FMM embedding
   Dipayan Datta          : RHF DLPNO-CCSD density
   Achintya Kumar Dutta   : EOM-CC, STEOM-CC
   Nicolas Foglia         : Exact transition moments, OPA infrastructure, MCD improvements
   Dmitry Ganyushin       : Spin-Orbit,Spin-Spin,Magnetic field MRCI
   Miquel Garcia          : C-PCM and meta-GGA Hessian, CCSD/C-PCM, Gaussian charge scheme
   Tiago L. C. Gouveia    : GS-ROHF, GS-ROCIS
   Yang Guo               : DLPNO-NEVPT2, F12-NEVPT2, CIM, IAO-localization
   Andreas Hansen         : Spin unrestricted coupled pair/coupled cluster methods
   Ingolf Harden          : AUTO-CI MPn and infrastructure 
   Benjamin Helmich-Paris : MC-RPA, TRAH-(SCF,CASSCF), AVAS, COSX integrals, SCF dyn. polar.
   Lee Huntington         : MR-EOM, pCC
   Robert Izsak           : Overlap fitted RIJCOSX, COSX-SCS-MP3, EOM
   Riya Kayal             : Wick's Theorem for AUTO-CI, AUTO-CI UHF-CCSDT
   Emily Kempfer          : AUTO-CI, RHF CISDT and CCSDT
   Christian Kollmar      : KDIIS, OOCD, Brueckner-CCSD(T), CCSD density, CASPT2, CASPT2-K, improved NEVPT2
   Axel Koslowski         : Symmetry handling
   Simone Kossmann        : Meta GGA functionals, TD-DFT gradient, OOMP2, (MP2 Hessian; deprecated post 5.0)
   Lucas Lang             : DCDCAS
   Marvin Lechner         : AUTO-CI (C++ implementation), FIC-MRCC
   Spencer Leger          : CASSCF response
   Dagmar Lenk            : GEPOL surface, SMD, ORCA-2-JSON
   Dimitrios Liakos       : Extrapolation schemes; Compound Job, initial MDCI parallelization
   Dimitrios Manganas     : Further ROCIS development; embedding schemes. LFT, Crystal Embedding
   Dimitrios Pantazis     : SARC Basis sets
   Anastasios Papadopoulos: AUTO-CI, single reference methods and gradients
   Taras Petrenko         : pre 6.0 DFT Hessian and TD-DFT gradient, (ASA, deprecated), ECA, 1-Electron XAS/XES, NRVS
   Peter Pinski           : DLPNO-MP2, DLPNO-MP2 Gradient
   Christoph Reimann      : Effective Core Potentials
   Marius Retegan         : Local ZFS, SOC
   Christoph Riplinger    : Optimizer, TS searches, QM/MM, DLPNO-CCSD(T), (RO)-DLPNO pert. Triples
   Michael Roemelt        : Original ROCIS implementation
   Masaaki Saitow         : Open-shell DLPNO-CCSD energy and density
   Barbara Sandhoefer     : DKH picture change effects
   Kantharuban Sivalingam : CASSCF convergence/infrastructure, NEVPT2 and variants, FIC-MRCI
   Bernardo de Souza      : ESD, SOC TD-DFT
   Georgi Stoychev        : AutoAux, RI-MP2 NMR, DLPNO-MP2 response, X2C
   Van Anh Tran           : RI-MP2 g-tensors
   Willem Van den Heuvel  : Paramagnetic NMR
   Zikuan Wang            : NOTCH, Electric field optimization 
   Frank Wennmohs         : Technical directorship and infrastructure
   Hang Xu                : AUTO-CI-Response properties 


 We gratefully acknowledge several colleagues who have allowed us to
 interface, adapt or use parts of their codes:
   Stefan Grimme, W. Hujo, H. Kruse, P. Pracht,  : VdW corrections, initial TS optimization,
                  C. Bannwarth, S. Ehlert,         DFT functionals, gCP, sTDA/sTD-DF
                  L. Wittmann, M. Mueller
   Ed Valeev, F. Pavosevic, A. Kumar             : LibInt (2-el integral package), F12 methods
   Garnet Chan, S. Sharma, J. Yang, R. Olivares  : DMRG
   Ulf Ekstrom                                   : XCFun DFT Library
   Mihaly Kallay                                 : mrcc  (arbitrary order and MRCC methods)
   Frank Weinhold                                : gennbo (NPA and NBO analysis)
   Simon Mueller                                 : openCOSMO-RS
   Christopher J. Cramer and Donald G. Truhlar   : smd solvation model
   Lars Goerigk                                  : TD-DFT with DH, B97 family of functionals
   V. Asgeirsson, H. Jonsson                     : NEB implementation
   FAccTs GmbH                                   : IRC, NEB, NEB-TS, DLPNO-Multilevel, CI-OPT
                                                   MM, QMMM, 2- and 3-layer-ONIOM, Crystal-QMMM,
                                                   LR-CPCM, SF, NACMEs, symmetry and pop. for TD-DFT,
                                                   nearIR, NL-DFT gradient (VV10), updates on ESD,
                                                   ML-optimized integration grids, MBIS, APM,
                                                   GOAT, DOCKER, SOLVATOR, interface openCOSMO-RS
   S Lehtola, MJT Oliveira, MAL Marques          : LibXC Library
   Liviu Ungur et al                             : ANISO software


 Your calculation uses the libint2 library for the computation of 2-el integrals
 For citations please refer to: http://libint.valeyev.net

 Your ORCA version has been built with support for libXC version: 6.2.2
 For citations please refer to: https://libxc.gitlab.io

 This ORCA versions uses:
   CBLAS   interface :  Fast vector & matrix operations
   LAPACKE interface :  Fast linear algebra routines
   Shared memory     :  Shared parallel matrices


Your calculation utilizes the atom-pairwise dispersion correction
with the Becke-Johnson damping scheme (D3BJ)


Warning: RI is on but no J-basis has been assigned. Assigning Def2/J (nothing to worry about!)
================================================================================

----- Orbital basis set information -----
Your calculation utilizes the basis: def2-SVP
   F. Weigend and R. Ahlrichs, Phys. Chem. Chem. Phys. 7, 3297 (2005).

----- AuxJ basis set information -----
Your calculation utilizes the auxiliary basis: def2/J
   F. Weigend, Phys. Chem. Chem. Phys. 8, 1057 (2006).

================================================================================
                                        WARNINGS
                       Please study these warnings very carefully!
================================================================================


WARNING: Geometry Optimization
  ===> : Switching off AutoStart
         For restart on a previous wavefunction, please use MOREAD

================================================================================
                                       INPUT FILE
================================================================================
NAME = data/geom_opt/140387/140387.inp
|  1> ! RIJONX B3LYP def2-SVP D3BJ TIGHTSCF Opt
|  2> %pal
|  3> nprocs 6
|  4> end
|  5> 
|  6> * xyz 0 1
|  7> C     -1.278615    3.879298    0.042899
|  8> C     -1.131055    2.694004   -0.682475
|  9> C     -0.183221    1.722626   -0.303978
| 10> C      0.614610    1.982465    0.822763
| 11> C      0.467292    3.168918    1.548591
| 12> C     -0.477167    4.105269    1.152238
| 13> F     -0.617037    5.239839    1.849618
| 14> P     -0.066291    0.211649   -1.316700
| 15> C      1.477665   -0.579558   -0.757663
| 16> C      2.686409   -0.135530   -1.329505
| 17> C      3.910731   -0.694632   -0.953602
| 18> C      3.937032   -1.705398   -0.004037
| 19> C      2.763225   -2.166117    0.575418
| 20> C      1.537950   -1.606182    0.199418
| 21> F      5.108920   -2.242346    0.358616
| 22> C     -1.381112   -0.866358   -0.659832
| 23> C     -2.073954   -0.627197    0.538654
| 24> C     -3.074409   -1.501161    0.976233
| 25> C     -3.391084   -2.619473    0.217979
| 26> C     -2.726880   -2.882166   -0.971070
| 27> C     -1.727578   -2.008659   -1.408386
| 28> F     -4.348499   -3.455285    0.639792
| 29> H     -2.011438    4.623026   -0.253019
| 30> H     -1.769133    2.534477   -1.550601
| 31> H      1.361027    1.269700    1.163724
| 32> H      1.085448    3.364618    2.419151
| 33> H      2.685812    0.656888   -2.076705
| 34> H      4.838440   -0.347325   -1.396843
| 35> H      2.804687   -2.958475    1.316187
| 36> H      0.639062   -1.988196    0.676382
| 37> H     -1.849037    0.236332    1.159267
| 38> H     -3.606199   -1.312585    1.903556
| 39> H     -2.988224   -3.761058   -1.551566
| 40> H     -1.217377   -2.231411   -2.344501
| 41> **                         ****END OF INPUT****
================================================================================

                       *****************************
                       * Geometry Optimization Run *
                       *****************************

Geometry optimization settings:
Update method            Update   .... BFGS
Choice of coordinates    CoordSys .... (2022) Redundant Internals
Initial Hessian          InHess   .... Almloef's Model
Max. no of cycles        MaxIter  .... 102

Convergence Tolerances:
Energy Change            TolE     ....  5.0000e-06 Eh
Max. Gradient            TolMAXG  ....  3.0000e-04 Eh/bohr
RMS Gradient             TolRMSG  ....  1.0000e-04 Eh/bohr
Max. Displacement        TolMAXD  ....  4.0000e-03 bohr
RMS Displacement         TolRMSD  ....  2.0000e-03 bohr
Strict Convergence                .... False

------------------------------------------------------------------------------
                        ORCA OPTIMIZATION COORDINATE SETUP
------------------------------------------------------------------------------

The optimization will be done in redundant internal coordinates (2022)
Making redundant internal coordinates   ...  (2022 redundants) done
Evaluating the initial hessian          ...  (Almloef) done
Evaluating the coordinates              ...  done
Calculating the B-matrix                .... done
Calculating the G-matrix                .... done
Diagonalizing the G-matrix              .... done
Small eigenvalue found = 5.505e-03
Small eigenvalue found = 5.505e-03
Small eigenvalue found = 1.026e-02
The first mode is                       ....   81
The number of degrees of freedom        ....   96

    -----------------------------------------------------------------
                    Redundant Internal Coordinates


    -----------------------------------------------------------------
         Definition                    Initial Value    Approx d2E/dq
    -----------------------------------------------------------------
      1. B(C   1,C   0)                  1.3974         0.607931   
      2. B(C   2,C   1)                  1.4090         0.582716   
      3. B(C   3,C   2)                  1.4048         0.591631   
      4. B(C   4,C   3)                  1.3986         0.605272   
      5. B(C   5,C   4)                  1.3878         0.629981   
      6. B(C   5,C   0)                  1.3871         0.631515   
      7. B(F   6,C   5)                  1.3391         0.626898   
      8. B(P   7,C   2)                  1.8227         0.428396   
      9. B(C   8,P   7)                  1.8227         0.428396   
     10. B(C   9,C   8)                  1.4090         0.582715   
     11. B(C  10,C   9)                  1.3974         0.607932   
     12. B(C  11,C  10)                  1.3871         0.631516   
     13. B(C  12,C  11)                  1.3878         0.629980   
     14. B(C  13,C  12)                  1.3986         0.605270   
     15. B(C  13,C   8)                  1.4048         0.591631   
     16. B(F  14,C  11)                  1.3391         0.626897   
     17. B(C  15,P   7)                  1.8227         0.428397   
     18. B(C  16,C  15)                  1.4048         0.591630   
     19. B(C  17,C  16)                  1.3986         0.605273   
     20. B(C  18,C  17)                  1.3878         0.629979   
     21. B(C  19,C  18)                  1.3871         0.631517   
     22. B(C  20,C  19)                  1.3974         0.607930   
     23. B(C  20,C  15)                  1.4090         0.582717   
     24. B(F  21,C  18)                  1.3391         0.626898   
     25. B(H  22,C   0)                  1.0852         0.366463   
     26. B(H  23,C   1)                  1.0891         0.361234   
     27. B(H  24,C   3)                  1.0869         0.364178   
     28. B(H  25,C   4)                  1.0855         0.366115   
     29. B(H  26,C   9)                  1.0891         0.361234   
     30. B(H  27,C  10)                  1.0852         0.366463   
     31. B(H  28,C  12)                  1.0855         0.366116   
     32. B(H  29,C  13)                  1.0869         0.364177   
     33. B(H  30,C  16)                  1.0869         0.364176   
     34. B(H  31,C  17)                  1.0855         0.366115   
     35. B(H  32,C  19)                  1.0852         0.366464   
     36. B(H  33,C  20)                  1.0891         0.361234   
     37. A(C   1,C   0,H  22)          120.7331         0.352781   
     38. A(C   1,C   0,C   5)          119.4918         0.433968   
     39. A(C   5,C   0,H  22)          119.7750         0.355063   
     40. A(C   2,C   1,H  23)          120.4807         0.349416   
     41. A(C   0,C   1,H  23)          118.4315         0.351924   
     42. A(C   0,C   1,C   2)          121.0877         0.427746   
     43. A(C   1,C   2,P   7)          117.7365         0.428534   
     44. A(C   1,C   2,C   3)          118.0329         0.425668   
     45. A(C   3,C   2,P   7)          124.2297         0.429703   
     46. A(C   4,C   3,H  24)          117.7628         0.352147   
     47. A(C   2,C   3,H  24)          121.3523         0.350792   
     48. A(C   2,C   3,C   4)          120.8839         0.428574   
     49. A(C   5,C   4,H  25)          119.6682         0.354860   
     50. A(C   3,C   4,H  25)          120.6073         0.352463   
     51. A(C   3,C   4,C   5)          119.7245         0.433436   
     52. A(C   0,C   5,C   4)          120.7788         0.436761   
     53. A(C   0,C   5,F   6)          119.6159         0.431593   
     54. A(C   4,C   5,F   6)          119.6052         0.431404   
     55. A(C   2,P   7,C  15)          104.1090         0.432603   
     56. A(C   2,P   7,C   8)          104.1091         0.432603   
     57. A(C   8,P   7,C  15)          104.1092         0.432603   
     58. A(P   7,C   8,C   9)          117.7365         0.428534   
     59. A(C   9,C   8,C  13)          118.0330         0.425668   
     60. A(P   7,C   8,C  13)          124.2296         0.429703   
     61. A(C   8,C   9,H  26)          120.4807         0.349415   
     62. A(C  10,C   9,H  26)          118.4316         0.351924   
     63. A(C   8,C   9,C  10)          121.0876         0.427745   
     64. A(C   9,C  10,C  11)          119.4919         0.433968   
     65. A(C  11,C  10,H  27)          119.7751         0.355063   
     66. A(C   9,C  10,H  27)          120.7330         0.352781   
     67. A(C  10,C  11,C  12)          120.7788         0.436761   
     68. A(C  12,C  11,F  14)          119.6052         0.431404   
     69. A(C  10,C  11,F  14)          119.6160         0.431593   
     70. A(C  13,C  12,H  28)          120.6073         0.352463   
     71. A(C  11,C  12,H  28)          119.6682         0.354860   
     72. A(C  11,C  12,C  13)          119.7244         0.433436   
     73. A(C  12,C  13,H  29)          117.7628         0.352146   
     74. A(C   8,C  13,H  29)          121.3525         0.350792   
     75. A(C   8,C  13,C  12)          120.8838         0.428574   
     76. A(C  16,C  15,C  20)          118.0330         0.425668   
     77. A(P   7,C  15,C  20)          117.7365         0.428534   
     78. A(P   7,C  15,C  16)          124.2296         0.429703   
     79. A(C  15,C  16,H  30)          121.3523         0.350792   
     80. A(C  15,C  16,C  17)          120.8839         0.428575   
     81. A(C  17,C  16,H  30)          117.7629         0.352146   
     82. A(C  16,C  17,H  31)          120.6073         0.352463   
     83. A(C  16,C  17,C  18)          119.7244         0.433436   
     84. A(C  18,C  17,H  31)          119.6682         0.354859   
     85. A(C  17,C  18,C  19)          120.7788         0.436761   
     86. A(C  19,C  18,F  21)          119.6160         0.431593   
     87. A(C  17,C  18,F  21)          119.6052         0.431404   
     88. A(C  18,C  19,C  20)          119.4919         0.433968   
     89. A(C  20,C  19,H  32)          120.7331         0.352781   
     90. A(C  18,C  19,H  32)          119.7750         0.355063   
     91. A(C  15,C  20,C  19)          121.0876         0.427746   
     92. A(C  19,C  20,H  33)          118.4315         0.351924   
     93. A(C  15,C  20,H  33)          120.4808         0.349416   
     94. D(H  23,C   1,C   0,C   5)   -179.9874         0.025515   
     95. D(C   2,C   1,C   0,H  22)   -179.9195         0.025515   
     96. D(H  23,C   1,C   0,H  22)     -0.0464         0.025515   
     97. D(C   2,C   1,C   0,C   5)      0.1395         0.025515   
     98. D(C   3,C   2,C   1,C   0)     -0.2440         0.023339   
     99. D(C   3,C   2,C   1,H  23)    179.8854         0.023339   
    100. D(P   7,C   2,C   1,C   0)   -179.9114         0.023339   
    101. D(P   7,C   2,C   1,H  23)      0.2180         0.023339   
    102. D(H  24,C   3,C   2,P   7)     -0.4914         0.024095   
    103. D(C   4,C   3,C   2,C   1)      0.2238         0.024095   
    104. D(C   4,C   3,C   2,P   7)    179.8678         0.024095   
    105. D(H  24,C   3,C   2,C   1)    179.8647         0.024095   
    106. D(H  25,C   4,C   3,C   2)    179.9348         0.025280   
    107. D(C   5,C   4,C   3,C   2)     -0.1003         0.025280   
    108. D(C   5,C   4,C   3,H  24)   -179.7537         0.025280   
    109. D(H  25,C   4,C   3,H  24)      0.2814         0.025280   
    110. D(F   6,C   5,C   4,H  25)     -0.0954         0.027517   
    111. D(C   0,C   5,C   4,H  25)    179.9544         0.027517   
    112. D(F   6,C   5,C   0,H  22)      0.0997         0.027660   
    113. D(F   6,C   5,C   0,C   1)   -179.9587         0.027660   
    114. D(C   4,C   5,C   0,H  22)   -179.9502         0.027660   
    115. D(F   6,C   5,C   4,C   3)    179.9393         0.027517   
    116. D(C   4,C   5,C   0,C   1)     -0.0086         0.027660   
    117. D(C   0,C   5,C   4,C   3)     -0.0108         0.027517   
    118. D(C  15,P   7,C   2,C   3)     96.6527         0.003785   
    119. D(C  15,P   7,C   2,C   1)    -83.7024         0.003785   
    120. D(C   8,P   7,C   2,C   3)    -12.1523         0.003785   
    121. D(C   8,P   7,C   2,C   1)    167.4926         0.003785   
    122. D(C  13,C   8,P   7,C   2)     96.6528         0.003785   
    123. D(C   9,C   8,P   7,C  15)    167.4928         0.003785   
    124. D(C   9,C   8,P   7,C   2)    -83.7023         0.003785   
    125. D(C  13,C   8,P   7,C  15)    -12.1521         0.003785   
    126. D(H  26,C   9,C   8,C  13)    179.8854         0.023339   
    127. D(H  26,C   9,C   8,P   7)      0.2180         0.023339   
    128. D(C  10,C   9,C   8,C  13)     -0.2441         0.023339   
    129. D(C  10,C   9,C   8,P   7)   -179.9115         0.023339   
    130. D(H  27,C  10,C   9,H  26)     -0.0463         0.025515   
    131. D(H  27,C  10,C   9,C   8)   -179.9193         0.025515   
    132. D(C  11,C  10,C   9,H  26)   -179.9874         0.025515   
    133. D(C  11,C  10,C   9,C   8)      0.1395         0.025515   
    134. D(F  14,C  11,C  10,H  27)      0.0997         0.027660   
    135. D(F  14,C  11,C  10,C   9)   -179.9586         0.027660   
    136. D(C  12,C  11,C  10,H  27)   -179.9503         0.027660   
    137. D(C  12,C  11,C  10,C   9)     -0.0086         0.027660   
    138. D(H  28,C  12,C  11,F  14)     -0.0955         0.027517   
    139. D(H  28,C  12,C  11,C  10)    179.9544         0.027517   
    140. D(C  13,C  12,C  11,F  14)    179.9391         0.027517   
    141. D(C  13,C  12,C  11,C  10)     -0.0109         0.027517   
    142. D(H  29,C  13,C  12,H  28)      0.2814         0.025280   
    143. D(C   8,C  13,C  12,H  28)    179.9348         0.025280   
    144. D(C   8,C  13,C  12,C  11)     -0.1002         0.025280   
    145. D(H  29,C  13,C   8,C   9)    179.8647         0.024095   
    146. D(H  29,C  13,C   8,P   7)     -0.4913         0.024095   
    147. D(H  29,C  13,C  12,C  11)   -179.7536         0.025280   
    148. D(C  12,C  13,C   8,C   9)      0.2238         0.024095   
    149. D(C  12,C  13,C   8,P   7)    179.8678         0.024095   
    150. D(C  20,C  15,P   7,C   8)    -83.7038         0.003785   
    151. D(C  20,C  15,P   7,C   2)    167.4912         0.003785   
    152. D(C  16,C  15,P   7,C   8)     96.6513         0.003785   
    153. D(C  16,C  15,P   7,C   2)    -12.1537         0.003785   
    154. D(H  30,C  16,C  15,P   7)     -0.4915         0.024095   
    155. D(C  17,C  16,C  15,C  20)      0.2237         0.024095   
    156. D(C  17,C  16,C  15,P   7)    179.8677         0.024095   
    157. D(H  30,C  16,C  15,C  20)    179.8646         0.024095   
    158. D(H  31,C  17,C  16,H  30)      0.2816         0.025280   
    159. D(H  31,C  17,C  16,C  15)    179.9350         0.025280   
    160. D(C  18,C  17,C  16,H  30)   -179.7536         0.025280   
    161. D(C  18,C  17,C  16,C  15)     -0.1001         0.025280   
    162. D(F  21,C  18,C  17,H  31)     -0.0955         0.027517   
    163. D(F  21,C  18,C  17,C  16)    179.9393         0.027517   
    164. D(C  19,C  18,C  17,H  31)    179.9543         0.027517   
    165. D(C  19,C  18,C  17,C  16)     -0.0109         0.027517   
    166. D(H  32,C  19,C  18,F  21)      0.0996         0.027660   
    167. D(H  32,C  19,C  18,C  17)   -179.9502         0.027660   
    168. D(C  20,C  19,C  18,F  21)   -179.9588         0.027660   
    169. D(C  20,C  19,C  18,C  17)     -0.0086         0.027660   
    170. D(H  33,C  20,C  19,H  32)     -0.0464         0.025515   
    171. D(H  33,C  20,C  19,C  18)   -179.9874         0.025515   
    172. D(C  15,C  20,C  19,H  32)   -179.9195         0.025515   
    173. D(C  15,C  20,C  19,C  18)      0.1395         0.025515   
    174. D(H  33,C  20,C  15,C  16)    179.8855         0.023339   
    175. D(H  33,C  20,C  15,P   7)      0.2181         0.023339   
    176. D(C  19,C  20,C  15,C  16)     -0.2440         0.023339   
    177. D(C  19,C  20,C  15,P   7)   -179.9114         0.023339   
    -----------------------------------------------------------------

Number of atoms                         .... 34
Number of degrees of freedom            .... 177


         *************************************************************
         *                GEOMETRY OPTIMIZATION CYCLE   1            *
         *************************************************************
---------------------------------
CARTESIAN COORDINATES (ANGSTROEM)
---------------------------------
  C     -1.278615    3.879298    0.042899
  C     -1.131055    2.694004   -0.682475
  C     -0.183221    1.722626   -0.303978
  C      0.614610    1.982465    0.822763
  C      0.467292    3.168918    1.548591
  C     -0.477167    4.105269    1.152238
  F     -0.617037    5.239839    1.849618
  P     -0.066291    0.211649   -1.316700
  C      1.477665   -0.579558   -0.757663
  C      2.686409   -0.135530   -1.329505
  C      3.910731   -0.694632   -0.953602
  C      3.937032   -1.705398   -0.004037
  C      2.763225   -2.166117    0.575418
  C      1.537950   -1.606182    0.199418
  F      5.108920   -2.242346    0.358616
  C     -1.381112   -0.866358   -0.659832
  C     -2.073954   -0.627197    0.538654
  C     -3.074409   -1.501161    0.976233
  C     -3.391084   -2.619473    0.217979
  C     -2.726880   -2.882166   -0.971070
  C     -1.727578   -2.008659   -1.408386
  F     -4.348499   -3.455285    0.639792
  H     -2.011438    4.623026   -0.253019
  H     -1.769133    2.534477   -1.550601
  H      1.361027    1.269700    1.163724
  H      1.085448    3.364618    2.419151
  H      2.685812    0.656888   -2.076705
  H      4.838440   -0.347325   -1.396843
  H      2.804687   -2.958475    1.316187
  H      0.639062   -1.988196    0.676382
  H     -1.849037    0.236332    1.159267
  H     -3.606199   -1.312585    1.903556
  H     -2.988224   -3.761058   -1.551566
  H     -1.217377   -2.231411   -2.344501

----------------------------
CARTESIAN COORDINATES (A.U.)
----------------------------
  NO LB      ZA    FRAG     MASS         X           Y           Z
   0 C     6.0000    0    12.011   -2.416232    7.330811    0.081067
   1 C     6.0000    0    12.011   -2.137384    5.090930   -1.289691
   2 C     6.0000    0    12.011   -0.346238    3.255291   -0.574435
   3 C     6.0000    0    12.011    1.161445    3.746316    1.554797
   4 C     6.0000    0    12.011    0.883054    5.988387    2.926413
   5 C     6.0000    0    12.011   -0.901715    7.757834    2.177414
   6 F     9.0000    0    18.998   -1.166031    9.901861    3.495271
   7 P    15.0000    0    30.974   -0.125272    0.399959   -2.488202
   8 C     6.0000    0    12.011    2.792382   -1.095206   -1.431776
   9 C     6.0000    0    12.011    5.076577   -0.256115   -2.512400
  10 C     6.0000    0    12.011    7.390211   -1.312664   -1.802047
  11 C     6.0000    0    12.011    7.439912   -3.222735   -0.007629
  12 C     6.0000    0    12.011    5.221738   -4.093368    1.087382
  13 C     6.0000    0    12.011    2.906304   -3.035244    0.376845
  14 F     9.0000    0    18.998    9.654460   -4.237420    0.677686
  15 C     6.0000    0    12.011   -2.609923   -1.637179   -1.246902
  16 C     6.0000    0    12.011   -3.919205   -1.185231    1.017909
  17 C     6.0000    0    12.011   -5.809791   -2.836783    1.844813
  18 C     6.0000    0    12.011   -6.408220   -4.950087    0.411921
  19 C     6.0000    0    12.011   -5.153056   -5.446504   -1.835056
  20 C     6.0000    0    12.011   -3.264649   -3.795815   -2.661464
  21 F     9.0000    0    18.998   -8.217472   -6.529542    1.209032
  22 H     1.0000    0     1.008   -3.801067    8.736253   -0.478137
  23 H     1.0000    0     1.008   -3.343177    4.789467   -2.930211
  24 H     1.0000    0     1.008    2.571968    2.399385    2.199120
  25 H     1.0000    0     1.008    2.051199    6.358207    4.571533
  26 H     1.0000    0     1.008    5.075449    1.241338   -3.924404
  27 H     1.0000    0     1.008    9.143327   -0.656349   -2.639651
  28 H     1.0000    0     1.008    5.300090   -5.590708    2.487233
  29 H     1.0000    0     1.008    1.207652   -3.757146    1.278177
  30 H     1.0000    0     1.008   -3.494174    0.446603    2.190697
  31 H     1.0000    0     1.008   -6.814728   -2.480426    3.597200
  32 H     1.0000    0     1.008   -5.646925   -7.107370   -2.932035
  33 H     1.0000    0     1.008   -2.300509   -4.216756   -4.430465

--------------------------------
INTERNAL COORDINATES (ANGSTROEM)
--------------------------------
 C      0   0   0     0.000000000000     0.00000000     0.00000000
 C      1   0   0     1.397448839819     0.00000000     0.00000000
 C      2   1   0     1.408979946433   121.08765008     0.00000000
 C      3   2   1     1.404847284071   118.03294453   359.75596545
 C      4   3   2     1.398642055680   120.88388978     0.22383246
 C      1   2   3     1.387088608008   119.49183086     0.13948250
 F      6   1   2     1.339086093647   119.61593915   180.04125228
 P      3   2   1     1.822725971920   117.73648584   180.08857396
 C      8   3   2     1.822726258700   104.10909898   167.49260390
 C      9   8   3     1.408980551776   117.73648949   276.29773773
 C     10   9   8     1.397448557728   121.08760103   180.08848608
 C     11  10   9     1.387088078884   119.49186491     0.13952914
 C     12  11  10     1.387751046562   120.77882331     0.00000000
 C     13  12  11     1.398642924356   119.72444012     0.00000000
 F     12  11  10     1.339086195007   119.61598413   180.04140579
 C      8   3   2     1.822725685207   104.10902888   276.29760558
 C     16   8   3     1.404847576458   124.22958255   347.84632046
 C     17  16   8     1.398641720228   120.88386994   179.86765285
 C     18  17  16     1.387751387492   119.72442252   359.89985150
 C     19  18  17     1.387087628907   120.77882956     0.00000000
 C     20  19  18     1.397449194107   119.49185545     0.00000000
 F     19  18  17     1.339086027310   119.60515190   179.93930305
 H      1   2   3     1.085231933753   120.73311273   180.08048719
 H      2   1   3     1.089144228139   118.43152267   179.87312024
 H      4   3   2     1.086934536499   121.35233598   179.86471395
 H      5   4   3     1.085490692699   120.60731834   179.93483780
 H     10   9   8     1.089143922139   120.48071725     0.21801239
 H     11  10   9     1.085232106515   120.73304403   180.08066418
 H     13  12  11     1.085490215971   119.66822524   179.95443920
 H     14  13  12     1.086935596085   117.76278244   180.24639638
 H     17  16   8     1.086936284471   121.35232936   359.50852049
 H     18  17  16     1.085490422899   120.60734498   179.93500217
 H     20  19  18     1.085231514478   119.77503481   180.04981462
 H     21  20  19     1.089144070879   118.43151417   180.01263791

---------------------------
INTERNAL COORDINATES (A.U.)
---------------------------
 C      0   0   0     0.000000000000     0.00000000     0.00000000
 C      1   0   0     2.640795593424     0.00000000     0.00000000
 C      2   1   0     2.662586226945   121.08765008     0.00000000
 C      3   2   1     2.654776626878   118.03294453   359.75596545
 C      4   3   2     2.643050444620   120.88388978     0.22383246
 C      1   2   3     2.621217592617   119.49183086     0.13948250
 F      6   1   2     2.530505986736   119.61593915   180.04125228
 P      3   2   1     3.444452904115   117.73648584   180.08857396
 C      8   3   2     3.444453446050   104.10909898   167.49260390
 C      9   8   3     2.662587370879   117.73648949   276.29773773
 C     10   9   8     2.640795060350   121.08760103   180.08848608
 C     11  10   9     2.621216592718   119.49186491     0.13952914
 C     12  11  10     2.622469420066   120.77882331     0.00000000
 C     13  12  11     2.643052086179   119.72444012     0.00000000
 F     12  11  10     2.530506178277   119.61598413   180.04140579
 C      8   3   2     3.444452362306   104.10902888   276.29760558
 C     16   8   3     2.654777179409   124.22958255   347.84632046
 C     17  16   8     2.643049810707   120.88386994   179.86765285
 C     18  17  16     2.622470064328   119.72442252   359.89985150
 C     19  18  17     2.621215742384   120.77882956     0.00000000
 C     20  19  18     2.640796262930   119.49185545     0.00000000
 F     19  18  17     2.530505861377   119.60515190   179.93930305
 H      1   2   3     2.050791146579   120.73311273   180.08048719
 H      2   1   3     2.058184311524   118.43152267   179.87312024
 H      4   3   2     2.054008599484   121.35233598   179.86471395
 H      5   4   3     2.051280130121   120.60731834   179.93483780
 H     10   9   8     2.058183733268   120.48071725     0.21801239
 H     11  10   9     2.050791473052   120.73304403   180.08066418
 H     13  12  11     2.051279229236   119.66822524   179.95443920
 H     14  13  12     2.054010601811   117.76278244   180.24639638
 H     17  16   8     2.054011902672   121.35232936   359.50852049
 H     18  17  16     2.051279620273   120.60734498   179.93500217
 H     20  19  18     2.050790354264   119.77503481   180.04981462
 H     21  20  19     2.058184014345   118.43151417   180.01263791

---------------------
BASIS SET INFORMATION
---------------------
There are 4 groups of distinct atoms

 Group   1 Type C   : 7s4p1d contracted to 3s2p1d pattern {511/31/1}
 Group   2 Type F   : 7s4p1d contracted to 3s2p1d pattern {511/31/1}
 Group   3 Type P   : 10s7p1d contracted to 4s3p1d pattern {5311/511/1}
 Group   4 Type H   : 4s1p contracted to 2s1p pattern {31/1}

Atom   0C    basis set group =>   1
Atom   1C    basis set group =>   1
Atom   2C    basis set group =>   1
Atom   3C    basis set group =>   1
Atom   4C    basis set group =>   1
Atom   5C    basis set group =>   1
Atom   6F    basis set group =>   2
Atom   7P    basis set group =>   3
Atom   8C    basis set group =>   1
Atom   9C    basis set group =>   1
Atom  10C    basis set group =>   1
Atom  11C    basis set group =>   1
Atom  12C    basis set group =>   1
Atom  13C    basis set group =>   1
Atom  14F    basis set group =>   2
Atom  15C    basis set group =>   1
Atom  16C    basis set group =>   1
Atom  17C    basis set group =>   1
Atom  18C    basis set group =>   1
Atom  19C    basis set group =>   1
Atom  20C    basis set group =>   1
Atom  21F    basis set group =>   2
Atom  22H    basis set group =>   4
Atom  23H    basis set group =>   4
Atom  24H    basis set group =>   4
Atom  25H    basis set group =>   4
Atom  26H    basis set group =>   4
Atom  27H    basis set group =>   4
Atom  28H    basis set group =>   4
Atom  29H    basis set group =>   4
Atom  30H    basis set group =>   4
Atom  31H    basis set group =>   4
Atom  32H    basis set group =>   4
Atom  33H    basis set group =>   4
---------------------------------
AUXILIARY/J BASIS SET INFORMATION
---------------------------------
There are 4 groups of distinct atoms

 Group   1 Type C   : 12s5p4d2f1g contracted to 6s4p3d1f1g pattern {711111/2111/211/2/1}
 Group   2 Type F   : 12s5p4d2f1g contracted to 6s4p3d1f1g pattern {711111/2111/211/2/1}
 Group   3 Type P   : 14s5p5d2f1g contracted to 8s4p3d1f1g pattern {71111111/2111/311/2/1}
 Group   4 Type H   : 5s2p1d contracted to 3s1p1d pattern {311/2/1}

Atom   0C    basis set group =>   1
Atom   1C    basis set group =>   1
Atom   2C    basis set group =>   1
Atom   3C    basis set group =>   1
Atom   4C    basis set group =>   1
Atom   5C    basis set group =>   1
Atom   6F    basis set group =>   2
Atom   7P    basis set group =>   3
Atom   8C    basis set group =>   1
Atom   9C    basis set group =>   1
Atom  10C    basis set group =>   1
Atom  11C    basis set group =>   1
Atom  12C    basis set group =>   1
Atom  13C    basis set group =>   1
Atom  14F    basis set group =>   2
Atom  15C    basis set group =>   1
Atom  16C    basis set group =>   1
Atom  17C    basis set group =>   1
Atom  18C    basis set group =>   1
Atom  19C    basis set group =>   1
Atom  20C    basis set group =>   1
Atom  21F    basis set group =>   2
Atom  22H    basis set group =>   4
Atom  23H    basis set group =>   4
Atom  24H    basis set group =>   4
Atom  25H    basis set group =>   4
Atom  26H    basis set group =>   4
Atom  27H    basis set group =>   4
Atom  28H    basis set group =>   4
Atom  29H    basis set group =>   4
Atom  30H    basis set group =>   4
Atom  31H    basis set group =>   4
Atom  32H    basis set group =>   4
Atom  33H    basis set group =>   4


           ************************************************************
           *        Program running with 6 parallel MPI-processes     *
           *              working on a common directory               *
           ************************************************************
------------------------------------------------------------------------------
                             ORCA STARTUP CALCULATIONS
                           -- RI-GTO INTEGRALS CHOSEN --
------------------------------------------------------------------------------
------------------------------------------------------------------------------
                   ___                                                        
                  /   \      - P O W E R E D   B Y -                         
                 /     \                                                     
                 |  |  |   _    _      __       _____    __    __             
                 |  |  |  | |  | |    /  \     |  _  \  |  |  /  |          
                  \  \/   | |  | |   /    \    | | | |  |  | /  /          
                 / \  \   | |__| |  /  /\  \   | |_| |  |  |/  /          
                |  |  |   |  __  | /  /__\  \  |    /   |      \           
                |  |  |   | |  | | |   __   |  |    \   |  |\   \          
                \     /   | |  | | |  |  |  |  | |\  \  |  | \   \       
                 \___/    |_|  |_| |__|  |__|  |_| \__\ |__|  \__/        
                                                                              
                      - O R C A' S   B I G   F R I E N D -                    
                                      &                                       
                       - I N T E G R A L  F E E D E R -                       
                                                                              
 v1 FN, 2020, v2 2021, v3 2022-2024                                           
------------------------------------------------------------------------------


----------------------
SHARK INTEGRAL PACKAGE
----------------------

Number of atoms                             ...     34
Number of basis functions                   ...    372
Number of shells                            ...    170
Maximum angular momentum                    ...      2
Integral batch strategy                     ... SHARK/LIBINT Hybrid
RI-J (if used) integral strategy            ... SPLIT-RIJ (Revised 2003 algorithm where possible)
Printlevel                                  ...      1
Contraction scheme used                     ... SEGMENTED contraction
Prescreening option                         ... SCHWARTZ
   Thresh                                   ... 2.500e-11
   Tcut                                     ... 2.500e-12
   Tpresel                                  ... 2.500e-12 
Coulomb Range Separation                    ... NOT USED
Exchange Range Separation                   ... NOT USED
Multipole approximations                    ... NOT USED
Finite Nucleus Model                        ... NOT USED
CABS basis                                  ... NOT available
Auxiliary Coulomb fitting basis             ... AVAILABLE
   # of basis functions in Aux-J            ...   1212
   # of shells in Aux-J                     ...    392
   Maximum angular momentum in Aux-J        ...      4
Auxiliary J/K fitting basis                 ... NOT available
Auxiliary Correlation fitting basis         ... NOT available
Auxiliary 'external' fitting basis          ... NOT available

Checking pre-screening integrals            ... done (  0.0 sec) Dimension = 170
Check shell pair data                       ... done (  0.0 sec)
Shell pair information
Shell pair cut-off parameter TPreSel        ...   2.5e-12
Total number of shell pairs                 ...     14535
Shell pairs after pre-screening             ...     10626
Total number of primitive shell pairs       ...     54947
Primitive shell pairs kept                  ...     25578
          la=0 lb=0:   3127 shell pairs
          la=1 lb=0:   3930 shell pairs
          la=1 lb=1:   1279 shell pairs
          la=2 lb=0:   1305 shell pairs
          la=2 lb=1:    846 shell pairs
          la=2 lb=2:    139 shell pairs

Calculating one electron integrals          ... done (  0.0 sec)
Calculating RI/J V-Matrix + Cholesky decomp.... done (  0.1 sec)
Calculating Nuclear repulsion               ... done (  0.0 sec) ENN=   1778.960179406777 Eh

Diagonalization of the overlap matrix:
Smallest eigenvalue                        ... 2.505e-04
Time for diagonalization                   ...    0.019 sec
Threshold for overlap eigenvalues          ... 1.000e-07
Number of eigenvalues below threshold      ... 0
Time for construction of square roots      ...    0.010 sec
Total time needed                          ...    0.031 sec

-------------------
DFT GRID GENERATION
-------------------

General Integration Accuracy     IntAcc      ... 4.388
Radial Grid Type                 RadialGrid  ... OptM3 with GC (2021)
Angular Grid (max. ang.)         AngularGrid ... 4 (Lebedev-302)
Angular grid pruning method      GridPruning ... 4 (adaptive)
Weight generation scheme         WeightScheme... mBecke (2022)
Basis function cutoff            BFCut       ... 1.0000e-11
Integration weight cutoff        WCut        ... 1.0000e-14
Partially contracted basis set               ... off
Rotationally invariant grid construction     ... off
Angular grids for H and He will be reduced by one unit

Total number of grid points                  ...   171363
Total number of batches                      ...     2691
Average number of points per batch           ...       63
Average number of grid points per atom       ...     5040
Initializing property integral containers    ... done (  0.0 sec)

SHARK setup successfully completed in   1.3 seconds

Maximum memory used throughout the entire STARTUP-calculation: 46.2 MB


           ************************************************************
           *        Program running with 6 parallel MPI-processes     *
           *              working on a common directory               *
           ************************************************************
-------------------------------------------------------------------------------
                                 ORCA GUESS
                   Start orbitals & Density for SCF / CASSCF
-------------------------------------------------------------------------------

------------
SCF SETTINGS
------------
Hamiltonian:
 Density Functional     Method          .... DFT(GTOs)
 Exchange Functional    Exchange        .... B88
   X-Alpha parameter    XAlpha          ....  0.666667
   Becke's b parameter  XBeta           ....  0.004200
 Correlation Functional Correlation     .... LYP
 LDA part of GGA corr.  LDAOpt          .... VWN-5
 Gradients option       PostSCFGGA      .... off
 Hybrid DFT is turned on
   Fraction HF Exchange ScalHFX         ....  0.200000
   Scaling of DF-GGA-X  ScalDFX         ....  0.720000
   Scaling of DF-GGA-C  ScalDFC         ....  0.810000
   Scaling of DF-LDA-C  ScalLDAC        ....  1.000000
   Perturbative correction              ....  0.000000
   NL short-range parameter             ....  4.800000
 RI-approximation to the Coulomb term is turned on
   Number of AuxJ basis functions       .... 1212
   RIJ-ON(X) (HFX calculated with O(N)) .... on


General Settings:
 Integral files         IntName         .... data/geom_opt/140387/140387
 Hartree-Fock type      HFTyp           .... RHF
 Total Charge           Charge          ....    0
 Multiplicity           Mult            ....    1
 Number of Electrons    NEL             ....  162
 Basis Dimension        Dim             ....  372
 Nuclear Repulsion      ENuc            ....   1778.9601794068 Eh

Convergence Acceleration:
 AO-DIIS                CNVDIIS         .... on
   Start iteration      DIISMaxIt       ....    12
   Startup error        DIISStart       ....  0.200000
   # of expansion vecs  DIISMaxEq       ....     5
   Bias factor          DIISBfac        ....   1.050
   Max. coefficient     DIISMaxC        ....  10.000
 MO-DIIS                CNVKDIIS        .... off
 Trust-Rad. Augm. Hess. CNVTRAH         .... auto
   Auto Start mean grad. ratio tolernc. ....  1.125000
   Auto Start start iteration           ....    50
   Auto Start num. interpolation iter.  ....    10
   Max. Number of Micro iterations      ....    24
   Max. Number of Macro iterations      .... Maxiter - #DIIS iter
   Number of Davidson start vectors     ....     2
   Converg. threshold    (grad. norm)   ....   1.000e-05
   Grad. Scal. Fac. for Micro threshold ....   0.100
   Minimum threshold for Micro iter.    ....   1.000e-02
   NR start threshold (gradient norm)   ....   1.000e-04
   Initial trust radius                 ....   0.400
   Minimum AH scaling param. (alpha)    ....   1.000
   Maximum AH scaling param. (alpha)    .... 1000.000
   Quad. conv. algorithm                .... NR
   White noise on init. David. guess    .... on
   Maximum white noise                  ....   0.010
   Pseudo random numbers                .... off
   Inactive MOs                         .... canonical
   Orbital update algorithm             .... Taylor
   Preconditioner                       .... Diag
   Full preconditioner red. dimension   ....   250
   COSX micro iterations for RIJONX calc.... off
 SOSCF                  CNVSOSCF        .... on
   Start iteration      SOSCFMaxIt      ....   150
   Startup grad/error   SOSCFStart      ....  0.003300
   Hessian update       SOSCFHessUp     .... L-BFGS
 Level Shifting         CNVShift        .... on
   Level shift para.    LevelShift      ....    0.2500
   Turn off err/grad.   ShiftErr        ....    0.0010
 Zerner damping         CNVZerner       .... off
 Static damping         CNVDamp         .... on
   Fraction old density DampFac         ....    0.7000
   Max. Damping (<1)    DampMax         ....    0.9800
   Min. Damping (>=0)   DampMin         ....    0.0000
   Turn off err/grad.   DampErr         ....    0.1000

SCF Procedure:
 Maximum # iterations   MaxIter         ....   125
 SCF integral mode      SCFMode         .... Direct
   Integral package                     .... SHARK and LIBINT hybrid scheme
 Reset frequency        DirectResetFreq ....    20
 Integral Threshold     Thresh          ....  2.500e-11 Eh
 Primitive CutOff       TCut            ....  2.500e-12 Eh

Convergence Tolerance:
 Convergence Check Mode ConvCheckMode   .... Total+1el-Energy
 Convergence forced     ConvForced      .... 0
 Energy Change          TolE            ....  1.000e-08 Eh
 1-El. energy change                    ....  1.000e-05 Eh
 Orbital Gradient       TolG            ....  1.000e-05
 Orbital Rotation angle TolX            ....  1.000e-05
 DIIS Error             TolErr          ....  5.000e-07

------------------------------
INITIAL GUESS: MODEL POTENTIAL
------------------------------
Loading Hartree-Fock densities                     ... done
Calculating cut-offs                               ... done
Initializing the effective Hamiltonian             ... done
Setting up the integral package (SHARK)            ... done
Starting the Coulomb interaction                   ... done (   0.2 sec)
Making the grid                                    ... done (   0.3 sec)
Mapping shells                                     ... done
Starting the XC term evaluation                    ... done (   0.2 sec)
  promolecular density results
     # of electrons  =    161.987869575
     EX              =   -148.920754759
     EC              =     -5.691765041
     EX+EC           =   -154.612519800
Transforming the Hamiltonian                       ... done (   0.0 sec)
Diagonalizing the Hamiltonian                      ... done (   0.0 sec)
Back transforming the eigenvectors                 ... done (   0.0 sec)
Now organizing SCF variables                       ... done
                      ------------------
                      INITIAL GUESS DONE (   0.7 sec)
                      ------------------
             **** ENERGY FILE WAS UPDATED (data/geom_opt/140387/140387.en.tmp) ****
Finished Guess after   0.8 sec
Maximum memory used throughout the entire GUESS-calculation: 26.3 MB


           ************************************************************
           *        Program running with 6 parallel MPI-processes     *
           *              working on a common directory               *
           ************************************************************

-------------------------------------------------------------------------------------------
                                      ORCA LEAN-SCF
                              memory conserving SCF solver
-------------------------------------------------------------------------------------------

----------------------------------------D-I-I-S--------------------------------------------
Iteration    Energy (Eh)           Delta-E    RMSDP     MaxDP     DIISErr   Damp  Time(sec)
-------------------------------------------------------------------------------------------
               ***  Starting incremental Fock matrix formation  ***
    1    -1332.2123136820753189     0.00e+00  2.22e-03  5.61e-02  1.12e-01  0.700   4.9
    2    -1332.3823353481031972    -1.70e-01  1.55e-03  4.17e-02  6.35e-02  0.700   4.1
                               ***Turning on AO-DIIS***
    3    -1332.4547515583678887    -7.24e-02  7.45e-04  3.08e-02  2.89e-02  0.700   4.3
    4    -1332.4970454921829059    -4.23e-02  1.48e-03  7.15e-02  1.55e-02  0.000   4.1
    5    -1332.5880647032811339    -9.10e-02  2.13e-04  9.75e-03  5.43e-03  0.000   4.0
                              *** Initializing SOSCF ***
---------------------------------------S-O-S-C-F--------------------------------------
Iteration    Energy (Eh)           Delta-E    RMSDP     MaxDP     MaxGrad    Time(sec)
--------------------------------------------------------------------------------------
    6    -1332.5885509124079817    -4.86e-04  7.04e-05  3.89e-03  1.18e-03     3.4
               *** Restarting incremental Fock matrix formation ***
    7    -1332.5885880861926580    -3.72e-05  5.73e-05  1.38e-03  3.57e-04     5.0
    8    -1332.5885836392701549     4.45e-06  2.55e-05  6.66e-04  4.83e-04     3.3
    9    -1332.5885939680313186    -1.03e-05  1.33e-05  3.62e-04  1.05e-04     2.9
   10    -1332.5885931848094970     7.83e-07  7.68e-06  2.24e-04  1.57e-04     2.8
   11    -1332.5885944760987059    -1.29e-06  1.98e-06  7.28e-05  1.28e-05     2.5
   12    -1332.5885944981271223    -2.20e-08  1.14e-06  4.00e-05  1.63e-05     2.5
   13    -1332.5885945083311981    -1.02e-08  3.89e-07  1.90e-05  1.99e-06     2.3
                  *** Gradient check signals convergence ***

               *****************************************************
               *                     SUCCESS                       *
               *           SCF CONVERGED AFTER  13 CYCLES          *
               *****************************************************

             **** ENERGY FILE WAS UPDATED (data/geom_opt/140387/140387.en.tmp) ****

----------------
TOTAL SCF ENERGY
----------------

Total Energy       :      -1332.58859450833120 Eh          -36261.57916 eV

Components:
Nuclear Repulsion  :       1778.96017940677689 Eh           48407.96750 eV
Electronic Energy  :      -3111.54877391510809 Eh          -84669.54665 eV
One Electron Energy:      -5361.92499135139042 Eh         -145905.39670 eV
Two Electron Energy:       2250.37621743628233 Eh           61235.85005 eV

Virial components:
Potential Energy   :      -2655.51168107117974 Eh          -72260.14648 eV
Kinetic Energy     :       1322.92308656284854 Eh           35998.56732 eV
Virial Ratio       :          2.00730617527478

DFT components:
N(Alpha)           :       81.000093500899 electrons
N(Beta)            :       81.000093500899 electrons
N(Total)           :      162.000187001798 electrons
E(X)               :     -119.400417987164 Eh       
E(C)               :       -6.693416520889 Eh       
E(XC)              :     -126.093834508053 Eh       

---------------
SCF CONVERGENCE
---------------

  Last Energy change         ...    1.0204e-08  Tolerance :   1.0000e-08
  Last MAX-Density change    ...    1.9044e-05  Tolerance :   1.0000e-07
  Last RMS-Density change    ...    3.8859e-07  Tolerance :   5.0000e-09
  Last DIIS Error            ...    1.1814e-03  Tolerance :   5.0000e-07
  Last Orbital Gradient      ...    1.9875e-06  Tolerance :   1.0000e-05
  Last Orbital Rotation      ...    8.4672e-06  Tolerance :   1.0000e-05


----------------
ORBITAL ENERGIES
----------------

  NO   OCC          E(Eh)            E(eV) 
   0   2.0000     -77.057379     -2096.8379 
   1   2.0000     -24.700421      -672.1326 
   2   2.0000     -24.700411      -672.1324 
   3   2.0000     -24.700404      -672.1322 
   4   2.0000     -10.277278      -279.6590 
   5   2.0000     -10.277275      -279.6589 
   6   2.0000     -10.277271      -279.6588 
   7   2.0000     -10.207985      -277.7734 
   8   2.0000     -10.207974      -277.7731 
   9   2.0000     -10.207970      -277.7730 
  10   2.0000     -10.206467      -277.7321 
  11   2.0000     -10.206447      -277.7316 
  12   2.0000     -10.206439      -277.7313 
  13   2.0000     -10.202023      -277.6112 
  14   2.0000     -10.202016      -277.6110 
  15   2.0000     -10.201941      -277.6089 
  16   2.0000     -10.201846      -277.6063 
  17   2.0000     -10.201840      -277.6062 
  18   2.0000     -10.201838      -277.6061 
  19   2.0000     -10.201255      -277.5903 
  20   2.0000     -10.201247      -277.5901 
  21   2.0000     -10.201243      -277.5899 
  22   2.0000      -6.553896      -178.3406 
  23   2.0000      -4.719338      -128.4197 
  24   2.0000      -4.719335      -128.4196 
  25   2.0000      -4.716345      -128.3383 
  26   2.0000      -1.211210       -32.9587 
  27   2.0000      -1.211202       -32.9585 
  28   2.0000      -1.211201       -32.9584 
  29   2.0000      -0.868630       -23.6366 
  30   2.0000      -0.861278       -23.4366 
  31   2.0000      -0.861267       -23.4363 
  32   2.0000      -0.778003       -21.1705 
  33   2.0000      -0.756880       -20.5958 
  34   2.0000      -0.756876       -20.5956 
  35   2.0000      -0.756386       -20.5823 
  36   2.0000      -0.745054       -20.2739 
  37   2.0000      -0.745050       -20.2738 
  38   2.0000      -0.656658       -17.8686 
  39   2.0000      -0.628555       -17.1039 
  40   2.0000      -0.628553       -17.1038 
  41   2.0000      -0.627925       -17.0867 
  42   2.0000      -0.610216       -16.6048 
  43   2.0000      -0.610213       -16.6047 
  44   2.0000      -0.570719       -15.5300 
  45   2.0000      -0.551752       -15.0139 
  46   2.0000      -0.551747       -15.0138 
  47   2.0000      -0.548754       -14.9323 
  48   2.0000      -0.502349       -13.6696 
  49   2.0000      -0.502347       -13.6696 
  50   2.0000      -0.500134       -13.6093 
  51   2.0000      -0.482506       -13.1297 
  52   2.0000      -0.482503       -13.1296 
  53   2.0000      -0.472905       -12.8684 
  54   2.0000      -0.472900       -12.8683 
  55   2.0000      -0.472842       -12.8667 
  56   2.0000      -0.456542       -12.4231 
  57   2.0000      -0.452424       -12.3111 
  58   2.0000      -0.452419       -12.3109 
  59   2.0000      -0.438079       -11.9207 
  60   2.0000      -0.437098       -11.8940 
  61   2.0000      -0.437090       -11.8938 
  62   2.0000      -0.424042       -11.5388 
  63   2.0000      -0.408125       -11.1057 
  64   2.0000      -0.407860       -11.0984 
  65   2.0000      -0.407856       -11.0983 
  66   2.0000      -0.376235       -10.2379 
  67   2.0000      -0.376232       -10.2378 
  68   2.0000      -0.371237       -10.1019 
  69   2.0000      -0.355150        -9.6641 
  70   2.0000      -0.355149        -9.6641 
  71   2.0000      -0.354053        -9.6343 
  72   2.0000      -0.346326        -9.4240 
  73   2.0000      -0.346323        -9.4239 
  74   2.0000      -0.279896        -7.6164 
  75   2.0000      -0.275091        -7.4856 
  76   2.0000      -0.270587        -7.3631 
  77   2.0000      -0.270586        -7.3630 
  78   2.0000      -0.260653        -7.0927 
  79   2.0000      -0.260647        -7.0926 
  80   2.0000      -0.213942        -5.8217 
  81   0.0000      -0.035759        -0.9731 
  82   0.0000      -0.030244        -0.8230 
  83   0.0000      -0.030239        -0.8228 
  84   0.0000      -0.019441        -0.5290 
  85   0.0000      -0.019439        -0.5290 
  86   0.0000      -0.010646        -0.2897 
  87   0.0000       0.057240         1.5576 
  88   0.0000       0.057253         1.5579 
  89   0.0000       0.063217         1.7202 
  90   0.0000       0.087811         2.3895 
  91   0.0000       0.087822         2.3897 
*Only the first 10 virtual orbitals were printed.

                    ********************************
                    * MULLIKEN POPULATION ANALYSIS *
                    ********************************

-----------------------
MULLIKEN ATOMIC CHARGES
-----------------------
   0 C :   -0.049797
   1 C :    0.027548
   2 C :   -0.141686
   3 C :    0.017436
   4 C :   -0.045310
   5 C :    0.299813
   6 F :   -0.193033
   7 P :    0.345306
   8 C :   -0.141439
   9 C :    0.027396
  10 C :   -0.049795
  11 C :    0.299778
  12 C :   -0.045197
  13 C :    0.017357
  14 F :   -0.193038
  15 C :   -0.141787
  16 C :    0.017353
  17 C :   -0.045119
  18 C :    0.299735
  19 C :   -0.049733
  20 C :    0.027595
  21 F :   -0.193044
  22 H :   -0.009397
  23 H :   -0.008511
  24 H :   -0.000459
  25 H :   -0.011665
  26 H :   -0.008514
  27 H :   -0.009398
  28 H :   -0.011683
  29 H :   -0.000525
  30 H :   -0.000564
  31 H :   -0.011696
  32 H :   -0.009395
  33 H :   -0.008530
Sum of atomic charges:   -0.0000000

--------------------------------
MULLIKEN REDUCED ORBITAL CHARGES
--------------------------------
  0 C s       :     3.234222  s :     3.234222
      pz      :     0.971801  p :     2.782372
      px      :     0.933009
      py      :     0.877562
      dz2     :     0.008220  d :     0.033203
      dxz     :     0.005982
      dyz     :     0.006605
      dx2y2   :     0.005112
      dxy     :     0.007284

  1 C s       :     3.215139  s :     3.215139
      pz      :     0.881870  p :     2.722081
      px      :     0.926999
      py      :     0.913212
      dz2     :     0.005678  d :     0.035232
      dxz     :     0.006268
      dyz     :     0.007675
      dx2y2   :     0.008226
      dxy     :     0.007385

  2 C s       :     3.072920  s :     3.072920
      pz      :     0.989390  p :     3.032584
      px      :     1.028197
      py      :     1.014997
      dz2     :     0.008053  d :     0.036182
      dxz     :     0.006011
      dyz     :     0.008491
      dx2y2   :     0.007273
      dxy     :     0.006354

  3 C s       :     3.227914  s :     3.227914
      pz      :     0.927710  p :     2.719227
      px      :     0.925866
      py      :     0.865652
      dz2     :     0.007914  d :     0.035423
      dxz     :     0.005982
      dyz     :     0.008364
      dx2y2   :     0.005560
      dxy     :     0.007603

  4 C s       :     3.234584  s :     3.234584
      pz      :     0.878413  p :     2.777525
      px      :     0.950502
      py      :     0.948609
      dz2     :     0.005831  d :     0.033201
      dxz     :     0.005062
      dyz     :     0.007400
      dx2y2   :     0.006804
      dxy     :     0.008105

  5 C s       :     2.961949  s :     2.961949
      pz      :     0.901983  p :     2.654836
      px      :     0.990433
      py      :     0.762420
      dz2     :     0.015512  d :     0.083403
      dxz     :     0.010787
      dyz     :     0.022487
      dx2y2   :     0.018569
      dxy     :     0.016048

  6 F s       :     3.887505  s :     3.887505
      pz      :     1.792514  p :     5.297295
      px      :     1.903646
      py      :     1.601135
      dz2     :     0.001164  d :     0.008233
      dxz     :     0.000578
      dyz     :     0.002962
      dx2y2   :     0.002117
      dxy     :     0.001412

  7 P s       :     5.640015  s :     5.640015
      pz      :     3.328477  p :     8.832697
      px      :     2.745302
      py      :     2.758918
      dz2     :     0.016642  d :     0.181983
      dxz     :     0.030137
      dyz     :     0.041920
      dx2y2   :     0.041620
      dxy     :     0.051664

  8 C s       :     3.072805  s :     3.072805
      pz      :     0.999155  p :     3.032453
      px      :     1.009531
      py      :     1.023767
      dz2     :     0.006686  d :     0.036181
      dxz     :     0.008545
      dyz     :     0.005369
      dx2y2   :     0.007649
      dxy     :     0.007933

  9 C s       :     3.215201  s :     3.215201
      pz      :     0.910884  p :     2.722171
      px      :     0.912552
      py      :     0.898735
      dz2     :     0.004211  d :     0.035232
      dxz     :     0.008587
      dyz     :     0.004696
      dx2y2   :     0.008963
      dxy     :     0.008775

 10 C s       :     3.234214  s :     3.234214
      pz      :     0.976562  p :     2.782377
      px      :     0.823556
      py      :     0.982260
      dz2     :     0.005924  d :     0.033204
      dxz     :     0.006508
      dyz     :     0.005456
      dx2y2   :     0.008822
      dxy     :     0.006494

 11 C s       :     2.961963  s :     2.961963
      pz      :     0.964719  p :     2.654856
      px      :     0.750818
      py      :     0.939318
      dz2     :     0.012710  d :     0.083403
      dxz     :     0.019790
      dyz     :     0.007940
      dx2y2   :     0.020910
      dxy     :     0.022053

 12 C s       :     3.234506  s :     3.234506
      pz      :     0.925203  p :     2.777489
      px      :     0.940324
      py      :     0.911963
      dz2     :     0.004119  d :     0.033202
      dxz     :     0.008329
      dyz     :     0.004188
      dx2y2   :     0.008187
      dxy     :     0.008378

 13 C s       :     3.228212  s :     3.228212
      pz      :     0.933629  p :     2.719009
      px      :     0.830361
      py      :     0.955020
      dz2     :     0.005780  d :     0.035422
      dxz     :     0.008148
      dyz     :     0.004876
      dx2y2   :     0.008132
      dxy     :     0.008487

 14 F s       :     3.887506  s :     3.887506
      pz      :     1.873686  p :     5.297299
      px      :     1.585950
      py      :     1.837663
      dz2     :     0.001068  d :     0.008233
      dxz     :     0.001953
      dyz     :     0.000497
      dx2y2   :     0.002229
      dxy     :     0.002487

 15 C s       :     3.072904  s :     3.072904
      pz      :     0.990123  p :     3.032701
      px      :     1.022824
      py      :     1.019754
      dz2     :     0.008489  d :     0.036182
      dxz     :     0.007354
      dyz     :     0.008790
      dx2y2   :     0.005117
      dxy     :     0.006432

 16 C s       :     3.228298  s :     3.228298
      pz      :     0.923871  p :     2.718928
      px      :     0.928493
      py      :     0.866564
      dz2     :     0.007335  d :     0.035422
      dxz     :     0.006853
      dyz     :     0.008701
      dx2y2   :     0.006773
      dxy     :     0.005760

 17 C s       :     3.234438  s :     3.234438
      pz      :     0.867975  p :     2.777479
      px      :     0.941496
      py      :     0.968009
      dz2     :     0.005753  d :     0.033202
      dxz     :     0.006713
      dyz     :     0.007059
      dx2y2   :     0.007717
      dxy     :     0.005959

 18 C s       :     2.961998  s :     2.961998
      pz      :     0.957533  p :     2.654863
      px      :     0.825920
      py      :     0.871411
      dz2     :     0.015587  d :     0.083404
      dxz     :     0.014902
      dyz     :     0.016273
      dx2y2   :     0.017375
      dxy     :     0.019268

 19 C s       :     3.234177  s :     3.234177
      pz      :     0.945084  p :     2.782352
      px      :     0.968300
      py      :     0.868968
      dz2     :     0.007672  d :     0.033204
      dxz     :     0.007155
      dyz     :     0.006685
      dx2y2   :     0.006032
      dxy     :     0.005659

 20 C s       :     3.215137  s :     3.215137
      pz      :     0.882224  p :     2.722036
      px      :     0.906963
      py      :     0.932849
      dz2     :     0.006606  d :     0.035232
      dxz     :     0.006370
      dyz     :     0.007398
      dx2y2   :     0.007664
      dxy     :     0.007193

 21 F s       :     3.887507  s :     3.887507
      pz      :     1.871219  p :     5.297304
      px      :     1.683376
      py      :     1.742709
      dz2     :     0.001047  d :     0.008233
      dxz     :     0.001394
      dyz     :     0.001179
      dx2y2   :     0.001802
      dxy     :     0.002812

 22 H s       :     0.986166  s :     0.986166
      pz      :     0.004688  p :     0.023230
      px      :     0.009383
      py      :     0.009159

 23 H s       :     0.985431  s :     0.985431
      pz      :     0.011313  p :     0.023080
      px      :     0.007824
      py      :     0.003943

 24 H s       :     0.976810  s :     0.976810
      pz      :     0.004922  p :     0.023649
      px      :     0.009602
      py      :     0.009125

 25 H s       :     0.988483  s :     0.988483
      pz      :     0.011410  p :     0.023183
      px      :     0.007818
      py      :     0.003955

 26 H s       :     0.985434  s :     0.985434
      pz      :     0.009572  p :     0.023080
      px      :     0.003392
      py      :     0.010116

 27 H s       :     0.986168  s :     0.986168
      pz      :     0.006067  p :     0.023230
      px      :     0.011984
      py      :     0.005179

 28 H s       :     0.988500  s :     0.988500
      pz      :     0.009569  p :     0.023183
      px      :     0.003294
      py      :     0.010321

 29 H s       :     0.976874  s :     0.976874
      pz      :     0.006214  p :     0.023651
      px      :     0.012068
      py      :     0.005369

 30 H s       :     0.976913  s :     0.976913
      pz      :     0.007392  p :     0.023651
      px      :     0.004631
      py      :     0.011627

 31 H s       :     0.988514  s :     0.988514
      pz      :     0.012292  p :     0.023183
      px      :     0.006849
      py      :     0.004042

 32 H s       :     0.986165  s :     0.986165
      pz      :     0.007068  p :     0.023230
      px      :     0.004662
      py      :     0.011500

 33 H s       :     0.985449  s :     0.985449
      pz      :     0.012367  p :     0.023081
      px      :     0.006597
      py      :     0.004117



                     *******************************
                     * LOEWDIN POPULATION ANALYSIS *
                     *******************************

----------------------
LOEWDIN ATOMIC CHARGES
----------------------
   0 C :   -0.050580
   1 C :   -0.012978
   2 C :   -0.190285
   3 C :   -0.018215
   4 C :   -0.051298
   5 C :    0.082461
   6 F :   -0.062459
   7 P :    0.519521
   8 C :   -0.190221
   9 C :   -0.013006
  10 C :   -0.050584
  11 C :    0.082452
  12 C :   -0.051294
  13 C :   -0.018207
  14 F :   -0.062463
  15 C :   -0.190290
  16 C :   -0.018201
  17 C :   -0.051293
  18 C :    0.082459
  19 C :   -0.050582
  20 C :   -0.012973
  21 F :   -0.062464
  22 H :    0.035730
  23 H :    0.028842
  24 H :    0.030579
  25 H :    0.035034
  26 H :    0.028838
  27 H :    0.035730
  28 H :    0.035028
  29 H :    0.030566
  30 H :    0.030562
  31 H :    0.035026
  32 H :    0.035729
  33 H :    0.028838

-------------------------------
LOEWDIN REDUCED ORBITAL CHARGES
-------------------------------
  0 C s       :     2.862830  s :     2.862830
      pz      :     1.034461  p :     3.099774
      px      :     1.021624
      py      :     1.043689
      dz2     :     0.020275  d :     0.087976
      dxz     :     0.016643
      dyz     :     0.019324
      dx2y2   :     0.013311
      dxy     :     0.018423

  1 C s       :     2.865198  s :     2.865198
      pz      :     1.013482  p :     3.056108
      px      :     1.005170
      py      :     1.037455
      dz2     :     0.014406  d :     0.091672
      dxz     :     0.015544
      dyz     :     0.020421
      dx2y2   :     0.021069
      dxy     :     0.020231

  2 C s       :     2.911786  s :     2.911786
      pz      :     1.063694  p :     3.187359
      px      :     1.049776
      py      :     1.073889
      dz2     :     0.019144  d :     0.091140
      dxz     :     0.016738
      dyz     :     0.021390
      dx2y2   :     0.016788
      dxy     :     0.017081

  3 C s       :     2.864271  s :     2.864271
      pz      :     1.019018  p :     3.061669
      px      :     1.010843
      py      :     1.031808
      dz2     :     0.019681  d :     0.092276
      dxz     :     0.015830
      dyz     :     0.023518
      dx2y2   :     0.014199
      dxy     :     0.019047

  4 C s       :     2.863363  s :     2.863363
      pz      :     1.029568  p :     3.099957
      px      :     1.022688
      py      :     1.047700
      dz2     :     0.014426  d :     0.087978
      dxz     :     0.013246
      dyz     :     0.020264
      dx2y2   :     0.017754
      dxy     :     0.022288

  5 C s       :     2.847704  s :     2.847704
      pz      :     0.978385  p :     2.877987
      px      :     1.044391
      py      :     0.855212
      dz2     :     0.035683  d :     0.191848
      dxz     :     0.025766
      dyz     :     0.051178
      dx2y2   :     0.040782
      dxy     :     0.038441

  6 F s       :     3.720207  s :     3.720207
      pz      :     1.800376  p :     5.329411
      px      :     1.899350
      py      :     1.629685
      dz2     :     0.001676  d :     0.012840
      dxz     :     0.000824
      dyz     :     0.004865
      dx2y2   :     0.003418
      dxy     :     0.002057

  7 P s       :     5.230975  s :     5.230975
      pz      :     3.403715  p :     8.996994
      px      :     2.789465
      py      :     2.803814
      dz2     :     0.024480  d :     0.252510
      dxz     :     0.039394
      dyz     :     0.057470
      dx2y2   :     0.058210
      dxy     :     0.072956

  8 C s       :     2.911791  s :     2.911791
      pz      :     1.047786  p :     3.187292
      px      :     1.081782
      py      :     1.057723
      dz2     :     0.014439  d :     0.091138
      dxz     :     0.021649
      dyz     :     0.015157
      dx2y2   :     0.019840
      dxy     :     0.020053

  9 C s       :     2.865194  s :     2.865194
      pz      :     0.996287  p :     3.056141
      px      :     1.060536
      py      :     0.999318
      dz2     :     0.010182  d :     0.091671
      dxz     :     0.021962
      dyz     :     0.011441
      dx2y2   :     0.025213
      dxy     :     0.022874

 10 C s       :     2.862827  s :     2.862827
      pz      :     1.022788  p :     3.099781
      px      :     1.049972
      py      :     1.027021
      dz2     :     0.013625  d :     0.087977
      dxz     :     0.017295
      dyz     :     0.015616
      dx2y2   :     0.023402
      dxy     :     0.018039

 11 C s       :     2.847701  s :     2.847701
      pz      :     1.016281  p :     2.877999
      px      :     0.865723
      py      :     0.995995
      dz2     :     0.027758  d :     0.191848
      dxz     :     0.044668
      dyz     :     0.020092
      dx2y2   :     0.049789
      dxy     :     0.049541

 12 C s       :     2.863361  s :     2.863361
      pz      :     1.020399  p :     3.099955
      px      :     1.056459
      py      :     1.023096
      dz2     :     0.009670  d :     0.087978
      dxz     :     0.021961
      dyz     :     0.010511
      dx2y2   :     0.023274
      dxy     :     0.022561

 13 C s       :     2.864276  s :     2.864276
      pz      :     0.997324  p :     3.061656
      px      :     1.047497
      py      :     1.016834
      dz2     :     0.013505  d :     0.092275
      dxz     :     0.021054
      dyz     :     0.013610
      dx2y2   :     0.021513
      dxy     :     0.022592

 14 F s       :     3.720208  s :     3.720208
      pz      :     1.872449  p :     5.329414
      px      :     1.616500
      py      :     1.840466
      dz2     :     0.001687  d :     0.012840
      dxz     :     0.002953
      dyz     :     0.000756
      dx2y2   :     0.003503
      dxy     :     0.003942

 15 C s       :     2.911794  s :     2.911794
      pz      :     1.070099  p :     3.187360
      px      :     1.058773
      py      :     1.058489
      dz2     :     0.020776  d :     0.091136
      dxz     :     0.019423
      dyz     :     0.023597
      dx2y2   :     0.012269
      dxy     :     0.015071

 16 C s       :     2.864276  s :     2.864276
      pz      :     1.026682  p :     3.061648
      px      :     1.012956
      py      :     1.022010
      dz2     :     0.018896  d :     0.092278
      dxz     :     0.019463
      dyz     :     0.022440
      dx2y2   :     0.016168
      dxy     :     0.015311

 17 C s       :     2.863355  s :     2.863355
      pz      :     1.029685  p :     3.099960
      px      :     1.031327
      py      :     1.038948
      dz2     :     0.014857  d :     0.087978
      dxz     :     0.016901
      dyz     :     0.019972
      dx2y2   :     0.019038
      dxy     :     0.017210

 18 C s       :     2.847697  s :     2.847697
      pz      :     1.045684  p :     2.877997
      px      :     0.883826
      py      :     0.948487
      dz2     :     0.036298  d :     0.191848
      dxz     :     0.036212
      dyz     :     0.038173
      dx2y2   :     0.037729
      dxy     :     0.043435

 19 C s       :     2.862823  s :     2.862823
      pz      :     1.033677  p :     3.099783
      px      :     1.032765
      py      :     1.033341
      dz2     :     0.019888  d :     0.087977
      dxz     :     0.020055
      dyz     :     0.018239
      dx2y2   :     0.014447
      dxy     :     0.015348

 20 C s       :     2.865190  s :     2.865190
      pz      :     1.021405  p :     3.056109
      px      :     1.003322
      py      :     1.031382
      dz2     :     0.017106  d :     0.091674
      dxz     :     0.016222
      dyz     :     0.019699
      dx2y2   :     0.018612
      dxy     :     0.020034

 21 F s       :     3.720210  s :     3.720210
      pz      :     1.870928  p :     5.329414
      px      :     1.702587
      py      :     1.755899
      dz2     :     0.001631  d :     0.012841
      dxz     :     0.002180
      dyz     :     0.001791
      dx2y2   :     0.002567
      dxy     :     0.004671

 22 H s       :     0.894686  s :     0.894686
      pz      :     0.014860  p :     0.069585
      px      :     0.027851
      py      :     0.026873

 23 H s       :     0.902923  s :     0.902923
      pz      :     0.032470  p :     0.068236
      px      :     0.023513
      py      :     0.012252

 24 H s       :     0.899666  s :     0.899666
      pz      :     0.014994  p :     0.069755
      px      :     0.028031
      py      :     0.026731

 25 H s       :     0.895338  s :     0.895338
[...]
      py      :     1.022171
      dz2     :     0.010107  d :     0.087336
      dxz     :     0.022287
      dyz     :     0.010394
      dx2y2   :     0.022588
      dxy     :     0.021962

 13 C s       :     2.865526  s :     2.865526
      pz      :     1.002605  p :     3.061393
      px      :     1.047231
      py      :     1.011558
      dz2     :     0.014626  d :     0.092377
      dxz     :     0.021556
      dyz     :     0.013796
      dx2y2   :     0.021295
      dxy     :     0.021104

 14 F s       :     3.720761  s :     3.720761
      pz      :     1.864677  p :     5.330310
      px      :     1.623250
      py      :     1.842383
      dz2     :     0.001649  d :     0.012804
      dxz     :     0.003146
      dyz     :     0.000826
      dx2y2   :     0.003398
      dxy     :     0.003785

 15 C s       :     2.914966  s :     2.914966
      pz      :     1.071952  p :     3.182499
      px      :     1.052548
      py      :     1.057999
      dz2     :     0.021127  d :     0.090188
      dxz     :     0.018759
      dyz     :     0.023929
      dx2y2   :     0.011989
      dxy     :     0.014384

 16 C s       :     2.865505  s :     2.865505
      pz      :     1.032225  p :     3.061499
      px      :     1.006774
      py      :     1.022500
      dz2     :     0.019864  d :     0.092375
      dxz     :     0.019529
      dyz     :     0.022798
      dx2y2   :     0.015481
      dxy     :     0.014702

 17 C s       :     2.866005  s :     2.866005
      pz      :     1.030096  p :     3.099690
      px      :     1.030143
      py      :     1.039451
      dz2     :     0.015235  d :     0.087340
      dxz     :     0.016381
      dyz     :     0.020287
      dx2y2   :     0.018627
      dxy     :     0.016811

 18 C s       :     2.851964  s :     2.851964
      pz      :     1.039147  p :     2.873910
      px      :     0.886991
      py      :     0.947772
      dz2     :     0.036792  d :     0.189614
      dxz     :     0.035316
      dyz     :     0.039491
      dx2y2   :     0.036155
      dxy     :     0.041860

 19 C s       :     2.865869  s :     2.865869
      pz      :     1.034201  p :     3.099030
      px      :     1.030918
      py      :     1.033911
      dz2     :     0.020997  d :     0.087199
      dxz     :     0.019243
      dyz     :     0.018474
      dx2y2   :     0.013541
      dxy     :     0.014944

 20 C s       :     2.865598  s :     2.865598
      pz      :     1.023823  p :     3.058171
      px      :     0.999422
      py      :     1.034926
      dz2     :     0.018245  d :     0.092375
      dxz     :     0.015625
      dyz     :     0.020406
      dx2y2   :     0.018396
      dxy     :     0.019702

 21 F s       :     3.720791  s :     3.720791
      pz      :     1.862603  p :     5.330349
      px      :     1.712693
      py      :     1.755052
      dz2     :     0.001596  d :     0.012801
      dxz     :     0.002262
      dyz     :     0.001976
      dx2y2   :     0.002474
      dxy     :     0.004493

 22 H s       :     0.894044  s :     0.894044
      pz      :     0.013813  p :     0.068543
      px      :     0.026936
      py      :     0.027794

 23 H s       :     0.903729  s :     0.903729
      pz      :     0.033335  p :     0.067339
      px      :     0.022191
      py      :     0.011812

 24 H s       :     0.898401  s :     0.898401
      pz      :     0.013858  p :     0.069648
      px      :     0.027200
      py      :     0.028590

 25 H s       :     0.894427  s :     0.894427
      pz      :     0.033666  p :     0.068586
      px      :     0.022779
      py      :     0.012141

 26 H s       :     0.903724  s :     0.903724
      pz      :     0.028735  p :     0.067342
      px      :     0.010519
      py      :     0.028088

 27 H s       :     0.894029  s :     0.894029
      pz      :     0.017658  p :     0.068540
      px      :     0.035270
      py      :     0.015612

 28 H s       :     0.894435  s :     0.894435
      pz      :     0.029018  p :     0.068586
      px      :     0.010501
      py      :     0.029067

 29 H s       :     0.898427  s :     0.898427
      pz      :     0.017514  p :     0.069629
      px      :     0.036625
      py      :     0.015490

 30 H s       :     0.898443  s :     0.898443
      pz      :     0.020444  p :     0.069634
      px      :     0.014820
      py      :     0.034370

 31 H s       :     0.894448  s :     0.894448
      pz      :     0.036230  p :     0.068583
      px      :     0.019686
      py      :     0.012667

 32 H s       :     0.894043  s :     0.894043
      pz      :     0.020001  p :     0.068539
      px      :     0.014970
      py      :     0.033568

 33 H s       :     0.903730  s :     0.903730
      pz      :     0.036353  p :     0.067334
      px      :     0.018587
      py      :     0.012393



                      *****************************
                      * MAYER POPULATION ANALYSIS *
                      *****************************

  NA   - Mulliken gross atomic population
  ZA   - Total nuclear charge
  QA   - Mulliken gross atomic charge
  VA   - Mayer's total valence
  BVA  - Mayer's bonded valence
  FA   - Mayer's free valence

  ATOM       NA         ZA         QA         VA         BVA        FA
  0 C      6.0454     6.0000    -0.0454     3.8145     3.8145    -0.0000
  1 C      5.9731     6.0000     0.0269     3.8481     3.8481    -0.0000
  2 C      6.1607     6.0000    -0.1607     3.7859     3.7859    -0.0000
  3 C      5.9821     6.0000     0.0179     3.8538     3.8538     0.0000
  4 C      6.0405     6.0000    -0.0405     3.7914     3.7914    -0.0000
  5 C      5.7110     6.0000     0.2890     3.8937     3.8937    -0.0000
  6 F      9.1945     9.0000    -0.1945     1.1699     1.1699    -0.0000
  7 P     14.6291    15.0000     0.3709     2.9286     2.9286    -0.0000
  8 C      6.1604     6.0000    -0.1604     3.7862     3.7862    -0.0000
  9 C      5.9730     6.0000     0.0270     3.8479     3.8479    -0.0000
 10 C      6.0453     6.0000    -0.0453     3.8144     3.8144    -0.0000
 11 C      5.7111     6.0000     0.2889     3.8939     3.8939    -0.0000
 12 C      6.0404     6.0000    -0.0404     3.7911     3.7911     0.0000
 13 C      5.9823     6.0000     0.0177     3.8535     3.8535    -0.0000
 14 F      9.1946     9.0000    -0.1946     1.1698     1.1698    -0.0000
 15 C      6.1604     6.0000    -0.1604     3.7853     3.7853    -0.0000
 16 C      5.9826     6.0000     0.0174     3.8541     3.8541    -0.0000
 17 C      6.0404     6.0000    -0.0404     3.7912     3.7912    -0.0000
 18 C      5.7112     6.0000     0.2888     3.8940     3.8940    -0.0000
 19 C      6.0452     6.0000    -0.0452     3.8146     3.8146    -0.0000
 20 C      5.9731     6.0000     0.0269     3.8482     3.8482    -0.0000
 21 F      9.1947     9.0000    -0.1947     1.1697     1.1697    -0.0000
 22 H      1.0056     1.0000    -0.0056     0.9917     0.9917    -0.0000
 23 H      1.0070     1.0000    -0.0070     0.9912     0.9912     0.0000
 24 H      0.9959     1.0000     0.0041     0.9925     0.9925     0.0000
 25 H      1.0078     1.0000    -0.0078     0.9915     0.9915    -0.0000
 26 H      1.0070     1.0000    -0.0070     0.9913     0.9913     0.0000
 27 H      1.0056     1.0000    -0.0056     0.9917     0.9917    -0.0000
 28 H      1.0078     1.0000    -0.0078     0.9916     0.9916     0.0000
 29 H      0.9959     1.0000     0.0041     0.9925     0.9925    -0.0000
 30 H      0.9959     1.0000     0.0041     0.9925     0.9925    -0.0000
 31 H      1.0078     1.0000    -0.0078     0.9915     0.9915    -0.0000
 32 H      1.0056     1.0000    -0.0056     0.9917     0.9917    -0.0000
 33 H      1.0070     1.0000    -0.0070     0.9912     0.9912    -0.0000

  Mayer bond orders larger than 0.100000
B(  0-C ,  1-C ) :   1.3761 B(  0-C ,  5-C ) :   1.3544 B(  0-C , 22-H ) :   0.9894 
B(  1-C ,  2-C ) :   1.3642 B(  1-C , 23-H ) :   0.9809 B(  2-C ,  3-C ) :   1.3777 
B(  2-C ,  7-P ) :   0.9304 B(  3-C ,  4-C ) :   1.3539 B(  3-C , 24-H ) :   0.9785 
B(  4-C ,  5-C ) :   1.3568 B(  4-C , 25-H ) :   0.9899 B(  5-C ,  6-F ) :   1.0760 
B(  7-P ,  8-C ) :   0.9306 B(  7-P , 15-C ) :   0.9301 B(  8-C ,  9-C ) :   1.3640 
B(  8-C , 13-C ) :   1.3778 B(  9-C , 10-C ) :   1.3761 B(  9-C , 26-H ) :   0.9809 
B( 10-C , 11-C ) :   1.3543 B( 10-C , 27-H ) :   0.9894 B( 11-C , 12-C ) :   1.3571 
B( 11-C , 14-F ) :   1.0758 B( 12-C , 13-C ) :   1.3534 B( 12-C , 28-H ) :   0.9899 
B( 13-C , 29-H ) :   0.9787 B( 15-C , 16-C ) :   1.3782 B( 15-C , 20-C ) :   1.3637 
B( 16-C , 17-C ) :   1.3533 B( 16-C , 30-H ) :   0.9787 B( 17-C , 18-C ) :   1.3573 
B( 17-C , 31-H ) :   0.9898 B( 18-C , 19-C ) :   1.3542 B( 18-C , 21-F ) :   1.0758 
B( 19-C , 20-C ) :   1.3765 B( 19-C , 32-H ) :   0.9894 B( 20-C , 33-H ) :   0.9809 


-------
TIMINGS
-------

Total SCF time: 0 days 0 hours 0 min 17 sec 

Total time                  ....      17.481 sec
Sum of individual times     ....      17.403 sec  ( 99.6%)

SCF preparation             ....       0.131 sec  (  0.7%)
Fock matrix formation       ....      16.863 sec  ( 96.5%)
  Startup                   ....       0.020 sec  (  0.1% of F)
  Exchange formation        ....      13.129 sec  ( 77.9% of F)
  Split-RI-J                ....       1.381 sec  (  8.2% of F)
  XC integration            ....       2.262 sec  ( 13.4% of F)
    Basis function eval.    ....       0.664 sec  ( 29.4% of XC)
    Density eval.           ....       0.656 sec  ( 29.0% of XC)
    XC-Functional eval.     ....       0.048 sec  (  2.1% of XC)
    XC-Potential eval.      ....       0.533 sec  ( 23.6% of XC)
Diagonalization             ....       0.000 sec  (  0.0%)
Density matrix formation    ....       0.045 sec  (  0.3%)
Total Energy calculation    ....       0.017 sec  (  0.1%)
Population analysis         ....       0.083 sec  (  0.5%)
Orbital Transformation      ....       0.040 sec  (  0.2%)
Orbital Orthonormalization  ....       0.000 sec  (  0.0%)
DIIS solution               ....       0.048 sec  (  0.3%)
SOSCF solution              ....       0.176 sec  (  1.0%)
Finished LeanSCF after  17.5 sec

Maximum memory used throughout the entire LEANSCF-calculation: 37.6 MB


-------------------------------------------------------------------------------
                          DFT DISPERSION CORRECTION                            
                                                                               
                              DFTD3 V3.1  Rev 1                                
                          USING Becke-Johnson damping                          
-------------------------------------------------------------------------------
The B3LYP functional is recognized
Active option DFTDOPT                   ...         4   

molecular C6(AA) [au] = 17133.268105 


            DFT-D V3
 parameters
 s6 scaling factor         :     1.0000 
 a1 scaling factor         :     0.3981 
 s8 scaling factor         :     1.9889 
 a2 scaling factor         :     4.4211 
 ad hoc parameters k1-k3   :    16.0000     1.3333    -4.0000 

 Edisp/kcal,au: -54.429446564164  -0.086738835042 
 E6   /kcal   : -24.540465594 
 E8   /kcal   : -29.888980970 
 % E8         :  54.913255337 

-------------------------   ----------------
Dispersion correction           -0.086738835
-------------------------   ----------------


-------------------------   --------------------
FINAL SINGLE POINT ENERGY     -1332.677277532367
-------------------------   --------------------

                                *** OPTIMIZATION RUN DONE ***



           ************************************************************
           *        Program running with 6 parallel MPI-processes     *
           *              working on a common directory               *
           ************************************************************

------------------------------------------------------------------------------
                              ORCA PROPERTY CALCULATIONS
------------------------------------------------------------------------------

GBWName                                 ... data/geom_opt/140387/140387.gbw
Number of atoms                         ...     34
Number of basis functions               ...    372
Max core memory                         ...   1024 MB

Electric properties:
Dipole moment                           ... YES
Quadrupole moment                       ...  NO
Static polarizability (Dipole/Dipole)   ...  NO
Static polarizability (Dipole/Quad.)    ...  NO
Static polarizability (Quad./Quad.)     ...  NO
Static polarizability (Velocity)        ...  NO

Atomic electric properties:
Dipole moment                           ...  NO
Quadrupole moment                       ...  NO
Static polarizability                   ...  NO

Choice of electric origin               ... Center of mass
Position of electric origin             ...     0.000751    -0.001211     0.009201

General magnetic properties:
Magnetizability                         ...  NO

EPR properties:
g-Tensor (aka g-matrix)                 ...  NO
Zero-Field splitting spin-orbit         ...  NO
Zero-field splitting spin-spin          ...  NO
Hyperfine couplings                     ...  NO (   0 nuclei)
Quadrupole couplings                    ...  NO (   0 nuclei)
Contact density                         ...  NO (   0 nuclei)

NMR properties:
Chemical shifts                         ...  NO (   0 nuclei)
Spin-rotation constants                 ...  NO (   0 nuclei)
Spin-spin couplings                     ...  NO (   0 nuclei,    0 pairs)

Choice of magnetic origin               ... GIAO
Position of magnetic origin             ...     0.000000     0.000000     0.000000

Properties with geometric perturbations:
SCF Hessian                             ...  NO
IR spectrum                             ...  NO
VCD spectrum                            ...  NO
X-ray spectroscopy properties:
SCF XES/XAS/RIXS spectra                ...  NO


-------------
DIPOLE MOMENT
-------------

Method             : SCF
Type of density    : Electron Density
Multiplicity       :   1
Irrep              :   0
Energy             : -1332.5905386973245186 Eh
Relativity type    : 
Basis              : AO
                                X                 Y                 Z
Electronic contribution:      0.118726338      -0.337501929       2.141616849
Nuclear contribution   :     -0.123956488       0.356372399      -2.256037014
                        -----------------------------------------
Total Dipole Moment    :     -0.005230150       0.018870470      -0.114420164
                        -----------------------------------------
Magnitude (a.u.)       :      0.116083690
Magnitude (Debye)      :      0.295061292



--------------------
Rotational spectrum 
--------------------
 
Rotational constants in cm-1:             0.007385             0.007365             0.004249 
Rotational constants in MHz :           221.382052           220.783268           127.377984 

Dipole components along the rotational axes: 
x,y,z [a.u.] :     0.000687    -0.000174    -0.116082 
x,y,z [Debye]:     0.001747    -0.000443    -0.295056 

 

Dipole moment calculation done in   0.0 sec 

Maximum memory used throughout the entire PROP-calculation: 19.2 MB

--------------------------------
SUGGESTED CITATIONS FOR THIS RUN
--------------------------------

Below you find a list of papers that are relevant to this ORCA run
We neither can nor want to force you to cite these papers, but we appreciate if you do
You receive ORCA, which is the product of decades of hard work by many enthusiastic individuals, for free
The only thing we kindly ask in return is that you cite our papers,
We deeply appreciate it, if you show your appreciation for ORCA by not just citing the generic ORCA reference.

Please note that relegating all ORCA citations to the supporting information does *not* help us.
SI sections are not indexed - citations you put there will not count into any citation statistics
But we need these citations in order to attract the funding resources that allow us to do what we are doing

Therefore, if you are a happy ORCA user, please consider citing a few of the papers listed below in the main body of your paper

In addition to the list printed below, the program has created the file data/geom_opt/140387/140387.bibtex that contains the list in bibtex format
You can import this file easily into all common literature databanks and citation aid programs


List of essential papers. We consider these as the minimum necessary citations

  1. Neese,F.
     Software update: the ORCA program system, version 5.0
     WIRES Comput. Molec. Sci., 2022 12(1)e1606
     doi.org/10.1002/wcms.1606

List of papers to cite with high priority. The work reported in these papers was absolutely
necessary for this run to complete.
Our perspective: the developers of density functionals and basis sets usually get cited in chemistry papers
Good! But without the algorithms to do something with them, the functionals or basis sets would not do anything.
Hence, in our opinion, the algorithm design and method developments papers are equally worthy of getting cited

  1. Neese,F.
     An improvement of the resolution of the identity approximation for the formation of the Coulomb matrix
     J. Comp. Chem., 2003 24(14)1740-1747
     doi.org/10.1002/jcc.10318
  2. Neese,F.
     The SHARK Integral Generation and Digestion System
     J. Comp. Chem., 2022  1-16
     doi.org/10.1002/jcc.26942
  3. Grimme,S.; Antony,J.; Ehrlich,S.; Krieg,H.
     A consistent and accurate ab initio parametrization of density functional dispersion correction (DFT-D) for the 94 elements H-Pu
     J. Chem. Phys., 2010 132 154104-XXXX
     doi.org/10.1063/1.3382344
  4. Grimme,S.; Ehrlich,S.; Goerigk,L.
     Effect of the damping function in dispersion corrected density functional theory
     J. Comput. Chem., 2011 32(7)1456-1465
     doi.org/10.1002/jcc.21759

List of suggested additional citations. These are papers that are important in the 'surrounding' of 
of this run, or papers that preceded the highly important papers. If you like your results we are grateful for a citation.

  1. Neese,F.
     The ORCA program system
     WIRES Comput. Molec. Sci., 2012 2(1)73-78
     doi.org/10.1002/wcms.81
  2. Neese,F.
     Software update: the ORCA program system, version 4.0
     WIRES Comput. Molec. Sci., 2018 8(1)1-6
     doi.org/10.1002/wcms.1327
  3. Neese,F.; Wennmohs,F.; Becker,U.; Riplinger,C.
     The ORCA quantum chemistry program package
     J. Chem. Phys., 2020 152 Art. No. L224108
     doi.org/10.1063/5.0004608

List of optional additional citations

  1. Neese,F.
     Approximate second-order SCF convergence for spin unrestricted wavefunctions
     Chem. Phys. Lett., 2000 325(1-3)93-98
     doi.org/10.1016/s0009-2614(00)00662-x

Timings for individual modules:

Sum of individual times          ...      351.654 sec (=   5.861 min)
Startup calculation              ...        9.856 sec (=   0.164 min)   2.8 %
SCF iterations                   ...      230.496 sec (=   3.842 min)  65.5 %
Property calculations            ...        0.168 sec (=   0.003 min)   0.0 %
SCF Gradient evaluation          ...      111.033 sec (=   1.851 min)  31.6 %
Geometry relaxation              ...        0.101 sec (=   0.002 min)   0.0 %
                             ****ORCA TERMINATED NORMALLY****
TOTAL RUN TIME: 0 days 0 hours 5 minutes 53 seconds 4 msec
