
                                 *****************
                                 * O   R   C   A *
                                 *****************

                                            #,                                       
                                            ###                                      
                                            ####                                     
                                            #####                                    
                                            ######                                   
                                           ########,                                 
                                     ,,################,,,,,                         
                               ,,#################################,,                 
                          ,,##########################################,,             
                       ,#########################################, ''#####,          
                    ,#############################################,,   '####,        
                  ,##################################################,,,,####,       
                ,###########''''           ''''###############################       
              ,#####''   ,,,,##########,,,,          '''####'''          '####       
            ,##' ,,,,###########################,,,                        '##       
           ' ,,###''''                  '''############,,,                           
         ,,##''                                '''############,,,,        ,,,,,,###''
      ,#''                                            '''#######################'''  
     '                                                          ''''####''''         
             ,#######,   #######,   ,#######,      ##                                
            ,#'     '#,  ##    ##  ,#'     '#,    #''#        ,####,   ,####,        
            ##       ##  ##   ,#'  ##            #'  '#       #'       #'  '#        
            ##       ##  #######   ##           ,######,      #####,   #    #        
            '#,     ,#'  ##    ##  '#,     ,#' ,#      #,     #,   #   #,  ,#        
             '#######'   ##     ##  '#######'  #'      '#     '####' # '####'        



                #########################################################
                #                        -***-                          #
                #          Department of theory and spectroscopy        #
                #                                                       #
                #                      Frank Neese                      #
                #                                                       #
                #     Directorship, Architecture, Infrastructure        #
                #                    SHARK, DRIVERS                     #
                #        Core code/Algorithms in most modules           #
                #                                                       #
                #        Max Planck Institute fuer Kohlenforschung      #
                #                Kaiser Wilhelm Platz 1                 #
                #                 D-45470 Muelheim/Ruhr                 #
                #                      Germany                          #
                #                                                       #
                #                  All rights reserved                  #
                #                        -***-                          #
                #########################################################


                         Program Version 6.0.0  -   RELEASE   -


 With contributions from (in alphabetic order):
   Daniel Aravena         : Magnetic Suceptibility
   Michael Atanasov       : Ab Initio Ligand Field Theory (pilot matlab implementation)
   Alexander A. Auer      : GIAO ZORA, VPT2 properties, NMR spectrum
   Ute Becker             : All parallelization in ORCA, NUMFREQ, NUMCALC
   Giovanni Bistoni       : ED, misc. LED, open-shell LED, HFLD
   Martin Brehm           : Molecular dynamics
   Dmytro Bykov           : pre 5.0 version of the SCF Hessian
   Marcos Casanova-Páez   : Triplet and SCS-CIS(D). UHF-(DLPNO)-IP/EA/STEOM-CCSD. UHF-CVS-IP/STEOM-CCSD
   Vijay G. Chilkuri      : MRCI spin determinant printing, contributions to CSF-ICE
   Pauline Colinet        : FMM embedding
   Dipayan Datta          : RHF DLPNO-CCSD density
   Achintya Kumar Dutta   : EOM-CC, STEOM-CC
   Nicolas Foglia         : Exact transition moments, OPA infrastructure, MCD improvements
   Dmitry Ganyushin       : Spin-Orbit,Spin-Spin,Magnetic field MRCI
   Miquel Garcia          : C-PCM and meta-GGA Hessian, CCSD/C-PCM, Gaussian charge scheme
   Tiago L. C. Gouveia    : GS-ROHF, GS-ROCIS
   Yang Guo               : DLPNO-NEVPT2, F12-NEVPT2, CIM, IAO-localization
   Andreas Hansen         : Spin unrestricted coupled pair/coupled cluster methods
   Ingolf Harden          : AUTO-CI MPn and infrastructure 
   Benjamin Helmich-Paris : MC-RPA, TRAH-(SCF,CASSCF), AVAS, COSX integrals, SCF dyn. polar.
   Lee Huntington         : MR-EOM, pCC
   Robert Izsak           : Overlap fitted RIJCOSX, COSX-SCS-MP3, EOM
   Riya Kayal             : Wick's Theorem for AUTO-CI, AUTO-CI UHF-CCSDT
   Emily Kempfer          : AUTO-CI, RHF CISDT and CCSDT
   Christian Kollmar      : KDIIS, OOCD, Brueckner-CCSD(T), CCSD density, CASPT2, CASPT2-K, improved NEVPT2
   Axel Koslowski         : Symmetry handling
   Simone Kossmann        : Meta GGA functionals, TD-DFT gradient, OOMP2, (MP2 Hessian; deprecated post 5.0)
   Lucas Lang             : DCDCAS
   Marvin Lechner         : AUTO-CI (C++ implementation), FIC-MRCC
   Spencer Leger          : CASSCF response
   Dagmar Lenk            : GEPOL surface, SMD, ORCA-2-JSON
   Dimitrios Liakos       : Extrapolation schemes; Compound Job, initial MDCI parallelization
   Dimitrios Manganas     : Further ROCIS development; embedding schemes. LFT, Crystal Embedding
   Dimitrios Pantazis     : SARC Basis sets
   Anastasios Papadopoulos: AUTO-CI, single reference methods and gradients
   Taras Petrenko         : pre 6.0 DFT Hessian and TD-DFT gradient, (ASA, deprecated), ECA, 1-Electron XAS/XES, NRVS
   Peter Pinski           : DLPNO-MP2, DLPNO-MP2 Gradient
   Christoph Reimann      : Effective Core Potentials
   Marius Retegan         : Local ZFS, SOC
   Christoph Riplinger    : Optimizer, TS searches, QM/MM, DLPNO-CCSD(T), (RO)-DLPNO pert. Triples
   Michael Roemelt        : Original ROCIS implementation
   Masaaki Saitow         : Open-shell DLPNO-CCSD energy and density
   Barbara Sandhoefer     : DKH picture change effects
   Kantharuban Sivalingam : CASSCF convergence/infrastructure, NEVPT2 and variants, FIC-MRCI
   Bernardo de Souza      : ESD, SOC TD-DFT
   Georgi Stoychev        : AutoAux, RI-MP2 NMR, DLPNO-MP2 response, X2C
   Van Anh Tran           : RI-MP2 g-tensors
   Willem Van den Heuvel  : Paramagnetic NMR
   Zikuan Wang            : NOTCH, Electric field optimization 
   Frank Wennmohs         : Technical directorship and infrastructure
   Hang Xu                : AUTO-CI-Response properties 


 We gratefully acknowledge several colleagues who have allowed us to
 interface, adapt or use parts of their codes:
   Stefan Grimme, W. Hujo, H. Kruse, P. Pracht,  : VdW corrections, initial TS optimization,
                  C. Bannwarth, S. Ehlert,         DFT functionals, gCP, sTDA/sTD-DF
                  L. Wittmann, M. Mueller
   Ed Valeev, F. Pavosevic, A. Kumar             : LibInt (2-el integral package), F12 methods
   Garnet Chan, S. Sharma, J. Yang, R. Olivares  : DMRG
   Ulf Ekstrom                                   : XCFun DFT Library
   Mihaly Kallay                                 : mrcc  (arbitrary order and MRCC methods)
   Frank Weinhold                                : gennbo (NPA and NBO analysis)
   Simon Mueller                                 : openCOSMO-RS
   Christopher J. Cramer and Donald G. Truhlar   : smd solvation model
   Lars Goerigk                                  : TD-DFT with DH, B97 family of functionals
   V. Asgeirsson, H. Jonsson                     : NEB implementation
   FAccTs GmbH                                   : IRC, NEB, NEB-TS, DLPNO-Multilevel, CI-OPT
                                                   MM, QMMM, 2- and 3-layer-ONIOM, Crystal-QMMM,
                                                   LR-CPCM, SF, NACMEs, symmetry and pop. for TD-DFT,
                                                   nearIR, NL-DFT gradient (VV10), updates on ESD,
                                                   ML-optimized integration grids, MBIS, APM,
                                                   GOAT, DOCKER, SOLVATOR, interface openCOSMO-RS
   S Lehtola, MJT Oliveira, MAL Marques          : LibXC Library
   Liviu Ungur et al                             : ANISO software


 Your calculation uses the libint2 library for the computation of 2-el integrals
 For citations please refer to: http://libint.valeyev.net

 Your ORCA version has been built with support for libXC version: 6.2.2
 For citations please refer to: https://libxc.gitlab.io

 This ORCA versions uses:
   CBLAS   interface :  Fast vector & matrix operations
   LAPACKE interface :  Fast linear algebra routines
   Shared memory     :  Shared parallel matrices


Your calculation utilizes the atom-pairwise dispersion correction
with the zero-damping scheme (D30)


XCFun DFT library Copyright 2009-2010 Ulf Ekstrom and contributors.
See http://admol.org/xcfun for more information.
This is free software; see the source code for copying conditions.
There is ABSOLUTELY NO WARRANTY; not even for MERCHANTABILITY or FITNESS FOR A PARTICULAR PURPOSE.
For details see the documentation.
Scientific users of this library should cite U. Ekstrom, L. Visscher, R. Bast, A. J. Thorvaldsen and K. Ruud;
J.Chem.Theor.Comp. 2010, DOI: 10.1021/ct100117s
XCFun Version 0.99 

Warning: RI is on but no J-basis has been assigned. Assigning Def2/J (nothing to worry about!)
================================================================================

----- Orbital basis set information -----
Your calculation utilizes the basis: def2-TZVP
   F. Weigend and R. Ahlrichs, Phys. Chem. Chem. Phys. 7, 3297 (2005).

----- AuxJ basis set information -----
Your calculation utilizes the auxiliary basis: def2/J
   F. Weigend, Phys. Chem. Chem. Phys. 8, 1057 (2006).

================================================================================
                                        WARNINGS
                       Please study these warnings very carefully!
================================================================================

WARNING: Functional chosen is sensitive to the integration grid.
         DEFGRID3 seems to be a minimum grid for robust results!

================================================================================
                                       INPUT FILE
================================================================================
NAME = data/single_point_PO_M06-2x/27365/27365.inp
|  1> ! RIJCOSX M062X def2-TZVP D3ZERO NormalSCF
|  2> %pal
|  3> nprocs 6
|  4> end
|  5> 
|  6> * xyz 0 1
|  7>   C           2.56754840039165      0.21494075794150      0.93572351975023
|  8>   C           1.68340554951116      0.48886975949881     -0.28582989930104
|  9>   P          -0.08933917590612      0.09624859871035      0.06358622043490
| 10>   O          -0.56564485306908      0.61293205097754      1.41293640039653
| 11>   C          -0.22765638488837     -1.73977693808398     -0.10579337317083
| 12>   C          -1.57187472750013     -2.25085124497012      0.42432711564811
| 13>   C          -1.03753904249725      0.79361503127659     -1.36203368450323
| 14>   C          -1.24058039052870      2.30543887519242     -1.21330062800751
| 15>   H           2.14879765163942      0.72432864210024      1.82603236829654
| 16>   H           3.60326266333855      0.57493194954567      0.77289369175166
| 17>   H           2.62272679115444     -0.86845923906602      1.16799763014579
| 18>   H           1.71431445275987      1.56651693440851     -0.55409143084716
| 19>   H           2.01082584555461     -0.07818665774481     -1.18434233937620
| 20>   H           0.61061824668898     -2.16832987820178      0.48410537174217
| 21>   H          -0.05341186664097     -2.02179782770722     -1.16705990067252
| 22>   H          -2.41872375123938     -1.90899113028730     -0.20550650580175
| 23>   H          -1.74363753457293     -1.86601768157353      1.44895831080683
| 24>   H          -1.60019106027538     -3.35870763896651      0.44997986682570
| 25>   H          -0.52142972406898      0.52413498358211     -2.30920341454559
| 26>   H          -2.01678805799991      0.26888118288909     -1.36659695441672
| 27>   H          -1.67186133104532      2.53202291443229     -0.21825182343459
| 28>   H          -1.92060287311335      2.69981597375545     -1.99487824193306
| 29>   H          -0.28221882769280      2.85843958229071     -1.29413129978826
| 30> **                         ****END OF INPUT****
================================================================================

                       ****************************
                       * Single Point Calculation *
                       ****************************

---------------------------------
CARTESIAN COORDINATES (ANGSTROEM)
---------------------------------
  C      2.567548    0.214941    0.935724
  C      1.683406    0.488870   -0.285830
  P     -0.089339    0.096249    0.063586
  O     -0.565645    0.612932    1.412936
  C     -0.227656   -1.739777   -0.105793
  C     -1.571875   -2.250851    0.424327
  C     -1.037539    0.793615   -1.362034
  C     -1.240580    2.305439   -1.213301
  H      2.148798    0.724329    1.826032
  H      3.603263    0.574932    0.772894
  H      2.622727   -0.868459    1.167998
  H      1.714314    1.566517   -0.554091
  H      2.010826   -0.078187   -1.184342
  H      0.610618   -2.168330    0.484105
  H     -0.053412   -2.021798   -1.167060
  H     -2.418724   -1.908991   -0.205507
  H     -1.743638   -1.866018    1.448958
  H     -1.600191   -3.358708    0.449980
  H     -0.521430    0.524135   -2.309203
  H     -2.016788    0.268881   -1.366597
  H     -1.671861    2.532023   -0.218252
  H     -1.920603    2.699816   -1.994878
  H     -0.282219    2.858440   -1.294131

----------------------------
CARTESIAN COORDINATES (A.U.)
----------------------------
  NO LB      ZA    FRAG     MASS         X           Y           Z
   0 C     6.0000    0    12.011    4.851963    0.406179    1.768261
   1 C     6.0000    0    12.011    3.181175    0.923830   -0.540140
   2 P    15.0000    0    30.974   -0.168827    0.181883    0.120161
   3 O     8.0000    0    15.999   -1.068914    1.158274    2.670063
   4 C     6.0000    0    12.011   -0.430208   -3.287702   -0.199921
   5 C     6.0000    0    12.011   -2.970413   -4.253492    0.801862
   6 C     6.0000    0    12.011   -1.960665    1.499715   -2.573871
   7 C     6.0000    0    12.011   -2.344357    4.356648   -2.292806
   8 H     1.0000    0     1.008    4.060639    1.368783    3.450701
   9 H     1.0000    0     1.008    6.809180    1.086464    1.460557
  10 H     1.0000    0     1.008    4.956235   -1.641150    2.207196
  11 H     1.0000    0     1.008    3.239585    2.960288   -1.047081
  12 H     1.0000    0     1.008    3.799910   -0.147751   -2.238083
  13 H     1.0000    0     1.008    1.153901   -4.097550    0.914827
  14 H     1.0000    0     1.008   -0.100934   -3.820644   -2.205424
  15 H     1.0000    0     1.008   -4.570725   -3.607470   -0.388351
  16 H     1.0000    0     1.008   -3.294997   -3.526262    2.738134
  17 H     1.0000    0     1.008   -3.023923   -6.347038    0.850339
  18 H     1.0000    0     1.008   -0.985359    0.990472   -4.363762
  19 H     1.0000    0     1.008   -3.811177    0.508112   -2.582494
  20 H     1.0000    0     1.008   -3.159360    4.784830   -0.412436
  21 H     1.0000    0     1.008   -3.629413    5.101913   -3.769774
  22 H     1.0000    0     1.008   -0.533316    5.401668   -2.445554

--------------------------------
INTERNAL COORDINATES (ANGSTROEM)
--------------------------------
 C      0   0   0     0.000000000000     0.00000000     0.00000000
 C      1   0   0     1.532624687995     0.00000000     0.00000000
 P      2   1   0     1.849017810116   111.37769111     0.00000000
 O      3   2   1     1.521372668384   113.30676095    44.51475655
 C      3   2   1     1.849002668682   105.38237519   280.13564001
 C      5   3   2     1.532692934817   111.40952522   168.68284026
 C      3   2   1     1.848727952304   105.42125030   168.93711292
 C      7   3   2     1.532631281861   111.42027851   280.34926044
 H      1   2   3     1.107916085229   109.89343646   308.12820199
 H      1   2   3     1.108517589121   111.33835344   187.54097201
 H      1   2   3     1.109392388059   111.72254876    67.27699445
 H      2   1   3     1.110964915377   110.47382441   117.71927822
 H      2   1   3     1.111792082886   112.52490303   237.16397514
 H      5   3   2     1.111009680282   106.13754378    48.40360939
 H      5   3   2     1.111837927361   109.12246792   293.52856440
 H      6   5   3     1.109374597567   111.73825350    67.41847625
 H      6   5   3     1.107911738137   109.87816828   308.26014364
 H      6   5   3     1.108515073449   111.32500154   187.69830813
 H      7   3   2     1.111808806487   109.11264822    45.21536205
 H      7   3   2     1.110988330019   106.08596881   160.09143189
 H      8   7   3     1.107910510814   109.90534558   308.10184622
 H      8   7   3     1.108524893397   111.33278584   187.52469801
 H      8   7   3     1.109414379154   111.72689299    67.27749022

---------------------------
INTERNAL COORDINATES (A.U.)
---------------------------
 C      0   0   0     0.000000000000     0.00000000     0.00000000
 C      1   0   0     2.896240926398     0.00000000     0.00000000
 P      2   1   0     3.494137277861   111.37769111     0.00000000
 O      3   2   1     2.874977690879   113.30676095    44.51475655
 C      3   2   1     3.494108664698   105.38237519   280.13564001
 C      5   3   2     2.896369894201   111.40952522   168.68284026
 C      3   2   1     3.493589525979   105.42125030   168.93711292
 C      7   3   2     2.896253386997   111.42027851   280.34926044
 H      1   2   3     2.093657980448   109.89343646   308.12820199
 H      1   2   3     2.094794658073   111.33835344   187.54097201
 H      1   2   3     2.096447788488   111.72254876    67.27699445
 H      2   1   3     2.099419434457   110.47382441   117.71927822
 H      2   1   3     2.100982554517   112.52490303   237.16397514
 H      5   3   2     2.099504027868   106.13754378    48.40360939
 H      5   3   2     2.101069188019   109.12246792   293.52856440
 H      6   5   3     2.096414169331   111.73825350    67.41847625
 H      6   5   3     2.093649765636   109.87816828   308.26014364
 H      6   5   3     2.094789904142   111.32500154   187.69830813
 H      7   3   2     2.101014157543   109.11264822    45.21536205
 H      7   3   2     2.099463681719   106.08596881   160.09143189
 H      8   7   3     2.093647446332   109.90534558   308.10184622
 H      8   7   3     2.094808461155   111.33278584   187.52469801
 H      8   7   3     2.096489345635   111.72689299    67.27749022

---------------------
BASIS SET INFORMATION
---------------------
There are 4 groups of distinct atoms

 Group   1 Type C   : 11s6p2d1f contracted to 5s3p2d1f pattern {62111/411/11/1}
 Group   2 Type P   : 14s9p3d1f contracted to 5s5p2d1f pattern {73211/51111/21/1}
 Group   3 Type O   : 11s6p2d1f contracted to 5s3p2d1f pattern {62111/411/11/1}
 Group   4 Type H   : 5s1p contracted to 3s1p pattern {311/1}

Atom   0C    basis set group =>   1
Atom   1C    basis set group =>   1
Atom   2P    basis set group =>   2
Atom   3O    basis set group =>   3
Atom   4C    basis set group =>   1
Atom   5C    basis set group =>   1
Atom   6C    basis set group =>   1
Atom   7C    basis set group =>   1
Atom   8H    basis set group =>   4
Atom   9H    basis set group =>   4
Atom  10H    basis set group =>   4
Atom  11H    basis set group =>   4
Atom  12H    basis set group =>   4
Atom  13H    basis set group =>   4
Atom  14H    basis set group =>   4
Atom  15H    basis set group =>   4
Atom  16H    basis set group =>   4
Atom  17H    basis set group =>   4
Atom  18H    basis set group =>   4
Atom  19H    basis set group =>   4
Atom  20H    basis set group =>   4
Atom  21H    basis set group =>   4
Atom  22H    basis set group =>   4
---------------------------------
AUXILIARY/J BASIS SET INFORMATION
---------------------------------
There are 4 groups of distinct atoms

 Group   1 Type C   : 12s5p4d2f1g contracted to 6s4p3d1f1g pattern {711111/2111/211/2/1}
 Group   2 Type P   : 14s5p5d2f1g contracted to 8s4p3d1f1g pattern {71111111/2111/311/2/1}
 Group   3 Type O   : 12s5p4d2f1g contracted to 6s4p3d1f1g pattern {711111/2111/211/2/1}
 Group   4 Type H   : 5s2p1d contracted to 3s1p1d pattern {311/2/1}

Atom   0C    basis set group =>   1
Atom   1C    basis set group =>   1
Atom   2P    basis set group =>   2
Atom   3O    basis set group =>   3
Atom   4C    basis set group =>   1
Atom   5C    basis set group =>   1
Atom   6C    basis set group =>   1
Atom   7C    basis set group =>   1
Atom   8H    basis set group =>   4
Atom   9H    basis set group =>   4
Atom  10H    basis set group =>   4
Atom  11H    basis set group =>   4
Atom  12H    basis set group =>   4
Atom  13H    basis set group =>   4
Atom  14H    basis set group =>   4
Atom  15H    basis set group =>   4
Atom  16H    basis set group =>   4
Atom  17H    basis set group =>   4
Atom  18H    basis set group =>   4
Atom  19H    basis set group =>   4
Atom  20H    basis set group =>   4
Atom  21H    basis set group =>   4
Atom  22H    basis set group =>   4


           ************************************************************
           *        Program running with 6 parallel MPI-processes     *
           *              working on a common directory               *
           ************************************************************
------------------------------------------------------------------------------
                             ORCA STARTUP CALCULATIONS
                           -- RI-GTO INTEGRALS CHOSEN --
------------------------------------------------------------------------------
------------------------------------------------------------------------------
                   ___                                                        
                  /   \      - P O W E R E D   B Y -                         
                 /     \                                                     
                 |  |  |   _    _      __       _____    __    __             
                 |  |  |  | |  | |    /  \     |  _  \  |  |  /  |          
                  \  \/   | |  | |   /    \    | | | |  |  | /  /          
                 / \  \   | |__| |  /  /\  \   | |_| |  |  |/  /          
                |  |  |   |  __  | /  /__\  \  |    /   |      \           
                |  |  |   | |  | | |   __   |  |    \   |  |\   \          
                \     /   | |  | | |  |  |  |  | |\  \  |  | \   \       
                 \___/    |_|  |_| |__|  |__|  |_| \__\ |__|  \__/        
                                                                              
                      - O R C A' S   B I G   F R I E N D -                    
                                      &                                       
                       - I N T E G R A L  F E E D E R -                       
                                                                              
 v1 FN, 2020, v2 2021, v3 2022-2024                                           
------------------------------------------------------------------------------


----------------------
SHARK INTEGRAL PACKAGE
----------------------

Number of atoms                             ...     23
Number of basis functions                   ...    344
Number of shells                            ...    150
Maximum angular momentum                    ...      3
Integral batch strategy                     ... SHARK/LIBINT Hybrid
RI-J (if used) integral strategy            ... SPLIT-RIJ (Revised 2003 algorithm where possible)
Printlevel                                  ...      1
Contraction scheme used                     ... SEGMENTED contraction
Prescreening option                         ... SCHWARTZ
   Thresh                                   ... 1.000e-10
   Tcut                                     ... 1.000e-11
   Tpresel                                  ... 1.000e-11 
Coulomb Range Separation                    ... NOT USED
Exchange Range Separation                   ... NOT USED
Multipole approximations                    ... NOT USED
Finite Nucleus Model                        ... NOT USED
CABS basis                                  ... NOT available
Auxiliary Coulomb fitting basis             ... AVAILABLE
   # of basis functions in Aux-J            ...    559
   # of shells in Aux-J                     ...    197
   Maximum angular momentum in Aux-J        ...      4
Auxiliary J/K fitting basis                 ... NOT available
Auxiliary Correlation fitting basis         ... NOT available
Auxiliary 'external' fitting basis          ... NOT available

Checking pre-screening integrals            ... done (  0.0 sec) Dimension = 150
Check shell pair data                       ... done (  0.0 sec)
Shell pair information
Shell pair cut-off parameter TPreSel        ...   1.0e-11
Total number of shell pairs                 ...     11325
Shell pairs after pre-screening             ...      9942
Total number of primitive shell pairs       ...     33388
Primitive shell pairs kept                  ...     21384
          la=0 lb=0:   3121 shell pairs
          la=1 lb=0:   3043 shell pairs
          la=1 lb=1:    765 shell pairs
          la=2 lb=0:   1223 shell pairs
          la=2 lb=1:    605 shell pairs
          la=2 lb=2:    130 shell pairs
          la=3 lb=0:    599 shell pairs
          la=3 lb=1:    298 shell pairs
          la=3 lb=2:    122 shell pairs
          la=3 lb=3:     36 shell pairs

Calculating one electron integrals          ... done (  0.0 sec)
Calculating RI/J V-Matrix + Cholesky decomp.... done (  0.0 sec)
Calculating Nuclear repulsion               ... done (  0.0 sec) ENN=    505.463339641637 Eh

Diagonalization of the overlap matrix:
Smallest eigenvalue                        ... 2.717e-04
Time for diagonalization                   ...    0.014 sec
Threshold for overlap eigenvalues          ... 1.000e-07
Number of eigenvalues below threshold      ... 0
Time for construction of square roots      ...    0.008 sec
Total time needed                          ...    0.023 sec

-------------------
DFT GRID GENERATION
-------------------

General Integration Accuracy     IntAcc      ... 4.388
Radial Grid Type                 RadialGrid  ... OptM3 with GC (2021)
Angular Grid (max. ang.)         AngularGrid ... 4 (Lebedev-302)
Angular grid pruning method      GridPruning ... 4 (adaptive)
Weight generation scheme         WeightScheme... mBecke (2022)
Basis function cutoff            BFCut       ... 1.0000e-10
Integration weight cutoff        WCut        ... 1.0000e-14
Partially contracted basis set               ... off
Rotationally invariant grid construction     ... off
Angular grids for H and He will be reduced by one unit

Total number of grid points                  ...    97374
Total number of batches                      ...     1532
Average number of points per batch           ...       63
Average number of grid points per atom       ...     4234

--------------------
COSX GRID GENERATION
--------------------

GRIDX 1
-------
General Integration Accuracy     IntAcc      ... 3.816
Radial Grid Type                 RadialGrid  ... OptM3 with GC (2021)
Angular Grid (max. ang.)         AngularGrid ... 1 (Lebedev-50)
Angular grid pruning method      GridPruning ... 4 (adaptive)
Weight generation scheme         WeightScheme... mBecke (2022)
Basis function cutoff            BFCut       ... 1.0000e-10
Integration weight cutoff        WCut        ... 1.0000e-14
Partially contracted basis set               ... on
Rotationally invariant grid construction     ... off
Angular grids for H and He will be reduced by one unit

Total number of grid points                  ...    13485
Total number of batches                      ...      119
Average number of points per batch           ...      113
Average number of grid points per atom       ...      586
UseSFitting                                  ... on

GRIDX 2
-------
General Integration Accuracy     IntAcc      ... 4.020
Radial Grid Type                 RadialGrid  ... OptM3 with GC (2021)
Angular Grid (max. ang.)         AngularGrid ... 2 (Lebedev-110)
Angular grid pruning method      GridPruning ... 4 (adaptive)
Weight generation scheme         WeightScheme... mBecke (2022)
Basis function cutoff            BFCut       ... 1.0000e-10
Integration weight cutoff        WCut        ... 1.0000e-14
Partially contracted basis set               ... on
Rotationally invariant grid construction     ... off
Angular grids for H and He will be reduced by one unit

Total number of grid points                  ...    25735
Total number of batches                      ...      213
Average number of points per batch           ...      120
Average number of grid points per atom       ...     1119
UseSFitting                                  ... on

GRIDX 3
-------
General Integration Accuracy     IntAcc      ... 4.338
Radial Grid Type                 RadialGrid  ... OptM3 with GC (2021)
Angular Grid (max. ang.)         AngularGrid ... 3 (Lebedev-194)
Angular grid pruning method      GridPruning ... 4 (adaptive)
Weight generation scheme         WeightScheme... mBecke (2022)
Basis function cutoff            BFCut       ... 1.0000e-10
Integration weight cutoff        WCut        ... 1.0000e-14
Partially contracted basis set               ... on
Rotationally invariant grid construction     ... off
Angular grids for H and He will be reduced by one unit

Total number of grid points                  ...    56529
Total number of batches                      ...      452
Average number of points per batch           ...      125
Average number of grid points per atom       ...     2458
UseSFitting                                  ... on
Initializing property integral containers    ... done (  0.0 sec)

SHARK setup successfully completed in   1.3 seconds

Maximum memory used throughout the entire STARTUP-calculation: 34.4 MB


           ************************************************************
           *        Program running with 6 parallel MPI-processes     *
           *              working on a common directory               *
           ************************************************************
-------------------------------------------------------------------------------
                                 ORCA GUESS
                   Start orbitals & Density for SCF / CASSCF
-------------------------------------------------------------------------------

------------
SCF SETTINGS
------------
Hamiltonian:
 Density Functional     Method          .... DFT(GTOs)
 Exchange Functional    Exchange        .... M062X
 Correlation Functional Correlation     .... M062X
 Gradients option       PostSCFGGA      .... off
 Hybrid DFT is turned on
   Fraction HF Exchange ScalHFX         ....  0.540000
   Scaling of DF-GGA-X  ScalDFX         ....  0.460000
   Scaling of DF-GGA-C  ScalDFC         ....  1.000000
   Scaling of DF-LDA-C  ScalLDAC        ....  1.000000
   Perturbative correction              ....  0.000000
 RI-approximation to the Coulomb term is turned on
   Number of AuxJ basis functions       .... 559
   RIJ-COSX (HFX calculated with COS-X)).... on


General Settings:
 Integral files         IntName         .... data/single_point_PO_M06-2x/27365/27365
 Hartree-Fock type      HFTyp           .... RHF
 Total Charge           Charge          ....    0
 Multiplicity           Mult            ....    1
 Number of Electrons    NEL             ....   74
 Basis Dimension        Dim             ....  344
 Nuclear Repulsion      ENuc            ....    505.4633396416 Eh

Convergence Acceleration:
 AO-DIIS                CNVDIIS         .... on
   Start iteration      DIISMaxIt       ....    12
   Startup error        DIISStart       ....  0.200000
   # of expansion vecs  DIISMaxEq       ....     5
   Bias factor          DIISBfac        ....   1.050
   Max. coefficient     DIISMaxC        ....  10.000
 MO-DIIS                CNVKDIIS        .... off
 Trust-Rad. Augm. Hess. CNVTRAH         .... auto
   Auto Start mean grad. ratio tolernc. ....  1.125000
   Auto Start start iteration           ....    50
   Auto Start num. interpolation iter.  ....    10
   Max. Number of Micro iterations      ....    24
   Max. Number of Macro iterations      .... Maxiter - #DIIS iter
   Number of Davidson start vectors     ....     2
   Converg. threshold    (grad. norm)   ....   5.000e-05
   Grad. Scal. Fac. for Micro threshold ....   0.100
   Minimum threshold for Micro iter.    ....   1.000e-02
   NR start threshold (gradient norm)   ....   1.000e-04
   Initial trust radius                 ....   0.400
   Minimum AH scaling param. (alpha)    ....   1.000
   Maximum AH scaling param. (alpha)    .... 1000.000
   Quad. conv. algorithm                .... NR
   White noise on init. David. guess    .... on
   Maximum white noise                  ....   0.010
   Pseudo random numbers                .... off
   Inactive MOs                         .... canonical
   Orbital update algorithm             .... Taylor
   Preconditioner                       .... Diag
   Full preconditioner red. dimension   ....   250
 SOSCF                  CNVSOSCF        .... on
   Start iteration      SOSCFMaxIt      ....   150
   Startup grad/error   SOSCFStart      ....  0.003300
   Hessian update       SOSCFHessUp     .... L-BFGS
 Level Shifting         CNVShift        .... on
   Level shift para.    LevelShift      ....    0.2500
   Turn off err/grad.   ShiftErr        ....    0.0010
 Zerner damping         CNVZerner       .... off
 Static damping         CNVDamp         .... on
   Fraction old density DampFac         ....    0.7000
   Max. Damping (<1)    DampMax         ....    0.9800
   Min. Damping (>=0)   DampMin         ....    0.0000
   Turn off err/grad.   DampErr         ....    0.1000

SCF Procedure:
 Maximum # iterations   MaxIter         ....   125
 SCF integral mode      SCFMode         .... Direct
   Integral package                     .... SHARK and LIBINT hybrid scheme
 Reset frequency        DirectResetFreq ....    20
 Integral Threshold     Thresh          ....  1.000e-10 Eh
 Primitive CutOff       TCut            ....  1.000e-11 Eh

Convergence Tolerance:
 Convergence Check Mode ConvCheckMode   .... Total+1el-Energy
 Convergence forced     ConvForced      .... 0
 Energy Change          TolE            ....  1.000e-06 Eh
 1-El. energy change                    ....  1.000e-03 Eh
 Orbital Gradient       TolG            ....  5.000e-05
 Orbital Rotation angle TolX            ....  5.000e-05
 DIIS Error             TolErr          ....  1.000e-05

------------------------------
INITIAL GUESS: MODEL POTENTIAL
------------------------------
Loading Hartree-Fock densities                     ... done
Calculating cut-offs                               ... done
Initializing the effective Hamiltonian             ... done
Setting up the integral package (SHARK)            ... done
Starting the Coulomb interaction                   ... done (   0.1 sec)
Making the grid                                    ... done (   0.1 sec)
Mapping shells                                     ... done
Starting the XC term evaluation                    ... done (   0.1 sec)
  promolecular density results
     # of electrons  =     73.998380063
     EX              =    -65.763392332
     EC              =     -2.492584333
     EX+EC           =    -68.255976665
Transforming the Hamiltonian                       ... done (   0.0 sec)
Diagonalizing the Hamiltonian                      ... done (   0.0 sec)
Back transforming the eigenvectors                 ... done (   0.0 sec)
Now organizing SCF variables                       ... done
                      ------------------
                      INITIAL GUESS DONE (   0.3 sec)
                      ------------------
             **** ENERGY FILE WAS UPDATED (data/single_point_PO_M06-2x/27365/27365.en.tmp) ****
Finished Guess after   0.4 sec
Maximum memory used throughout the entire GUESS-calculation: 21.7 MB


           ************************************************************
           *        Program running with 6 parallel MPI-processes     *
           *              working on a common directory               *
           ************************************************************

-------------------------------------------------------------------------------------------
                                      ORCA LEAN-SCF
                              memory conserving SCF solver
-------------------------------------------------------------------------------------------

----------------------------------------D-I-I-S--------------------------------------------
Iteration    Energy (Eh)           Delta-E    RMSDP     MaxDP     DIISErr   Damp  Time(sec)
-------------------------------------------------------------------------------------------
               ***  Starting incremental Fock matrix formation  ***
    1    -653.8576639371981400     0.00e+00  1.54e-03  5.65e-02  3.65e-01  0.700   3.1
    2    -654.0354108627841470    -1.78e-01  1.21e-03  4.22e-02  1.57e-01  0.700   2.1
                               ***Turning on AO-DIIS***
    3    -654.1111622301839361    -7.58e-02  5.32e-04  1.97e-02  4.74e-02  0.700   2.0
    4    -654.1560581472745071    -4.49e-02  9.93e-04  3.13e-02  3.20e-02  0.000   1.9
    5    -654.2533217385598618    -9.73e-02  1.56e-04  5.60e-03  5.40e-03  0.000   1.9
    6    -654.2536080497259263    -2.86e-04  6.74e-05  2.70e-03  4.32e-03  0.000   1.7
                              *** Initializing SOSCF ***
---------------------------------------S-O-S-C-F--------------------------------------
Iteration    Energy (Eh)           Delta-E    RMSDP     MaxDP     MaxGrad    Time(sec)
--------------------------------------------------------------------------------------
    7    -654.2536393880479864    -3.13e-05  2.81e-05  1.22e-03  5.95e-04     1.7
               *** Restarting incremental Fock matrix formation ***
    8    -654.2536146982308765     2.47e-05  2.02e-05  8.52e-04  4.64e-05     3.1
    9    -654.2536151805020381    -4.82e-07  5.75e-06  2.15e-04  3.04e-05     2.2
                 **** Energy Check signals convergence ****

               *****************************************************
               *                     SUCCESS                       *
               *           SCF CONVERGED AFTER   9 CYCLES          *
               *****************************************************

Recomputing exchange energy using gridx3       ... done (    4.076 sec)
Old exchange energy                            :    -36.344820461 Eh
New exchange energy                            :    -36.344808628 Eh
Exchange energy change after final integration :      0.000011833 Eh
Total energy after final integration           :   -654.253603347 Eh
             **** ENERGY FILE WAS UPDATED (data/single_point_PO_M06-2x/27365/27365.en.tmp) ****

----------------
TOTAL SCF ENERGY
----------------

Total Energy       :       -654.25360334739833 Eh          -17803.14564 eV

Components:
Nuclear Repulsion  :        505.46333964163676 Eh           13754.35673 eV
Electronic Energy  :      -1159.71695482213886 Eh          -31557.50269 eV
One Electron Energy:      -1898.55543057180785 Eh          -51662.31973 eV
Two Electron Energy:        738.83847574966899 Eh           20104.81703 eV

Virial components:
Potential Energy   :      -1305.70406848947937 Eh          -35530.01401 eV
Kinetic Energy     :        651.45046514208104 Eh           17726.86837 eV
Virial Ratio       :          2.00430291841868

DFT components:
N(Alpha)           :       37.000029761668 electrons
N(Beta)            :       37.000029761668 electrons
N(Total)           :       74.000059523336 electrons
E(XC)              :      -33.540181743946 Eh       

---------------
SCF CONVERGENCE
---------------

  Last Energy change         ...    4.8227e-07  Tolerance :   1.0000e-06
  Last MAX-Density change    ...    2.1497e-04  Tolerance :   1.0000e-05
  Last RMS-Density change    ...    5.7470e-06  Tolerance :   1.0000e-06
  Last DIIS Error            ...    5.9472e-04  Tolerance :   1.0000e-05
  Last Orbital Gradient      ...    3.0358e-05  Tolerance :   5.0000e-05
  Last Orbital Rotation      ...    5.7313e-05  Tolerance :   5.0000e-05


----------------
ORBITAL ENERGIES
----------------

  NO   OCC          E(Eh)            E(eV) 
   0   2.0000     -78.081768     -2124.7129 
   1   2.0000     -19.557005      -532.1731 
   2   2.0000     -10.551241      -287.1139 
   3   2.0000     -10.551176      -287.1121 
   4   2.0000     -10.551159      -287.1116 
   5   2.0000     -10.538684      -286.7722 
   6   2.0000     -10.538639      -286.7710 
   7   2.0000     -10.538579      -286.7693 
   8   2.0000      -6.888795      -187.4536 
   9   2.0000      -5.005682      -136.2115 
  10   2.0000      -5.005678      -136.2114 
  11   2.0000      -5.004062      -136.1675 
  12   2.0000      -1.051888       -28.6233 
  13   2.0000      -0.885462       -24.0946 
  14   2.0000      -0.857650       -23.3378 
  15   2.0000      -0.857603       -23.3366 
  16   2.0000      -0.748697       -20.3731 
  17   2.0000      -0.704432       -19.1686 
  18   2.0000      -0.704308       -19.1652 
  19   2.0000      -0.595846       -16.2138 
  20   2.0000      -0.532891       -14.5007 
  21   2.0000      -0.532783       -14.4978 
  22   2.0000      -0.520593       -14.1661 
  23   2.0000      -0.509508       -13.8644 
  24   2.0000      -0.509383       -13.8610 
  25   2.0000      -0.465675       -12.6717 
  26   2.0000      -0.452834       -12.3223 
  27   2.0000      -0.441842       -12.0231 
  28   2.0000      -0.441746       -12.0205 
  29   2.0000      -0.427767       -11.6401 
  30   2.0000      -0.417183       -11.3521 
  31   2.0000      -0.417130       -11.3507 
  32   2.0000      -0.402340       -10.9482 
  33   2.0000      -0.392703       -10.6860 
  34   2.0000      -0.392635       -10.6841 
  35   2.0000      -0.321254        -8.7418 
  36   2.0000      -0.321232        -8.7412 
  37   0.0000       0.048193         1.3114 
  38   0.0000       0.072010         1.9595 
  39   0.0000       0.072085         1.9615 
  40   0.0000       0.086489         2.3535 
  41   0.0000       0.102994         2.8026 
  42   0.0000       0.110121         2.9965 
  43   0.0000       0.110414         3.0045 
  44   0.0000       0.123212         3.3528 
  45   0.0000       0.123311         3.3555 
  46   0.0000       0.142146         3.8680 
  47   0.0000       0.142303         3.8723 
*Only the first 10 virtual orbitals were printed.

                    ********************************
                    * MULLIKEN POPULATION ANALYSIS *
                    ********************************

-----------------------
MULLIKEN ATOMIC CHARGES
-----------------------
   0 C :   -0.429623
   1 C :   -0.355913
   2 P :    0.648753
   3 O :   -0.612303
   4 C :   -0.358212
   5 C :   -0.428826
   6 C :   -0.356501
   7 C :   -0.430484
   8 H :    0.180639
   9 H :    0.145876
  10 H :    0.135377
  11 H :    0.155575
  12 H :    0.156686
  13 H :    0.155650
  14 H :    0.157025
  15 H :    0.135350
  16 H :    0.180457
  17 H :    0.145578
  18 H :    0.156665
  19 H :    0.156017
  20 H :    0.180747
  21 H :    0.145990
  22 H :    0.135478
Sum of atomic charges:    0.0000000

--------------------------------
MULLIKEN REDUCED ORBITAL CHARGES
--------------------------------
  0 C s       :     3.318663  s :     3.318663
      pz      :     0.972744  p :     3.052677
      px      :     1.019761
      py      :     1.060171
      dz2     :     0.015806  d :     0.054938
      dxz     :     0.008260
      dyz     :     0.012104
      dx2y2   :     0.014507
      dxy     :     0.004261
      f0      :     0.000545  f :     0.003345
      f+1     :     0.000640
      f-1     :     0.000480
      f+2     :     0.000513
      f-2     :     0.000522
      f+3     :     0.000188
      f-3     :     0.000459

  1 C s       :     3.241302  s :     3.241302
      pz      :     0.995482  p :     3.042331
      px      :     0.975208
      py      :     1.071641
      dz2     :     0.020640  d :     0.068704
      dxz     :     0.007931
      dyz     :     0.016322
      dx2y2   :     0.016746
      dxy     :     0.007066
      f0      :     0.000648  f :     0.003576
      f+1     :     0.000563
      f-1     :     0.000550
      f+2     :     0.000629
      f-2     :     0.000453
      f+3     :     0.000340
      f-3     :     0.000393

  2 P s       :     5.319735  s :     5.319735
      pz      :     2.651353  p :     8.285522
      px      :     2.819475
      py      :     2.814694
      dz2     :     0.173300  d :     0.680253
      dxz     :     0.161487
      dyz     :     0.137231
      dx2y2   :     0.146193
      dxy     :     0.062042
      f0      :     0.015268  f :     0.065737
      f+1     :     0.010017
      f-1     :     0.010164
      f+2     :     0.011132
      f-2     :     0.008492
      f+3     :     0.006104
      f-3     :     0.004560

  3 O s       :     3.865006  s :     3.865006
      pz      :     1.444405  p :     4.721292
      px      :     1.640983
      py      :     1.635903
      dz2     :     0.008268  d :     0.024761
      dxz     :     0.006572
      dyz     :     0.006677
      dx2y2   :     0.001533
      dxy     :     0.001711
      f0      :     0.000332  f :     0.001244
      f+1     :     0.000279
      f-1     :     0.000293
      f+2     :     0.000148
      f-2     :     0.000160
      f+3     :     0.000018
      f-3     :     0.000016

  4 C s       :     3.242041  s :     3.242041
      pz      :     1.049470  p :     3.043853
      px      :     0.998486
      py      :     0.995897
      dz2     :     0.016295  d :     0.068745
      dxz     :     0.016440
      dyz     :     0.004918
      dx2y2   :     0.018111
      dxy     :     0.012982
      f0      :     0.000555  f :     0.003572
      f+1     :     0.000554
      f-1     :     0.000335
      f+2     :     0.000516
      f-2     :     0.000317
      f+3     :     0.000643
      f-3     :     0.000653

  5 C s       :     3.317788  s :     3.317788
      pz      :     1.072500  p :     3.052692
      px      :     0.919950
      py      :     1.060242
      dz2     :     0.012434  d :     0.055001
      dxz     :     0.012992
      dyz     :     0.003929
      dx2y2   :     0.016603
      dxy     :     0.009042
      f0      :     0.000333  f :     0.003345
      f+1     :     0.000529
      f-1     :     0.000481
      f+2     :     0.000414
      f-2     :     0.000340
      f+3     :     0.000569
      f-3     :     0.000679

  6 C s       :     3.241342  s :     3.241342
      pz      :     1.007932  p :     3.042836
      px      :     1.064567
      py      :     0.970337
      dz2     :     0.009027  d :     0.068749
      dxz     :     0.009461
      dyz     :     0.020252
      dx2y2   :     0.007467
      dxy     :     0.022543
      f0      :     0.000462  f :     0.003575
      f+1     :     0.000529
      f-1     :     0.000359
      f+2     :     0.000604
      f-2     :     0.000225
      f+3     :     0.000724
      f-3     :     0.000672

  7 C s       :     3.318783  s :     3.318783
      pz      :     1.098306  p :     3.053347
      px      :     1.066389
      py      :     0.888652
      dz2     :     0.009195  d :     0.055010
      dxz     :     0.007635
      dyz     :     0.014342
      dx2y2   :     0.005389
      dxy     :     0.018449
      f0      :     0.000422  f :     0.003344
      f+1     :     0.000557
      f-1     :     0.000343
      f+2     :     0.000483
      f-2     :     0.000196
      f+3     :     0.000676
      f-3     :     0.000667

  8 H s       :     0.800243  s :     0.800243
      pz      :     0.009205  p :     0.019118
      px      :     0.004827
      py      :     0.005085

  9 H s       :     0.835640  s :     0.835640
      pz      :     0.003546  p :     0.018484
      px      :     0.010641
      py      :     0.004297

 10 H s       :     0.846049  s :     0.846049
      pz      :     0.004043  p :     0.018574
      px      :     0.003530
      py      :     0.011001

 11 H s       :     0.824503  s :     0.824503
      pz      :     0.004122  p :     0.019922
      px      :     0.004265
      py      :     0.011535

 12 H s       :     0.823945  s :     0.823945
      pz      :     0.009075  p :     0.019369
      px      :     0.004918
      py      :     0.005376

 13 H s       :     0.824431  s :     0.824431
      pz      :     0.005747  p :     0.019918
      px      :     0.008480
      py      :     0.005692

 14 H s       :     0.823603  s :     0.823603
      pz      :     0.010740  p :     0.019373
      px      :     0.003756
      py      :     0.004877

 15 H s       :     0.846066  s :     0.846066
      pz      :     0.005865  p :     0.018584
      px      :     0.008527
      py      :     0.004192

 16 H s       :     0.800425  s :     0.800425
      pz      :     0.010785  p :     0.019118
      px      :     0.003641
      py      :     0.004691

 17 H s       :     0.835942  s :     0.835942
      pz      :     0.003624  p :     0.018480
      px      :     0.003422
      py      :     0.011434

 18 H s       :     0.823960  s :     0.823960
      pz      :     0.010076  p :     0.019376
      px      :     0.005212
      py      :     0.004088

 19 H s       :     0.824066  s :     0.824066
      pz      :     0.004039  p :     0.019917
      px      :     0.010320
      py      :     0.005558

 20 H s       :     0.800139  s :     0.800139
      pz      :     0.010806  p :     0.019114
      px      :     0.004557
      py      :     0.003751

 21 H s       :     0.835527  s :     0.835527
      pz      :     0.007253  p :     0.018483
      px      :     0.006528
      py      :     0.004702

 22 H s       :     0.845948  s :     0.845948
      pz      :     0.003658  p :     0.018574
      px      :     0.009158
      py      :     0.005758



                     *******************************
                     * LOEWDIN POPULATION ANALYSIS *
                     *******************************

----------------------
LOEWDIN ATOMIC CHARGES
----------------------
   0 C :   -0.338593
   1 C :   -0.399251
   2 P :    0.568108
   3 O :   -0.330001
   4 C :   -0.399401
   5 C :   -0.338540
   6 C :   -0.399460
   7 C :   -0.338609
   8 H :    0.135599
   9 H :    0.123168
  10 H :    0.121014
  11 H :    0.141611
  12 H :    0.137168
  13 H :    0.141589
  14 H :    0.137154
  15 H :    0.121015
  16 H :    0.135594
  17 H :    0.123129
  18 H :    0.137132
  19 H :    0.141769
  20 H :    0.135624
  21 H :    0.123194
  22 H :    0.120986

-------------------------------
LOEWDIN REDUCED ORBITAL CHARGES
-------------------------------
  0 C s       :     2.845406  s :     2.845406
      pz      :     1.066436  p :     3.204395
      px      :     1.060543
      py      :     1.077415
      dz2     :     0.071601  d :     0.264125
      dxz     :     0.049903
      dyz     :     0.051845
      dx2y2   :     0.066762
      dxy     :     0.024014
      f0      :     0.004029  f :     0.024667
      f+1     :     0.004355
      f-1     :     0.004148
      f+2     :     0.002900
      f-2     :     0.004705
      f+3     :     0.001285
      f-3     :     0.003246

  1 C s       :     2.845120  s :     2.845120
      pz      :     1.057636  p :     3.207800
      px      :     1.095042
      py      :     1.055122
      dz2     :     0.079540  d :     0.319478
      dxz     :     0.058654
      dyz     :     0.063446
      dx2y2   :     0.084600
      dxy     :     0.033239
      f0      :     0.004874  f :     0.026853
      f+1     :     0.004376
      f-1     :     0.003972
      f+2     :     0.003380
      f-2     :     0.004541
      f+3     :     0.002262
      f-3     :     0.003448

  2 P s       :     4.676458  s :     4.676458
      pz      :     2.749350  p :     8.331244
      px      :     2.791509
      py      :     2.790385
      dz2     :     0.306273  d :     1.200682
      dxz     :     0.274687
      dyz     :     0.238931
      dx2y2   :     0.260513
      dxy     :     0.120277
      f0      :     0.048826  f :     0.223509
      f+1     :     0.036449
      f-1     :     0.036927
      f+2     :     0.035098
      f-2     :     0.029417
      f+3     :     0.020611
      f-3     :     0.016181

  3 O s       :     3.544021  s :     3.544021
      pz      :     1.550369  p :     4.742026
      px      :     1.596436
      py      :     1.595221
      dz2     :     0.015782  d :     0.041870
      dxz     :     0.010714
      dyz     :     0.011157
      dx2y2   :     0.001942
      dxy     :     0.002276
      f0      :     0.000523  f :     0.002083
      f+1     :     0.000503
      f-1     :     0.000541
      f+2     :     0.000216
      f-2     :     0.000248
      f+3     :     0.000028
      f-3     :     0.000025

  4 C s       :     2.845182  s :     2.845182
      pz      :     1.049426  p :     3.207937
      px      :     1.057876
      py      :     1.100634
      dz2     :     0.069216  d :     0.319438
      dxz     :     0.066192
      dyz     :     0.029731
      dx2y2   :     0.089331
      dxy     :     0.064968
      f0      :     0.003053  f :     0.026844
      f+1     :     0.003354
      f-1     :     0.002632
      f+2     :     0.003943
      f-2     :     0.004466
      f+3     :     0.004606
      f-3     :     0.004789

  5 C s       :     2.845419  s :     2.845419
      pz      :     1.086573  p :     3.204355
      px      :     1.047943
      py      :     1.069839
      dz2     :     0.053907  d :     0.264101
      dxz     :     0.064336
      dyz     :     0.018533
      dx2y2   :     0.080096
      dxy     :     0.047229
      f0      :     0.002213  f :     0.024666
      f+1     :     0.003358
      f-1     :     0.003254
      f+2     :     0.002826
      f-2     :     0.004312
      f+3     :     0.003690
      f-3     :     0.005013

  6 C s       :     2.845157  s :     2.845157
      pz      :     1.077976  p :     3.207924
      px      :     1.066855
      py      :     1.063093
      dz2     :     0.052838  d :     0.319536
      dxz     :     0.047773
      dyz     :     0.077184
      dx2y2   :     0.053702
      dxy     :     0.088039
      f0      :     0.003100  f :     0.026843
      f+1     :     0.003205
      f-1     :     0.003579
      f+2     :     0.004696
      f-2     :     0.002289
      f+3     :     0.005021
      f-3     :     0.004953

  7 C s       :     2.845395  s :     2.845395
      pz      :     1.088022  p :     3.204433
      px      :     1.076898
      py      :     1.039512
      dz2     :     0.041250  d :     0.264114
      dxz     :     0.033970
      dyz     :     0.061468
      dx2y2   :     0.044307
      dxy     :     0.083119
      f0      :     0.002672  f :     0.024666
      f+1     :     0.002537
      f-1     :     0.003374
      f+2     :     0.004269
      f-2     :     0.002255
      f+3     :     0.004644
      f-3     :     0.004915

  8 H s       :     0.804611  s :     0.804611
      pz      :     0.026789  p :     0.059789
      px      :     0.015870
      py      :     0.017130

  9 H s       :     0.818655  s :     0.818655
      pz      :     0.012439  p :     0.058177
      px      :     0.031065
      py      :     0.014673

 10 H s       :     0.821099  s :     0.821099
      pz      :     0.012801  p :     0.057886
      px      :     0.011967
      py      :     0.033118

 11 H s       :     0.799007  s :     0.799007
      pz      :     0.012849  p :     0.059382
      px      :     0.013576
      py      :     0.032957

 12 H s       :     0.803906  s :     0.803906
      pz      :     0.025499  p :     0.058926
      px      :     0.015562
      py      :     0.017865

 13 H s       :     0.799029  s :     0.799029
      pz      :     0.018541  p :     0.059383
      px      :     0.023722
      py      :     0.017119

 14 H s       :     0.803919  s :     0.803919
      pz      :     0.031478  p :     0.058927
      px      :     0.012206
      py      :     0.015243

 15 H s       :     0.821097  s :     0.821097
      pz      :     0.019518  p :     0.057888
      px      :     0.023974
      py      :     0.014395

 16 H s       :     0.804608  s :     0.804608
      pz      :     0.032716  p :     0.059798
      px      :     0.011678
      py      :     0.015404

 17 H s       :     0.818697  s :     0.818697
      pz      :     0.012522  p :     0.058174
      px      :     0.011484
      py      :     0.034167

 18 H s       :     0.803940  s :     0.803940
      pz      :     0.028913  p :     0.058928
      px      :     0.017099
      py      :     0.012916

 19 H s       :     0.798847  s :     0.798847
      pz      :     0.012972  p :     0.059385
      px      :     0.029980
      py      :     0.016433

 20 H s       :     0.804588  s :     0.804588
      pz      :     0.032690  p :     0.059788
      px      :     0.015360
      py      :     0.011738

 21 H s       :     0.818633  s :     0.818633
      pz      :     0.023523  p :     0.058173
      px      :     0.020668
      py      :     0.013982

 22 H s       :     0.821132  s :     0.821132
      pz      :     0.012632  p :     0.057882
      px      :     0.028771
      py      :     0.016479



                      *****************************
                      * MAYER POPULATION ANALYSIS *
                      *****************************

  NA   - Mulliken gross atomic population
  ZA   - Total nuclear charge
  QA   - Mulliken gross atomic charge
  VA   - Mayer's total valence
  BVA  - Mayer's bonded valence
  FA   - Mayer's free valence

  ATOM       NA         ZA         QA         VA         BVA        FA
  0 C      6.4296     6.0000    -0.4296     3.8482     3.8482    -0.0000
  1 C      6.3559     6.0000    -0.3559     3.7091     3.7091    -0.0000
  2 P     14.3512    15.0000     0.6488     4.7655     4.7655    -0.0000
  3 O      8.6123     8.0000    -0.6123     1.9591     1.9591    -0.0000
  4 C      6.3582     6.0000    -0.3582     3.7094     3.7094     0.0000
  5 C      6.4288     6.0000    -0.4288     3.8497     3.8497     0.0000
  6 C      6.3565     6.0000    -0.3565     3.7090     3.7090    -0.0000
  7 C      6.4305     6.0000    -0.4305     3.8492     3.8492    -0.0000
  8 H      0.8194     1.0000     0.1806     0.9629     0.9629    -0.0000
  9 H      0.8541     1.0000     0.1459     0.9543     0.9543    -0.0000
 10 H      0.8646     1.0000     0.1354     0.9573     0.9573    -0.0000
 11 H      0.8444     1.0000     0.1556     0.9527     0.9527     0.0000
 12 H      0.8433     1.0000     0.1567     0.9483     0.9483     0.0000
 13 H      0.8443     1.0000     0.1557     0.9524     0.9524     0.0000
 14 H      0.8430     1.0000     0.1570     0.9482     0.9482     0.0000
 15 H      0.8647     1.0000     0.1353     0.9573     0.9573     0.0000
 16 H      0.8195     1.0000     0.1805     0.9631     0.9631    -0.0000
 17 H      0.8544     1.0000     0.1456     0.9543     0.9543     0.0000
 18 H      0.8433     1.0000     0.1567     0.9481     0.9481     0.0000
 19 H      0.8440     1.0000     0.1560     0.9524     0.9524    -0.0000
 20 H      0.8193     1.0000     0.1807     0.9628     0.9628    -0.0000
 21 H      0.8540     1.0000     0.1460     0.9542     0.9542     0.0000
 22 H      0.8645     1.0000     0.1355     0.9571     0.9571    -0.0000

  Mayer bond orders larger than 0.100000
B(  0-C ,  1-C ) :   0.9363 B(  0-C ,  8-H ) :   0.9629 B(  0-C ,  9-H ) :   0.9718 
B(  0-C , 10-H ) :   0.9704 B(  1-C ,  2-P ) :   0.9165 B(  1-C , 11-H ) :   0.9471 
B(  1-C , 12-H ) :   0.9411 B(  2-P ,  3-O ) :   1.9006 B(  2-P ,  4-C ) :   0.9159 
B(  2-P ,  6-C ) :   0.9166 B(  4-C ,  5-C ) :   0.9374 B(  4-C , 13-H ) :   0.9472 
B(  4-C , 14-H ) :   0.9408 B(  5-C , 15-H ) :   0.9704 B(  5-C , 16-H ) :   0.9630 
B(  5-C , 17-H ) :   0.9717 B(  6-C ,  7-C ) :   0.9369 B(  6-C , 18-H ) :   0.9406 
B(  6-C , 19-H ) :   0.9467 B(  7-C , 20-H ) :   0.9630 B(  7-C , 21-H ) :   0.9717 
B(  7-C , 22-H ) :   0.9705 

-------
TIMINGS
-------

Total SCF time: 0 days 0 hours 0 min 23 sec 

Total time                  ....      23.965 sec
Sum of individual times     ....      23.948 sec  ( 99.9%)

SCF preparation             ....       0.166 sec  (  0.7%)
Fock matrix formation       ....      23.123 sec  ( 96.5%)
  Startup                   ....       0.031 sec  (  0.1% of F)
  Split-RI-J                ....       1.345 sec  (  5.8% of F)
  Chain of spheres X        ....      15.275 sec  ( 66.1% of F)
  XC integration            ....       6.366 sec  ( 27.5% of F)
    Basis function eval.    ....       0.883 sec  ( 13.9% of XC)
    Density eval.           ....       2.341 sec  ( 36.8% of XC)
    XC-Functional eval.     ....       0.214 sec  (  3.4% of XC)
    XC-Potential eval.      ....       2.468 sec  ( 38.8% of XC)
Diagonalization             ....       0.000 sec  (  0.0%)
Density matrix formation    ....       0.070 sec  (  0.3%)
Total Energy calculation    ....       0.032 sec  (  0.1%)
Population analysis         ....       0.051 sec  (  0.2%)
Orbital Transformation      ....       0.069 sec  (  0.3%)
Orbital Orthonormalization  ....       0.000 sec  (  0.0%)
DIIS solution               ....       0.357 sec  (  1.5%)
SOSCF solution              ....       0.080 sec  (  0.3%)
Finished LeanSCF after  24.0 sec

Maximum memory used throughout the entire LEANSCF-calculation: 37.4 MB


-------------------------------------------------------------------------------
                          DFT DISPERSION CORRECTION                            
                                                                               
                              DFTD3 V3.1  Rev 1                                
                              USING zero damping                               
-------------------------------------------------------------------------------
The M062X functional is recognized
Active option DFTDOPT                   ...         3   

molecular C6(AA) [au] = 4566.444663 


            DFT-D V3
 parameters
 s6 scaling factor         :     1.0000 
 rs6 scaling factor        :     1.6190 
 s8 scaling factor         :     0.0000 
 rs8 scaling factor        :     1.0000 
 Damping factor alpha6     :    14.0000 
 Damping factor alpha8     :    16.0000 
 ad hoc parameters k1-k3   :    16.0000     1.3333    -4.0000 

 Edisp/kcal,au: -0.531481717063  -0.000846969938 
 E6   /kcal   :  -0.531481717 
 E8   /kcal   :  -0.000000000 
 % E8         :   0.000000000 

-------------------------   ----------------
Dispersion correction           -0.000846970
-------------------------   ----------------


-------------------------   --------------------
FINAL SINGLE POINT ENERGY      -654.254450317336
-------------------------   --------------------



           ************************************************************
           *        Program running with 6 parallel MPI-processes     *
           *              working on a common directory               *
           ************************************************************

------------------------------------------------------------------------------
                              ORCA PROPERTY CALCULATIONS
------------------------------------------------------------------------------

GBWName                                 ... data/single_point_PO_M06-2x/27365/27365.gbw
Number of atoms                         ...     23
Number of basis functions               ...    344
Max core memory                         ...   1024 MB

Electric properties:
Dipole moment                           ... YES
Quadrupole moment                       ...  NO
Static polarizability (Dipole/Dipole)   ...  NO
Static polarizability (Dipole/Quad.)    ...  NO
Static polarizability (Quad./Quad.)     ...  NO
Static polarizability (Velocity)        ...  NO

Atomic electric properties:
Dipole moment                           ...  NO
Quadrupole moment                       ...  NO
Static polarizability                   ...  NO

Choice of electric origin               ... Center of mass
Position of electric origin             ...    -0.130291     0.140951     0.015456

General magnetic properties:
Magnetizability                         ...  NO

EPR properties:
g-Tensor (aka g-matrix)                 ...  NO
Zero-Field splitting spin-orbit         ...  NO
Zero-field splitting spin-spin          ...  NO
Hyperfine couplings                     ...  NO (   0 nuclei)
Quadrupole couplings                    ...  NO (   0 nuclei)
Contact density                         ...  NO (   0 nuclei)

NMR properties:
Chemical shifts                         ...  NO (   0 nuclei)
Spin-rotation constants                 ...  NO (   0 nuclei)
Spin-spin couplings                     ...  NO (   0 nuclei,    0 pairs)

Choice of magnetic origin               ... GIAO
Position of magnetic origin             ...     0.000000     0.000000     0.000000

Properties with geometric perturbations:
SCF Hessian                             ...  NO
IR spectrum                             ...  NO
VCD spectrum                            ...  NO
X-ray spectroscopy properties:
SCF XES/XAS/RIXS spectra                ...  NO


-------------
DIPOLE MOMENT
-------------

Method             : SCF
Type of density    : Electron Density
Multiplicity       :   1
Irrep              :   0
Energy             :  -654.2536033473983252 Eh
Relativity type    : 
Basis              : AO
                                X                 Y                 Z
Electronic contribution:     -0.927008462       1.002237355       2.599187147
Nuclear contribution   :      1.433042792      -1.550227608      -4.031722284
                        -----------------------------------------
Total Dipole Moment    :      0.506034330      -0.547990252      -1.432535137
                        -----------------------------------------
Magnitude (a.u.)       :      1.615091632
Magnitude (Debye)      :      4.105236679



--------------------
Rotational spectrum 
--------------------
 
Rotational constants in cm-1:             0.052198             0.052087             0.033403 
Rotational constants in MHz :          1564.846966          1561.520119          1001.400563 

Dipole components along the rotational axes: 
x,y,z [a.u.] :     0.003339     0.001047    -1.615088 
x,y,z [Debye]:     0.008488     0.002660    -4.105227 

 

Dipole moment calculation done in   0.0 sec 

Maximum memory used throughout the entire PROP-calculation: 18.3 MB

--------------------------------
SUGGESTED CITATIONS FOR THIS RUN
--------------------------------

Below you find a list of papers that are relevant to this ORCA run
We neither can nor want to force you to cite these papers, but we appreciate if you do
You receive ORCA, which is the product of decades of hard work by many enthusiastic individuals, for free
The only thing we kindly ask in return is that you cite our papers,
We deeply appreciate it, if you show your appreciation for ORCA by not just citing the generic ORCA reference.

Please note that relegating all ORCA citations to the supporting information does *not* help us.
SI sections are not indexed - citations you put there will not count into any citation statistics
But we need these citations in order to attract the funding resources that allow us to do what we are doing

Therefore, if you are a happy ORCA user, please consider citing a few of the papers listed below in the main body of your paper

In addition to the list printed below, the program has created the file data/single_point_PO_M06-2x/27365/27365.bibtex that contains the list in bibtex format
You can import this file easily into all common literature databanks and citation aid programs


List of essential papers. We consider these as the minimum necessary citations

  1. Neese,F.
     Software update: the ORCA program system, version 5.0
     WIRES Comput. Molec. Sci., 2022 12(1)e1606
     doi.org/10.1002/wcms.1606

List of papers to cite with high priority. The work reported in these papers was absolutely
necessary for this run to complete.
Our perspective: the developers of density functionals and basis sets usually get cited in chemistry papers
Good! But without the algorithms to do something with them, the functionals or basis sets would not do anything.
Hence, in our opinion, the algorithm design and method developments papers are equally worthy of getting cited

  1. Neese,F.
     An improvement of the resolution of the identity approximation for the formation of the Coulomb matrix
     J. Comp. Chem., 2003 24(14)1740-1747
     doi.org/10.1002/jcc.10318
  2. Neese,F.; Wennmohs,F.; Hansen,A.; Becker,U.
     Efficient, approximate and parallel Hartree-Fock and hybrid DFT calculations. A 'chain-of-spheres' algorithm for the Hartree-Fock exchange
     Chem. Phys., 2009 356(1-3)98-109
     doi.org/10.1016/j.chemphys.2008.10.036
  3. Helmich-Paris,B.; de Souza,B.; Neese,F.; Izsák,R.
     An improved chain of spheres for exchange algorithm
     J. Chem. Phys., 2021 155 104109
     doi.org/doi: 10.1063/5.0058766.
  4. Neese,F.
     The SHARK Integral Generation and Digestion System
     J. Comp. Chem., 2022  1-16
     doi.org/10.1002/jcc.26942
  5. Grimme,S.; Antony,J.; Ehrlich,S.; Krieg,H.
     A consistent and accurate ab initio parametrization of density functional dispersion correction (DFT-D) for the 94 elements H-Pu
     J. Chem. Phys., 2010 132 154104-XXXX
     doi.org/10.1063/1.3382344

List of suggested additional citations. These are papers that are important in the 'surrounding' of 
of this run, or papers that preceded the highly important papers. If you like your results we are grateful for a citation.

  1. Izsak,R.; Neese,F.
     An overlap fitted chain of spheres exchange method
     J. Chem. Phys., 2011 135 144105
     doi.org/10.1063/1.3646921
  2. Izsak,R.; Hansen,A.; Neese,F.
     The resolution of identity and chain of spheres approximations for the LPNO-CCSD singles Fock term
     Molec. Phys., 2012 110 2413-2417
     doi.org/10.1080/00268976.2012.687466
  3. Neese,F.
     The ORCA program system
     WIRES Comput. Molec. Sci., 2012 2(1)73-78
     doi.org/10.1002/wcms.81
  4. Izsak,R.; Neese,F.; Klopper,W.
     Robust fitting techniques in the chain of spheres approximation to the Fock exchange: The role of the complementary space
     J. Chem. Phys., 2013 139 
     doi.org/10.1063/1.4819264
  5. Neese,F.
     Software update: the ORCA program system, version 4.0
     WIRES Comput. Molec. Sci., 2018 8(1)1-6
     doi.org/10.1002/wcms.1327
  6. Neese,F.; Wennmohs,F.; Becker,U.; Riplinger,C.
     The ORCA quantum chemistry program package
     J. Chem. Phys., 2020 152 Art. No. L224108
     doi.org/10.1063/5.0004608

List of optional additional citations

  1. Neese,F.
     Approximate second-order SCF convergence for spin unrestricted wavefunctions
     Chem. Phys. Lett., 2000 325(1-3)93-98
     doi.org/10.1016/s0009-2614(00)00662-x

Timings for individual modules:

Sum of individual times          ...       26.133 sec (=   0.436 min)
Startup calculation              ...        1.372 sec (=   0.023 min)   5.3 %
SCF iterations                   ...       24.606 sec (=   0.410 min)  94.2 %
Property calculations            ...        0.155 sec (=   0.003 min)   0.6 %
                             ****ORCA TERMINATED NORMALLY****
TOTAL RUN TIME: 0 days 0 hours 0 minutes 26 seconds 359 msec
