
                                 *****************
                                 * O   R   C   A *
                                 *****************

                                            #,                                       
                                            ###                                      
                                            ####                                     
                                            #####                                    
                                            ######                                   
                                           ########,                                 
                                     ,,################,,,,,                         
                               ,,#################################,,                 
                          ,,##########################################,,             
                       ,#########################################, ''#####,          
                    ,#############################################,,   '####,        
                  ,##################################################,,,,####,       
                ,###########''''           ''''###############################       
              ,#####''   ,,,,##########,,,,          '''####'''          '####       
            ,##' ,,,,###########################,,,                        '##       
           ' ,,###''''                  '''############,,,                           
         ,,##''                                '''############,,,,        ,,,,,,###''
      ,#''                                            '''#######################'''  
     '                                                          ''''####''''         
             ,#######,   #######,   ,#######,      ##                                
            ,#'     '#,  ##    ##  ,#'     '#,    #''#        ,####,   ,####,        
            ##       ##  ##   ,#'  ##            #'  '#       #'       #'  '#        
            ##       ##  #######   ##           ,######,      #####,   #    #        
            '#,     ,#'  ##    ##  '#,     ,#' ,#      #,     #,   #   #,  ,#        
             '#######'   ##     ##  '#######'  #'      '#     '####' # '####'        



                #########################################################
                #                        -***-                          #
                #          Department of theory and spectroscopy        #
                #                                                       #
                #                      Frank Neese                      #
                #                                                       #
                #     Directorship, Architecture, Infrastructure        #
                #                    SHARK, DRIVERS                     #
                #        Core code/Algorithms in most modules           #
                #                                                       #
                #        Max Planck Institute fuer Kohlenforschung      #
                #                Kaiser Wilhelm Platz 1                 #
                #                 D-45470 Muelheim/Ruhr                 #
                #                      Germany                          #
                #                                                       #
                #                  All rights reserved                  #
                #                        -***-                          #
                #########################################################


                         Program Version 6.0.0  -   RELEASE   -


 With contributions from (in alphabetic order):
   Daniel Aravena         : Magnetic Suceptibility
   Michael Atanasov       : Ab Initio Ligand Field Theory (pilot matlab implementation)
   Alexander A. Auer      : GIAO ZORA, VPT2 properties, NMR spectrum
   Ute Becker             : All parallelization in ORCA, NUMFREQ, NUMCALC
   Giovanni Bistoni       : ED, misc. LED, open-shell LED, HFLD
   Martin Brehm           : Molecular dynamics
   Dmytro Bykov           : pre 5.0 version of the SCF Hessian
   Marcos Casanova-Páez   : Triplet and SCS-CIS(D). UHF-(DLPNO)-IP/EA/STEOM-CCSD. UHF-CVS-IP/STEOM-CCSD
   Vijay G. Chilkuri      : MRCI spin determinant printing, contributions to CSF-ICE
   Pauline Colinet        : FMM embedding
   Dipayan Datta          : RHF DLPNO-CCSD density
   Achintya Kumar Dutta   : EOM-CC, STEOM-CC
   Nicolas Foglia         : Exact transition moments, OPA infrastructure, MCD improvements
   Dmitry Ganyushin       : Spin-Orbit,Spin-Spin,Magnetic field MRCI
   Miquel Garcia          : C-PCM and meta-GGA Hessian, CCSD/C-PCM, Gaussian charge scheme
   Tiago L. C. Gouveia    : GS-ROHF, GS-ROCIS
   Yang Guo               : DLPNO-NEVPT2, F12-NEVPT2, CIM, IAO-localization
   Andreas Hansen         : Spin unrestricted coupled pair/coupled cluster methods
   Ingolf Harden          : AUTO-CI MPn and infrastructure 
   Benjamin Helmich-Paris : MC-RPA, TRAH-(SCF,CASSCF), AVAS, COSX integrals, SCF dyn. polar.
   Lee Huntington         : MR-EOM, pCC
   Robert Izsak           : Overlap fitted RIJCOSX, COSX-SCS-MP3, EOM
   Riya Kayal             : Wick's Theorem for AUTO-CI, AUTO-CI UHF-CCSDT
   Emily Kempfer          : AUTO-CI, RHF CISDT and CCSDT
   Christian Kollmar      : KDIIS, OOCD, Brueckner-CCSD(T), CCSD density, CASPT2, CASPT2-K, improved NEVPT2
   Axel Koslowski         : Symmetry handling
   Simone Kossmann        : Meta GGA functionals, TD-DFT gradient, OOMP2, (MP2 Hessian; deprecated post 5.0)
   Lucas Lang             : DCDCAS
   Marvin Lechner         : AUTO-CI (C++ implementation), FIC-MRCC
   Spencer Leger          : CASSCF response
   Dagmar Lenk            : GEPOL surface, SMD, ORCA-2-JSON
   Dimitrios Liakos       : Extrapolation schemes; Compound Job, initial MDCI parallelization
   Dimitrios Manganas     : Further ROCIS development; embedding schemes. LFT, Crystal Embedding
   Dimitrios Pantazis     : SARC Basis sets
   Anastasios Papadopoulos: AUTO-CI, single reference methods and gradients
   Taras Petrenko         : pre 6.0 DFT Hessian and TD-DFT gradient, (ASA, deprecated), ECA, 1-Electron XAS/XES, NRVS
   Peter Pinski           : DLPNO-MP2, DLPNO-MP2 Gradient
   Christoph Reimann      : Effective Core Potentials
   Marius Retegan         : Local ZFS, SOC
   Christoph Riplinger    : Optimizer, TS searches, QM/MM, DLPNO-CCSD(T), (RO)-DLPNO pert. Triples
   Michael Roemelt        : Original ROCIS implementation
   Masaaki Saitow         : Open-shell DLPNO-CCSD energy and density
   Barbara Sandhoefer     : DKH picture change effects
   Kantharuban Sivalingam : CASSCF convergence/infrastructure, NEVPT2 and variants, FIC-MRCI
   Bernardo de Souza      : ESD, SOC TD-DFT
   Georgi Stoychev        : AutoAux, RI-MP2 NMR, DLPNO-MP2 response, X2C
   Van Anh Tran           : RI-MP2 g-tensors
   Willem Van den Heuvel  : Paramagnetic NMR
   Zikuan Wang            : NOTCH, Electric field optimization 
   Frank Wennmohs         : Technical directorship and infrastructure
   Hang Xu                : AUTO-CI-Response properties 


 We gratefully acknowledge several colleagues who have allowed us to
 interface, adapt or use parts of their codes:
   Stefan Grimme, W. Hujo, H. Kruse, P. Pracht,  : VdW corrections, initial TS optimization,
                  C. Bannwarth, S. Ehlert,         DFT functionals, gCP, sTDA/sTD-DF
                  L. Wittmann, M. Mueller
   Ed Valeev, F. Pavosevic, A. Kumar             : LibInt (2-el integral package), F12 methods
   Garnet Chan, S. Sharma, J. Yang, R. Olivares  : DMRG
   Ulf Ekstrom                                   : XCFun DFT Library
   Mihaly Kallay                                 : mrcc  (arbitrary order and MRCC methods)
   Frank Weinhold                                : gennbo (NPA and NBO analysis)
   Simon Mueller                                 : openCOSMO-RS
   Christopher J. Cramer and Donald G. Truhlar   : smd solvation model
   Lars Goerigk                                  : TD-DFT with DH, B97 family of functionals
   V. Asgeirsson, H. Jonsson                     : NEB implementation
   FAccTs GmbH                                   : IRC, NEB, NEB-TS, DLPNO-Multilevel, CI-OPT
                                                   MM, QMMM, 2- and 3-layer-ONIOM, Crystal-QMMM,
                                                   LR-CPCM, SF, NACMEs, symmetry and pop. for TD-DFT,
                                                   nearIR, NL-DFT gradient (VV10), updates on ESD,
                                                   ML-optimized integration grids, MBIS, APM,
                                                   GOAT, DOCKER, SOLVATOR, interface openCOSMO-RS
   S Lehtola, MJT Oliveira, MAL Marques          : LibXC Library
   Liviu Ungur et al                             : ANISO software


 Your calculation uses the libint2 library for the computation of 2-el integrals
 For citations please refer to: http://libint.valeyev.net

 Your ORCA version has been built with support for libXC version: 6.2.2
 For citations please refer to: https://libxc.gitlab.io

 This ORCA versions uses:
   CBLAS   interface :  Fast vector & matrix operations
   LAPACKE interface :  Fast linear algebra routines
   Shared memory     :  Shared parallel matrices


Your calculation utilizes the atom-pairwise dispersion correction
with the Becke-Johnson damping scheme (D3BJ)


Warning: RI is on but no J-basis has been assigned. Assigning Def2/J (nothing to worry about!)
================================================================================

----- Orbital basis set information -----
Your calculation utilizes the basis: def2-SVP
   F. Weigend and R. Ahlrichs, Phys. Chem. Chem. Phys. 7, 3297 (2005).

----- AuxJ basis set information -----
Your calculation utilizes the auxiliary basis: def2/J
   F. Weigend, Phys. Chem. Chem. Phys. 8, 1057 (2006).

================================================================================
                                        WARNINGS
                       Please study these warnings very carefully!
================================================================================


WARNING: Geometry Optimization
  ===> : Switching off AutoStart
         For restart on a previous wavefunction, please use MOREAD

================================================================================
                                       INPUT FILE
================================================================================
NAME = data/geom_opt_PO_BP86/121600/121600.inp
|  1> ! RI BP86 def2-SVP D3BJ TIGHTSCF Opt
|  2> %pal
|  3> nprocs 6
|  4> end
|  5> 
|  6> * xyz 0 1
|  7> C     -2.409121    3.015772    1.647333
|  8> C     -1.718349    1.821842    1.859597
|  9> C     -0.721536    1.396981    0.965403
| 10> C     -0.428071    2.199813   -0.146652
| 11> C     -1.121890    3.392745   -0.353730
| 12> C     -2.111038    3.802917    0.536762
| 13> Cl    -0.752855    4.362790   -1.726065
| 14> P      0.122825   -0.161843    1.288161
| 15> O      0.290758   -0.383137    2.781658
| 16> C      1.725752   -0.113901    0.466348
| 17> C      1.926959   -0.614260   -0.828443
| 18> C      3.188141   -0.540617   -1.421189
| 19> C      4.261430    0.027345   -0.739208
| 20> C      4.074993    0.524584    0.549130
| 21> C      2.815954    0.453459    1.147001
| 22> Cl     3.416011   -1.154435   -3.012345
| 23> C     -0.847245   -1.489912    0.551782
| 24> C     -1.732551   -1.277635   -0.515223
| 25> C     -2.450502   -2.345792   -1.054610
| 26> C     -2.300353   -3.632666   -0.543687
| 27> C     -1.426611   -3.855645    0.518704
| 28> C     -0.706130   -2.791152    1.062257
| 29> Cl    -3.528226   -2.068450   -2.366888
| 30> H     -3.176521    3.332407    2.349923
| 31> H     -1.951640    1.215432    2.734960
| 32> H      0.338852    1.905041   -0.857497
| 33> H     -2.649474    4.732826    0.373577
| 34> H      1.108126   -1.063075   -1.383818
| 35> H      5.242872    0.082851   -1.202849
| 36> H      4.909752    0.964566    1.089857
| 37> H      2.679805    0.837366    2.158187
| 38> H     -1.870065   -0.284421   -0.933526
| 39> H     -2.861230   -4.462771   -0.965129
| 40> H     -1.308308   -4.856925    0.926422
| 41> H     -0.030513   -2.972099    1.898452
| 42> **                         ****END OF INPUT****
================================================================================

                       *****************************
                       * Geometry Optimization Run *
                       *****************************

Geometry optimization settings:
Update method            Update   .... BFGS
Choice of coordinates    CoordSys .... (2022) Redundant Internals
Initial Hessian          InHess   .... Almloef's Model
Max. no of cycles        MaxIter  .... 105

Convergence Tolerances:
Energy Change            TolE     ....  5.0000e-06 Eh
Max. Gradient            TolMAXG  ....  3.0000e-04 Eh/bohr
RMS Gradient             TolRMSG  ....  1.0000e-04 Eh/bohr
Max. Displacement        TolMAXD  ....  4.0000e-03 bohr
RMS Displacement         TolRMSD  ....  2.0000e-03 bohr
Strict Convergence                .... False

------------------------------------------------------------------------------
                        ORCA OPTIMIZATION COORDINATE SETUP
------------------------------------------------------------------------------

The optimization will be done in redundant internal coordinates (2022)
Making redundant internal coordinates   ...  (2022 redundants) done
Evaluating the initial hessian          ...  (Almloef) done
Evaluating the coordinates              ...  done
Calculating the B-matrix                .... done
Calculating the G-matrix                .... done
Diagonalizing the G-matrix              .... done
Small eigenvalue found = 5.600e-03
Small eigenvalue found = 5.851e-03
Small eigenvalue found = 8.871e-03
Small eigenvalue found = 2.292e-02
Small eigenvalue found = 2.614e-02
The first mode is                       ....   85
The number of degrees of freedom        ....   99

    -----------------------------------------------------------------
                    Redundant Internal Coordinates


    -----------------------------------------------------------------
         Definition                    Initial Value    Approx d2E/dq
    -----------------------------------------------------------------
      1. B(C   1,C   0)                  1.3956         0.612081   
      2. B(C   2,C   1)                  1.4049         0.591530   
      3. B(C   3,C   2)                  1.4026         0.596504   
      4. B(C   4,C   3)                  1.3955         0.612353   
      5. B(C   5,C   4)                  1.3927         0.618616   
      6. B(C   5,C   0)                  1.3935         0.616834   
      7. B(Cl  6,C   4)                  1.7206         0.416176   
      8. B(P   7,C   2)                  1.8020         0.462361   
      9. B(O   8,P   7)                  1.5191         1.170515   
     10. B(C   9,P   7)                  1.8020         0.462361   
     11. B(C  10,C   9)                  1.4026         0.596504   
     12. B(C  11,C  10)                  1.3955         0.612355   
     13. B(C  12,C  11)                  1.3927         0.618618   
     14. B(C  13,C  12)                  1.3935         0.616832   
     15. B(C  14,C   9)                  1.4049         0.591530   
     16. B(C  14,C  13)                  1.3956         0.612084   
     17. B(Cl 15,C  11)                  1.7206         0.416177   
     18. B(C  16,P   7)                  1.8020         0.462357   
     19. B(C  17,C  16)                  1.4026         0.596503   
     20. B(C  18,C  17)                  1.3955         0.612355   
     21. B(C  19,C  18)                  1.3927         0.618615   
     22. B(C  20,C  19)                  1.3935         0.616833   
     23. B(C  21,C  20)                  1.3956         0.612083   
     24. B(C  21,C  16)                  1.4049         0.591532   
     25. B(Cl 22,C  18)                  1.7206         0.416175   
     26. B(H  23,C   0)                  1.0876         0.363338   
     27. B(H  24,C   1)                  1.0901         0.359907   
     28. B(H  25,C   3)                  1.0864         0.364834   
     29. B(H  26,C   5)                  1.0869         0.364272   
     30. B(H  27,C  10)                  1.0864         0.364833   
     31. B(H  28,C  12)                  1.0869         0.364273   
     32. B(H  29,C  13)                  1.0876         0.363339   
     33. B(H  30,C  14)                  1.0901         0.359907   
     34. B(H  31,C  17)                  1.0864         0.364834   
     35. B(H  32,C  19)                  1.0869         0.364274   
     36. B(H  33,C  20)                  1.0876         0.363340   
     37. B(H  34,C  21)                  1.0901         0.359905   
     38. A(C   1,C   0,H  23)          120.0045         0.352676   
     39. A(C   5,C   0,H  23)          120.0888         0.353138   
     40. A(C   1,C   0,C   5)          119.9064         0.432665   
     41. A(C   0,C   1,H  24)          119.4781         0.352110   
     42. A(C   0,C   1,C   2)          120.8706         0.429422   
     43. A(C   2,C   1,H  24)          119.6499         0.350084   
     44. A(C   3,C   2,P   7)          122.6240         0.436281   
     45. A(C   1,C   2,C   3)          118.6847         0.427442   
     46. A(C   1,C   2,P   7)          118.6905         0.435624   
     47. A(C   2,C   3,H  25)          120.7400         0.351386   
     48. A(C   4,C   3,H  25)          119.0659         0.352948   
     49. A(C   2,C   3,C   4)          120.1941         0.430102   
     50. A(C   5,C   4,Cl  6)          119.7532         0.422316   
     51. A(C   3,C   4,C   5)          120.6644         0.432924   
     52. A(C   3,C   4,Cl  6)          119.5822         0.421550   
     53. A(C   0,C   5,H  26)          119.8008         0.353292   
     54. A(C   0,C   5,C   4)          119.6792         0.433492   
     55. A(C   4,C   5,H  26)          120.5197         0.353464   
     56. A(O   8,P   7,C   9)          110.7270         0.524923   
     57. A(C   9,P   7,C  16)          108.1868         0.444677   
     58. A(C   2,P   7,C   9)          108.1870         0.444677   
     59. A(C   2,P   7,C  16)          108.1869         0.444677   
     60. A(C   2,P   7,O   8)          110.7268         0.524923   
     61. A(O   8,P   7,C  16)          110.7268         0.524922   
     62. A(C  10,C   9,C  14)          118.6847         0.427442   
     63. A(P   7,C   9,C  14)          118.6905         0.435624   
     64. A(P   7,C   9,C  10)          122.6240         0.436281   
     65. A(C   9,C  10,C  11)          120.1941         0.430103   
     66. A(C   9,C  10,H  27)          120.7398         0.351386   
     67. A(C  11,C  10,H  27)          119.0661         0.352948   
     68. A(C  12,C  11,Cl 15)          119.7531         0.422317   
     69. A(C  10,C  11,Cl 15)          119.5822         0.421550   
     70. A(C  10,C  11,C  12)          120.6645         0.432925   
     71. A(C  13,C  12,H  28)          119.8008         0.353292   
     72. A(C  11,C  12,H  28)          120.5198         0.353464   
     73. A(C  11,C  12,C  13)          119.6791         0.433492   
     74. A(C  14,C  13,H  29)          120.0045         0.352676   
     75. A(C  12,C  13,H  29)          120.0887         0.353138   
     76. A(C  12,C  13,C  14)          119.9065         0.432665   
     77. A(C  13,C  14,H  30)          119.4782         0.352111   
     78. A(C   9,C  14,H  30)          119.6499         0.350084   
     79. A(C   9,C  14,C  13)          120.8706         0.429423   
     80. A(P   7,C  16,C  21)          118.6904         0.435624   
     81. A(P   7,C  16,C  17)          122.6240         0.436281   
     82. A(C  17,C  16,C  21)          118.6848         0.427442   
     83. A(C  16,C  17,C  18)          120.1940         0.430102   
     84. A(C  18,C  17,H  31)          119.0661         0.352948   
     85. A(C  16,C  17,H  31)          120.7399         0.351386   
     86. A(C  17,C  18,C  19)          120.6645         0.432924   
     87. A(C  19,C  18,Cl 22)          119.7531         0.422316   
     88. A(C  17,C  18,Cl 22)          119.5821         0.421550   
     89. A(C  18,C  19,C  20)          119.6792         0.433492   
     90. A(C  20,C  19,H  32)          119.8008         0.353292   
     91. A(C  18,C  19,H  32)          120.5198         0.353464   
     92. A(C  21,C  20,H  33)          120.0046         0.352676   
     93. A(C  19,C  20,H  33)          120.0888         0.353138   
     94. A(C  19,C  20,C  21)          119.9063         0.432665   
     95. A(C  20,C  21,H  34)          119.4780         0.352110   
     96. A(C  16,C  21,H  34)          119.6499         0.350084   
     97. A(C  16,C  21,C  20)          120.8707         0.429423   
     98. D(H  24,C   1,C   0,C   5)    179.5139         0.025885   
     99. D(C   2,C   1,C   0,H  23)   -179.8531         0.025885   
    100. D(C   2,C   1,C   0,C   5)     -0.0589         0.025885   
    101. D(H  24,C   1,C   0,H  23)     -0.2803         0.025885   
    102. D(P   7,C   2,C   1,C   0)   -179.4465         0.024086   
    103. D(C   3,C   2,C   1,C   0)      0.2330         0.024086   
    104. D(C   3,C   2,C   1,H  24)   -179.3391         0.024086   
    105. D(P   7,C   2,C   1,H  24)      0.9814         0.024086   
    106. D(H  25,C   3,C   2,P   7)     -0.5471         0.024514   
    107. D(H  25,C   3,C   2,C   1)    179.7868         0.024514   
    108. D(C   4,C   3,C   2,P   7)    179.4437         0.024514   
    109. D(C   4,C   3,C   2,C   1)     -0.2224         0.024514   
    110. D(Cl  6,C   4,C   3,C   2)   -179.7910         0.025909   
    111. D(C   5,C   4,C   3,H  25)   -179.9694         0.025909   
    112. D(C   5,C   4,C   3,C   2)      0.0397         0.025909   
    113. D(Cl  6,C   4,C   3,H  25)      0.2000         0.025909   
    114. D(H  26,C   5,C   4,Cl  6)     -0.2129         0.026474   
    115. D(C   0,C   5,C   4,Cl  6)    179.9684         0.026474   
    116. D(C   0,C   5,C   4,C   3)      0.1380         0.026474   
    117. D(H  26,C   5,C   0,H  23)     -0.1540         0.026312   
    118. D(C   4,C   5,C   0,C   1)     -0.1280         0.026312   
    119. D(H  26,C   5,C   4,C   3)    179.9568         0.026474   
    120. D(C   4,C   5,C   0,H  23)    179.6661         0.026312   
    121. D(H  26,C   5,C   0,C   1)   -179.9481         0.026312   
    122. D(C  16,P   7,C   2,C   1)     86.6415         0.004420   
    123. D(C   9,P   7,C   2,C   3)     23.9590         0.004420   
    124. D(C   9,P   7,C   2,C   1)   -156.3749         0.004420   
    125. D(O   8,P   7,C   2,C   3)    145.4674         0.004420   
    126. D(O   8,P   7,C   2,C   1)    -34.8665         0.004420   
    127. D(C  10,C   9,P   7,O   8)    145.4685         0.004420   
    128. D(C  10,C   9,P   7,C   2)    -93.0233         0.004420   
    129. D(C  14,C   9,P   7,O   8)    -34.8650         0.004420   
    130. D(C  14,C   9,P   7,C   2)     86.6432         0.004420   
    131. D(C  10,C   9,P   7,C  16)     23.9605         0.004420   
    132. D(H  27,C  10,C   9,C  14)    179.7871         0.024514   
    133. D(H  27,C  10,C   9,P   7)     -0.5465         0.024514   
    134. D(C  11,C  10,C   9,C  14)     -0.2222         0.024514   
    135. D(C  11,C  10,C   9,P   7)    179.4443         0.024514   
    136. D(Cl 15,C  11,C  10,H  27)      0.1995         0.025909   
    137. D(Cl 15,C  11,C  10,C   9)   -179.7914         0.025909   
    138. D(C  12,C  11,C  10,H  27)   -179.9694         0.025909   
    139. D(C  12,C  11,C  10,C   9)      0.0396         0.025909   
    140. D(H  28,C  12,C  11,Cl 15)     -0.2127         0.026474   
    141. D(H  28,C  12,C  11,C  10)    179.9566         0.026474   
    142. D(C  13,C  12,C  11,Cl 15)    179.9685         0.026474   
    143. D(C  13,C  12,C  11,C  10)      0.1378         0.026474   
    144. D(H  29,C  13,C  12,H  28)     -0.1539         0.026312   
    145. D(H  29,C  13,C  12,C  11)    179.6662         0.026312   
    146. D(C  14,C  13,C  12,H  28)   -179.9479         0.026312   
    147. D(C  14,C  13,C  12,C  11)     -0.1278         0.026312   
    148. D(H  30,C  14,C  13,H  29)     -0.2803         0.025885   
    149. D(H  30,C  14,C  13,C  12)    179.5139         0.025885   
    150. D(C   9,C  14,C  13,H  29)   -179.8530         0.025885   
    151. D(C   9,C  14,C  13,C  12)     -0.0588         0.025885   
    152. D(H  30,C  14,C   9,C  10)   -179.3393         0.024086   
    153. D(H  30,C  14,C   9,P   7)      0.9809         0.024086   
    154. D(C  13,C  14,C   9,C  10)      0.2327         0.024086   
    155. D(C  13,C  14,C   9,P   7)   -179.4471         0.024086   
    156. D(C  21,C  16,P   7,O   8)    -34.8673         0.004420   
    157. D(C  21,C  16,P   7,C   2)   -156.3754         0.004420   
    158. D(C  17,C  16,P   7,C   9)    -93.0253         0.004420   
    159. D(C  17,C  16,P   7,O   8)    145.4665         0.004420   
    160. D(C  17,C  16,P   7,C   2)     23.9585         0.004420   
    161. D(H  31,C  17,C  16,C  21)    179.7875         0.024514   
    162. D(H  31,C  17,C  16,P   7)     -0.5463         0.024514   
    163. D(C  18,C  17,C  16,C  21)     -0.2221         0.024514   
    164. D(C  18,C  17,C  16,P   7)    179.4440         0.024514   
    165. D(Cl 22,C  18,C  17,H  31)      0.1990         0.025909   
    166. D(Cl 22,C  18,C  17,C  16)   -179.7915         0.025909   
    167. D(C  19,C  18,C  17,H  31)   -179.9702         0.025909   
    168. D(C  19,C  18,C  17,C  16)      0.0393         0.025909   
    169. D(H  32,C  19,C  18,Cl 22)     -0.2126         0.026473   
    170. D(H  32,C  19,C  18,C  17)    179.9569         0.026473   
    171. D(C  20,C  19,C  18,Cl 22)    179.9688         0.026473   
    172. D(C  20,C  19,C  18,C  17)      0.1383         0.026473   
    173. D(H  33,C  20,C  19,H  32)     -0.1542         0.026312   
    174. D(H  33,C  20,C  19,C  18)    179.6656         0.026312   
    175. D(C  21,C  20,C  19,H  32)   -179.9480         0.026312   
    176. D(C  21,C  20,C  19,C  18)     -0.1282         0.026312   
    177. D(H  34,C  21,C  20,C  19)    179.5143         0.025885   
    178. D(C  16,C  21,C  20,H  33)   -179.8528         0.025885   
    179. D(C  16,C  21,C  20,C  19)     -0.0588         0.025885   
    180. D(H  34,C  21,C  16,C  17)   -179.3395         0.024086   
    181. D(H  34,C  21,C  16,P   7)      0.9810         0.024086   
    182. D(C  20,C  21,C  16,C  17)      0.2328         0.024086   
    183. D(H  34,C  21,C  20,H  33)     -0.2797         0.025885   
    184. D(C  20,C  21,C  16,P   7)   -179.4466         0.024086   
    -----------------------------------------------------------------

Number of atoms                         .... 35
Number of degrees of freedom            .... 184


         *************************************************************
         *                GEOMETRY OPTIMIZATION CYCLE   1            *
         *************************************************************
---------------------------------
CARTESIAN COORDINATES (ANGSTROEM)
---------------------------------
  C     -2.409121    3.015772    1.647333
  C     -1.718349    1.821842    1.859597
  C     -0.721536    1.396981    0.965403
  C     -0.428071    2.199813   -0.146652
  C     -1.121890    3.392745   -0.353730
  C     -2.111038    3.802917    0.536762
  Cl    -0.752855    4.362790   -1.726065
  P      0.122825   -0.161843    1.288161
  O      0.290758   -0.383137    2.781658
  C      1.725752   -0.113901    0.466348
  C      1.926959   -0.614260   -0.828443
  C      3.188141   -0.540617   -1.421189
  C      4.261430    0.027345   -0.739208
  C      4.074993    0.524584    0.549130
  C      2.815954    0.453459    1.147001
  Cl     3.416011   -1.154435   -3.012345
  C     -0.847245   -1.489912    0.551782
  C     -1.732551   -1.277635   -0.515223
  C     -2.450502   -2.345792   -1.054610
  C     -2.300353   -3.632666   -0.543687
  C     -1.426611   -3.855645    0.518704
  C     -0.706130   -2.791152    1.062257
  Cl    -3.528226   -2.068450   -2.366888
  H     -3.176521    3.332407    2.349923
  H     -1.951640    1.215432    2.734960
  H      0.338852    1.905041   -0.857497
  H     -2.649474    4.732826    0.373577
  H      1.108126   -1.063075   -1.383818
  H      5.242872    0.082851   -1.202849
  H      4.909752    0.964566    1.089857
  H      2.679805    0.837366    2.158187
  H     -1.870065   -0.284421   -0.933526
  H     -2.861230   -4.462771   -0.965129
  H     -1.308308   -4.856925    0.926422
  H     -0.030513   -2.972099    1.898452

----------------------------
CARTESIAN COORDINATES (A.U.)
----------------------------
  NO LB      ZA    FRAG     MASS         X           Y           Z
   0 C     6.0000    0    12.011   -4.552579    5.698983    3.113008
   1 C     6.0000    0    12.011   -3.247209    3.442782    3.514129
   2 C     6.0000    0    12.011   -1.363505    2.639912    1.824347
   3 C     6.0000    0    12.011   -0.808937    4.157044   -0.277132
   4 C     6.0000    0    12.011   -2.120065    6.411359   -0.668453
   5 C     6.0000    0    12.011   -3.989284    7.186472    1.014333
   6 Cl   17.0000    0    35.453   -1.422690    8.244478   -3.261790
   7 P    15.0000    0    30.974    0.232106   -0.305839    2.434272
   8 O     8.0000    0    15.999    0.549453   -0.724024    5.256572
   9 C     6.0000    0    12.011    3.261199   -0.215242    0.881270
  10 C     6.0000    0    12.011    3.641425   -1.160783   -1.565530
  11 C     6.0000    0    12.011    6.024713   -1.021618   -2.685658
  12 C     6.0000    0    12.011    8.052936    0.051675   -1.396901
  13 C     6.0000    0    12.011    7.700621    0.991320    1.037705
  14 C     6.0000    0    12.011    5.321382    0.856913    2.167518
  15 Cl   17.0000    0    35.453    6.455325   -2.181566   -5.692507
  16 C     6.0000    0    12.011   -1.601061   -2.815526    1.042717
  17 C     6.0000    0    12.011   -3.274047   -2.414380   -0.973630
  18 C     6.0000    0    12.011   -4.630778   -4.432904   -1.992924
  19 C     6.0000    0    12.011   -4.347037   -6.864744   -1.027420
  20 C     6.0000    0    12.011   -2.695904   -7.286113    0.980209
  21 C     6.0000    0    12.011   -1.334392   -5.274513    2.007375
  22 Cl   17.0000    0    35.453   -6.667381   -3.908804   -4.472770
  23 H     1.0000    0     1.008   -6.002755    6.297337    4.440711
  24 H     1.0000    0     1.008   -3.688065    2.296834    5.168325
  25 H     1.0000    0     1.008    0.640337    3.600006   -1.620434
  26 H     1.0000    0     1.008   -5.006780    8.943745    0.705958
  27 H     1.0000    0     1.008    2.094055   -2.008921   -2.615037
  28 H     1.0000    0     1.008    9.907592    0.156566   -2.273055
  29 H     1.0000    0     1.008    9.278087    1.822766    2.059531
  30 H     1.0000    0     1.008    5.064098    1.582392    4.078382
  31 H     1.0000    0     1.008   -3.533911   -0.537478   -1.764108
  32 H     1.0000    0     1.008   -5.406941   -8.433415   -1.823829
  33 H     1.0000    0     1.008   -2.472344   -9.178258    1.750684
  34 H     1.0000    0     1.008   -0.057661   -5.616453    3.587554

--------------------------------
INTERNAL COORDINATES (ANGSTROEM)
--------------------------------
 C      0   0   0     0.000000000000     0.00000000     0.00000000
 C      1   0   0     1.395596935573     0.00000000     0.00000000
 C      2   1   0     1.404893567473   120.87061954     0.00000000
 C      3   2   1     1.402614433647   118.68470968     0.23296881
 C      4   3   2     1.395475854133   120.19411509   359.77756967
 C      5   4   3     1.392706299818   120.66440524     0.03970159
 Cl     5   4   3     1.720603814210   119.58216344   180.20903750
 P      3   2   1     1.801957404563   118.69049129   180.55352264
 O      8   3   2     1.519113496726   110.72681664   325.13346893
 C      8   3   2     1.801957271875   108.18703549   203.62513622
 C     10   8   3     1.402614387282   122.62398255   266.97672683
 C     11  10   8     1.395475241303   120.19407594   179.44430672
 C     12  11  10     1.392705351223   120.66451202     0.03964916
 C     13  12  11     1.393492081188   119.67912157     0.13780705
 C     14  13  12     1.395595823219   119.90646983   359.87217639
 Cl    12  11  10     1.720603001962   119.58216243   180.20862309
 C      8   3   2     1.801959240744   108.18692499    86.64149951
 C     17   8   3     1.402614668535   122.62399879    23.95848881
 C     18  17   8     1.395475313583   120.19396238   179.44401856
 C     19  18  17     1.392706618784   120.66451152     0.03930056
 C     20  19  18     1.393491784650   119.67920920     0.13831390
 C     21  20  19     1.395595959517   119.90632006   359.87183181
 Cl    19  18  17     1.720604880391   119.58213678   180.20851416
 H      1   2   3     1.087562959706   120.00453893   180.14685483
 H      2   1   3     1.090145935437   119.47806120   179.57280234
 H      4   3   2     1.086444675967   120.73997270   179.78680866
 H      6   5   4     1.086864029491   120.51971421   179.95676514
 H     11  10   8     1.086445478033   120.73981063   359.45354309
 H     13  12  11     1.086863511339   120.51980863   179.95657898
 H     14  13  12     1.087562612880   120.08867850   179.66617841
 H     15  14  13     1.090145981713   119.47817424   179.51389224
 H     18  17   8     1.086444453159   120.73990616   359.45370280
 H     20  19  18     1.086862769405   120.51976410   179.95687005
 H     21  20  19     1.087562046843   120.08875785   179.66564815
 H     22  21  20     1.090147799852   119.47804773   179.51427386

---------------------------
INTERNAL COORDINATES (A.U.)
---------------------------
 C      0   0   0     0.000000000000     0.00000000     0.00000000
 C      1   0   0     2.637296001572     0.00000000     0.00000000
 C      2   1   0     2.654864089831   120.87061954     0.00000000
 C      3   2   1     2.650557151077   118.68470968     0.23296881
 C      4   3   2     2.637067190812   120.19411509   359.77756967
 C      5   4   3     2.631833491642   120.66440524     0.03970159
 Cl     5   4   3     3.251469993838   119.58216344   180.20903750
 P      3   2   1     3.405205999616   118.69049129   180.55352264
 O      8   3   2     2.870708475155   110.72681664   325.13346893
 C      8   3   2     3.405205748871   108.18703549   203.62513622
 C     10   8   3     2.650557063461   122.62398255   266.97672683
 C     11  10   8     2.637066032730   120.19407594   179.44430672
 C     12  11  10     2.631831699059   120.66451202     0.03964916
 C     13  12  11     2.633318403234   119.67912157     0.13780705
 C     14  13  12     2.637293899529   119.90646983   359.87217639
 Cl    12  11  10     3.251468458911   119.58216243   180.20862309
 C      8   3   2     3.405209469494   108.18692499    86.64149951
 C     17   8   3     2.650557594952   122.62399879    23.95848881
 C     18  17   8     2.637066169319   120.19396238   179.44401856
 C     19  18  17     2.631834094402   120.66451152     0.03930056
 C     20  19  18     2.633317842857   119.67920920     0.13831390
 C     21  20  19     2.637294157093   119.90632006   359.87183181
 Cl    19  18  17     3.251472008627   119.58213678   180.20851416
 H      1   2   3     2.055196147242   120.00453893   180.14685483
 H      2   1   3     2.060077263983   119.47806120   179.57280234
 H      4   3   2     2.053082897235   120.73997270   179.78680866
 H      6   5   4     2.053875360549   120.51971421   179.95676514
 H     11  10   8     2.053084412920   120.73981063   359.45354309
 H     13  12  11     2.053874381383   120.51980863   179.95657898
 H     14  13  12     2.055195491835   120.08867850   179.66617841
 H     15  14  13     2.060077351433   119.47817424   179.51389224
 H     18  17   8     2.053082476189   120.73990616   359.45370280
 H     20  19  18     2.053872979330   120.51976410   179.95687005
 H     21  20  19     2.055194422180   120.08875785   179.66564815
 H     22  21  20     2.060080787218   119.47804773   179.51427386

---------------------
BASIS SET INFORMATION
---------------------
There are 5 groups of distinct atoms

 Group   1 Type C   : 7s4p1d contracted to 3s2p1d pattern {511/31/1}
 Group   2 Type Cl  : 10s7p1d contracted to 4s3p1d pattern {5311/511/1}
 Group   3 Type P   : 10s7p1d contracted to 4s3p1d pattern {5311/511/1}
 Group   4 Type O   : 7s4p1d contracted to 3s2p1d pattern {511/31/1}
 Group   5 Type H   : 4s1p contracted to 2s1p pattern {31/1}

Atom   0C    basis set group =>   1
Atom   1C    basis set group =>   1
Atom   2C    basis set group =>   1
Atom   3C    basis set group =>   1
Atom   4C    basis set group =>   1
Atom   5C    basis set group =>   1
Atom   6Cl   basis set group =>   2
Atom   7P    basis set group =>   3
Atom   8O    basis set group =>   4
Atom   9C    basis set group =>   1
Atom  10C    basis set group =>   1
Atom  11C    basis set group =>   1
Atom  12C    basis set group =>   1
Atom  13C    basis set group =>   1
Atom  14C    basis set group =>   1
Atom  15Cl   basis set group =>   2
Atom  16C    basis set group =>   1
Atom  17C    basis set group =>   1
Atom  18C    basis set group =>   1
Atom  19C    basis set group =>   1
Atom  20C    basis set group =>   1
Atom  21C    basis set group =>   1
Atom  22Cl   basis set group =>   2
Atom  23H    basis set group =>   5
Atom  24H    basis set group =>   5
Atom  25H    basis set group =>   5
Atom  26H    basis set group =>   5
Atom  27H    basis set group =>   5
Atom  28H    basis set group =>   5
Atom  29H    basis set group =>   5
Atom  30H    basis set group =>   5
Atom  31H    basis set group =>   5
Atom  32H    basis set group =>   5
Atom  33H    basis set group =>   5
Atom  34H    basis set group =>   5
---------------------------------
AUXILIARY/J BASIS SET INFORMATION
---------------------------------
There are 5 groups of distinct atoms

 Group   1 Type C   : 12s5p4d2f1g contracted to 6s4p3d1f1g pattern {711111/2111/211/2/1}
 Group   2 Type Cl  : 14s5p5d2f1g contracted to 8s4p3d1f1g pattern {71111111/2111/311/2/1}
 Group   3 Type P   : 14s5p5d2f1g contracted to 8s4p3d1f1g pattern {71111111/2111/311/2/1}
 Group   4 Type O   : 12s5p4d2f1g contracted to 6s4p3d1f1g pattern {711111/2111/211/2/1}
 Group   5 Type H   : 5s2p1d contracted to 3s1p1d pattern {311/2/1}

Atom   0C    basis set group =>   1
Atom   1C    basis set group =>   1
Atom   2C    basis set group =>   1
Atom   3C    basis set group =>   1
Atom   4C    basis set group =>   1
Atom   5C    basis set group =>   1
Atom   6Cl   basis set group =>   2
Atom   7P    basis set group =>   3
Atom   8O    basis set group =>   4
Atom   9C    basis set group =>   1
Atom  10C    basis set group =>   1
Atom  11C    basis set group =>   1
Atom  12C    basis set group =>   1
Atom  13C    basis set group =>   1
Atom  14C    basis set group =>   1
Atom  15Cl   basis set group =>   2
Atom  16C    basis set group =>   1
Atom  17C    basis set group =>   1
Atom  18C    basis set group =>   1
Atom  19C    basis set group =>   1
Atom  20C    basis set group =>   1
Atom  21C    basis set group =>   1
Atom  22Cl   basis set group =>   2
Atom  23H    basis set group =>   5
Atom  24H    basis set group =>   5
Atom  25H    basis set group =>   5
Atom  26H    basis set group =>   5
Atom  27H    basis set group =>   5
Atom  28H    basis set group =>   5
Atom  29H    basis set group =>   5
Atom  30H    basis set group =>   5
Atom  31H    basis set group =>   5
Atom  32H    basis set group =>   5
Atom  33H    basis set group =>   5
Atom  34H    basis set group =>   5


           ************************************************************
           *        Program running with 6 parallel MPI-processes     *
           *              working on a common directory               *
           ************************************************************
------------------------------------------------------------------------------
                             ORCA STARTUP CALCULATIONS
                           -- RI-GTO INTEGRALS CHOSEN --
------------------------------------------------------------------------------
------------------------------------------------------------------------------
                   ___                                                        
                  /   \      - P O W E R E D   B Y -                         
                 /     \                                                     
                 |  |  |   _    _      __       _____    __    __             
                 |  |  |  | |  | |    /  \     |  _  \  |  |  /  |          
                  \  \/   | |  | |   /    \    | | | |  |  | /  /          
                 / \  \   | |__| |  /  /\  \   | |_| |  |  |/  /          
                |  |  |   |  __  | /  /__\  \  |    /   |      \           
                |  |  |   | |  | | |   __   |  |    \   |  |\   \          
                \     /   | |  | | |  |  |  |  | |\  \  |  | \   \       
                 \___/    |_|  |_| |__|  |__|  |_| \__\ |__|  \__/        
                                                                              
                      - O R C A' S   B I G   F R I E N D -                    
                                      &                                       
                       - I N T E G R A L  F E E D E R -                       
                                                                              
 v1 FN, 2020, v2 2021, v3 2022-2024                                           
------------------------------------------------------------------------------


----------------------
SHARK INTEGRAL PACKAGE
----------------------

Number of atoms                             ...     35
Number of basis functions                   ...    398
Number of shells                            ...    182
Maximum angular momentum                    ...      2
Integral batch strategy                     ... SHARK/LIBINT Hybrid
RI-J (if used) integral strategy            ... SPLIT-RIJ (Revised 2003 algorithm where possible)
Printlevel                                  ...      1
Contraction scheme used                     ... SEGMENTED contraction
Prescreening option                         ... SCHWARTZ
   Thresh                                   ... 2.500e-11
   Tcut                                     ... 2.500e-12
   Tpresel                                  ... 2.500e-12 
Coulomb Range Separation                    ... NOT USED
Exchange Range Separation                   ... NOT USED
Multipole approximations                    ... NOT USED
Finite Nucleus Model                        ... NOT USED
CABS basis                                  ... NOT available
Auxiliary Coulomb fitting basis             ... AVAILABLE
   # of basis functions in Aux-J            ...   1267
   # of shells in Aux-J                     ...    413
   Maximum angular momentum in Aux-J        ...      4
Auxiliary J/K fitting basis                 ... NOT available
Auxiliary Correlation fitting basis         ... NOT available
Auxiliary 'external' fitting basis          ... NOT available

Checking pre-screening integrals            ... done (  0.0 sec) Dimension = 182
Check shell pair data                       ... done (  0.0 sec)
Shell pair information
Shell pair cut-off parameter TPreSel        ...   2.5e-12
Total number of shell pairs                 ...     16653
Shell pairs after pre-screening             ...     12156
Total number of primitive shell pairs       ...     65355
Primitive shell pairs kept                  ...     29255
          la=0 lb=0:   3528 shell pairs
          la=1 lb=0:   4512 shell pairs
          la=1 lb=1:   1499 shell pairs
          la=2 lb=0:   1481 shell pairs
          la=2 lb=1:    989 shell pairs
          la=2 lb=2:    147 shell pairs

Calculating one electron integrals          ... done (  0.0 sec)
Calculating RI/J V-Matrix + Cholesky decomp.... done (  0.1 sec)
Calculating Nuclear repulsion               ... done (  0.0 sec) ENN=   2376.520119319456 Eh

Diagonalization of the overlap matrix:
Smallest eigenvalue                        ... 2.496e-04
Time for diagonalization                   ...    0.021 sec
Threshold for overlap eigenvalues          ... 1.000e-07
Number of eigenvalues below threshold      ... 0
Time for construction of square roots      ...    0.013 sec
Total time needed                          ...    0.035 sec

-------------------
DFT GRID GENERATION
-------------------

General Integration Accuracy     IntAcc      ... 4.388
Radial Grid Type                 RadialGrid  ... OptM3 with GC (2021)
Angular Grid (max. ang.)         AngularGrid ... 4 (Lebedev-302)
Angular grid pruning method      GridPruning ... 4 (adaptive)
Weight generation scheme         WeightScheme... mBecke (2022)
Basis function cutoff            BFCut       ... 1.0000e-11
Integration weight cutoff        WCut        ... 1.0000e-14
Partially contracted basis set               ... off
Rotationally invariant grid construction     ... off
Angular grids for H and He will be reduced by one unit

Total number of grid points                  ...   180821
Total number of batches                      ...     2844
Average number of points per batch           ...       63
Average number of grid points per atom       ...     5166
Initializing property integral containers    ... done (  0.0 sec)

SHARK setup successfully completed in   1.4 seconds

Maximum memory used throughout the entire STARTUP-calculation: 50.2 MB


           ************************************************************
           *        Program running with 6 parallel MPI-processes     *
           *              working on a common directory               *
           ************************************************************
-------------------------------------------------------------------------------
                                 ORCA GUESS
                   Start orbitals & Density for SCF / CASSCF
-------------------------------------------------------------------------------

------------
SCF SETTINGS
------------
Hamiltonian:
 Density Functional     Method          .... DFT(GTOs)
 Exchange Functional    Exchange        .... B88
   X-Alpha parameter    XAlpha          ....  0.666667
   Becke's b parameter  XBeta           ....  0.004200
 Correlation Functional Correlation     .... P86
 LDA part of GGA corr.  LDAOpt          .... PW91-LDA
 Gradients option       PostSCFGGA      .... off
   NL short-range parameter             ....  4.400000
 RI-approximation to the Coulomb term is turned on
   Number of AuxJ basis functions       .... 1267


General Settings:
 Integral files         IntName         .... data/geom_opt_PO_BP86/121600/121600
 Hartree-Fock type      HFTyp           .... RHF
 Total Charge           Charge          ....    0
 Multiplicity           Mult            ....    1
 Number of Electrons    NEL             ....  194
 Basis Dimension        Dim             ....  398
 Nuclear Repulsion      ENuc            ....   2376.5201193195 Eh

Convergence Acceleration:
 AO-DIIS                CNVDIIS         .... on
   Start iteration      DIISMaxIt       ....    12
   Startup error        DIISStart       ....  0.200000
   # of expansion vecs  DIISMaxEq       ....     5
   Bias factor          DIISBfac        ....   1.050
   Max. coefficient     DIISMaxC        ....  10.000
 MO-DIIS                CNVKDIIS        .... off
 Trust-Rad. Augm. Hess. CNVTRAH         .... auto
   Auto Start mean grad. ratio tolernc. ....  1.125000
   Auto Start start iteration           ....    50
   Auto Start num. interpolation iter.  ....    10
   Max. Number of Micro iterations      ....    24
   Max. Number of Macro iterations      .... Maxiter - #DIIS iter
   Number of Davidson start vectors     ....     2
   Converg. threshold    (grad. norm)   ....   1.000e-05
   Grad. Scal. Fac. for Micro threshold ....   0.100
   Minimum threshold for Micro iter.    ....   1.000e-02
   NR start threshold (gradient norm)   ....   1.000e-04
   Initial trust radius                 ....   0.400
   Minimum AH scaling param. (alpha)    ....   1.000
   Maximum AH scaling param. (alpha)    .... 1000.000
   Quad. conv. algorithm                .... NR
   White noise on init. David. guess    .... on
   Maximum white noise                  ....   0.010
   Pseudo random numbers                .... off
   Inactive MOs                         .... canonical
   Orbital update algorithm             .... Taylor
   Preconditioner                       .... Diag
   Full preconditioner red. dimension   ....   250
 SOSCF                  CNVSOSCF        .... on
   Start iteration      SOSCFMaxIt      ....   150
   Startup grad/error   SOSCFStart      ....  0.003300
   Hessian update       SOSCFHessUp     .... L-BFGS
 Level Shifting         CNVShift        .... on
   Level shift para.    LevelShift      ....    0.2500
   Turn off err/grad.   ShiftErr        ....    0.0010
 Zerner damping         CNVZerner       .... off
 Static damping         CNVDamp         .... on
   Fraction old density DampFac         ....    0.7000
   Max. Damping (<1)    DampMax         ....    0.9800
   Min. Damping (>=0)   DampMin         ....    0.0000
   Turn off err/grad.   DampErr         ....    0.1000

SCF Procedure:
 Maximum # iterations   MaxIter         ....   125
 SCF integral mode      SCFMode         .... Direct
   Integral package                     .... SHARK and LIBINT hybrid scheme
 Reset frequency        DirectResetFreq ....    20
 Integral Threshold     Thresh          ....  2.500e-11 Eh
 Primitive CutOff       TCut            ....  2.500e-12 Eh

Convergence Tolerance:
 Convergence Check Mode ConvCheckMode   .... Total+1el-Energy
 Convergence forced     ConvForced      .... 0
 Energy Change          TolE            ....  1.000e-08 Eh
 1-El. energy change                    ....  1.000e-05 Eh
 Orbital Gradient       TolG            ....  1.000e-05
 Orbital Rotation angle TolX            ....  1.000e-05
 DIIS Error             TolErr          ....  5.000e-07

------------------------------
INITIAL GUESS: MODEL POTENTIAL
------------------------------
Loading Hartree-Fock densities                     ... done
Calculating cut-offs                               ... done
Initializing the effective Hamiltonian             ... done
Setting up the integral package (SHARK)            ... done
Starting the Coulomb interaction                   ... done (   0.2 sec)
Making the grid                                    ... done (   0.3 sec)
Mapping shells                                     ... done
Starting the XC term evaluation                    ... done (   0.2 sec)
  promolecular density results
     # of electrons  =    193.991758872
     EX              =   -209.595237703
     EC              =     -7.633057123
     EX+EC           =   -217.228294825
Transforming the Hamiltonian                       ... done (   0.0 sec)
Diagonalizing the Hamiltonian                      ... done (   0.0 sec)
Back transforming the eigenvectors                 ... done (   0.0 sec)
Now organizing SCF variables                       ... done
                      ------------------
                      INITIAL GUESS DONE (   0.7 sec)
                      ------------------
             **** ENERGY FILE WAS UPDATED (data/geom_opt_PO_BP86/121600/121600.en.tmp) ****
Finished Guess after   0.9 sec
Maximum memory used throughout the entire GUESS-calculation: 28.3 MB


           ************************************************************
           *        Program running with 6 parallel MPI-processes     *
           *              working on a common directory               *
           ************************************************************

-------------------------------------------------------------------------------------------
                                      ORCA LEAN-SCF
                              memory conserving SCF solver
-------------------------------------------------------------------------------------------

----------------------------------------D-I-I-S--------------------------------------------
Iteration    Energy (Eh)           Delta-E    RMSDP     MaxDP     DIISErr   Damp  Time(sec)
-------------------------------------------------------------------------------------------
               ***  Starting incremental Fock matrix formation  ***
    1    -2488.9901392048491289     0.00e+00  3.20e-03  1.60e-01  3.34e-01  0.700   1.0
    2    -2489.2083214600065730    -2.18e-01  1.80e-03  6.03e-02  7.46e-02  0.700   1.1
                               ***Turning on AO-DIIS***
    3    -2489.2716339260509812    -6.33e-02  6.08e-04  1.92e-02  3.20e-02  0.700   1.1
    4    -2489.3163096289740679    -4.47e-02  1.16e-03  4.79e-02  2.10e-02  0.000   0.9
    5    -2489.4188608958888835    -1.03e-01  3.03e-04  1.05e-02  6.23e-03  0.000   0.9
                              *** Initializing SOSCF ***
---------------------------------------S-O-S-C-F--------------------------------------
Iteration    Energy (Eh)           Delta-E    RMSDP     MaxDP     MaxGrad    Time(sec)
--------------------------------------------------------------------------------------
    6    -2489.4201319454737131    -1.27e-03  9.63e-05  3.06e-03  2.12e-03     1.0
               *** Restarting incremental Fock matrix formation ***
    7    -2489.4202176410194625    -8.57e-05  9.96e-05  2.46e-03  3.67e-04     1.1
    8    -2489.4201778236069913     3.98e-05  5.55e-05  1.53e-03  9.41e-04     0.9
    9    -2489.4202389709857925    -6.11e-05  2.94e-05  9.26e-04  2.01e-04     0.9
   10    -2489.4202369886238557     1.98e-06  1.76e-05  4.94e-04  2.77e-04     0.9
   11    -2489.4202406029230588    -3.61e-06  1.45e-05  3.55e-04  9.91e-05     0.9
   12    -2489.4202396757395945     9.27e-07  9.16e-06  2.31e-04  1.58e-04     0.8
   13    -2489.4202410071143277    -1.33e-06  6.97e-06  2.99e-04  2.95e-05     0.8
   14    -2489.4202408501791979     1.57e-07  4.54e-06  1.80e-04  6.77e-05     0.9
   15    -2489.4202410792690898    -2.29e-07  3.01e-06  1.30e-04  1.19e-05     0.9
   16    -2489.4202410675466126     1.17e-08  1.63e-06  6.38e-05  1.33e-05     0.8
   17    -2489.4202411073351868    -3.98e-08  6.87e-07  3.08e-05  2.36e-06     0.8
                  *** Gradient check signals convergence ***

               *****************************************************
               *                     SUCCESS                       *
               *           SCF CONVERGED AFTER  17 CYCLES          *
               *****************************************************

             **** ENERGY FILE WAS UPDATED (data/geom_opt_PO_BP86/121600/121600.en.tmp) ****

----------------
TOTAL SCF ENERGY
----------------

Total Energy       :      -2489.42024110733519 Eh          -67740.56862 eV

Components:
Nuclear Repulsion  :       2376.52011931945572 Eh           64668.40012 eV
Electronic Energy  :      -4865.94036042679090 Eh         -132408.96875 eV
One Electron Energy:      -8147.31627171840773 Eh         -221699.74675 eV
Two Electron Energy:       3281.37591129161683 Eh           89290.77800 eV

Virial components:
Potential Energy   :      -4966.20015561144555 Eh         -135137.17648 eV
Kinetic Energy     :       2476.77991450411037 Eh           67396.60785 eV
Virial Ratio       :          2.00510353242499

DFT components:
N(Alpha)           :       97.000064944290 electrons
N(Beta)            :       97.000064944290 electrons
N(Total)           :      194.000129888579 electrons
E(X)               :     -211.254756918215 Eh       
E(C)               :       -7.635789899031 Eh       
E(XC)              :     -218.890546817246 Eh       

---------------
SCF CONVERGENCE
---------------

  Last Energy change         ...    3.9789e-08  Tolerance :   1.0000e-08
  Last MAX-Density change    ...    3.0777e-05  Tolerance :   1.0000e-07
  Last RMS-Density change    ...    6.8723e-07  Tolerance :   5.0000e-09
  Last DIIS Error            ...    2.1242e-03  Tolerance :   5.0000e-07
  Last Orbital Gradient      ...    2.3615e-06  Tolerance :   1.0000e-05
  Last Orbital Rotation      ...    7.8280e-06  Tolerance :   1.0000e-05


----------------
ORBITAL ENERGIES
----------------

  NO   OCC          E(Eh)            E(eV) 
   0   2.0000    -100.711007     -2740.4858 
   1   2.0000    -100.711006     -2740.4858 
   2   2.0000    -100.711004     -2740.4857 
   3   2.0000     -76.424909     -2079.6275 
   4   2.0000     -18.717867      -509.3390 
   5   2.0000      -9.983558      -271.6664 
   6   2.0000      -9.983555      -271.6663 
   7   2.0000      -9.983550      -271.6662 
   8   2.0000      -9.944431      -270.6017 
   9   2.0000      -9.944401      -270.6009 
  10   2.0000      -9.944396      -270.6008 
  11   2.0000      -9.941045      -270.5096 
  12   2.0000      -9.941038      -270.5094 
  13   2.0000      -9.941034      -270.5093 
  14   2.0000      -9.940622      -270.4981 
  15   2.0000      -9.940612      -270.4978 
  16   2.0000      -9.940550      -270.4961 
  17   2.0000      -9.938940      -270.4523 
  18   2.0000      -9.938935      -270.4522 
  19   2.0000      -9.938932      -270.4521 
  20   2.0000      -9.937284      -270.4072 
  21   2.0000      -9.937261      -270.4066 
  22   2.0000      -9.937255      -270.4064 
  23   2.0000      -9.196732      -250.2558 
  24   2.0000      -9.196730      -250.2558 
  25   2.0000      -9.196729      -250.2557 
  26   2.0000      -7.027527      -191.2287 
  27   2.0000      -7.027526      -191.2287 
  28   2.0000      -7.027523      -191.2286 
  29   2.0000      -7.016453      -190.9274 
  30   2.0000      -7.016451      -190.9273 
  31   2.0000      -7.016447      -190.9272 
  32   2.0000      -7.015789      -190.9093 
  33   2.0000      -7.015789      -190.9093 
  34   2.0000      -7.015786      -190.9092 
  35   2.0000      -6.383958      -173.7163 
  36   2.0000      -4.605065      -125.3102 
  37   2.0000      -4.605065      -125.3102 
  38   2.0000      -4.604892      -125.3055 
  39   2.0000      -0.858070       -23.3493 
  40   2.0000      -0.829167       -22.5628 
  41   2.0000      -0.829163       -22.5627 
  42   2.0000      -0.828935       -22.5565 
  43   2.0000      -0.777432       -21.1550 
  44   2.0000      -0.774383       -21.0720 
  45   2.0000      -0.774378       -21.0719 
  46   2.0000      -0.714775       -19.4500 
  47   2.0000      -0.696505       -18.9529 
  48   2.0000      -0.696501       -18.9528 
  49   2.0000      -0.674394       -18.3512 
  50   2.0000      -0.673472       -18.3261 
  51   2.0000      -0.673470       -18.3260 
  52   2.0000      -0.608408       -16.5556 
  53   2.0000      -0.572225       -15.5710 
  54   2.0000      -0.572222       -15.5710 
  55   2.0000      -0.562946       -15.3185 
  56   2.0000      -0.550438       -14.9782 
  57   2.0000      -0.550435       -14.9781 
  58   2.0000      -0.511710       -13.9243 
  59   2.0000      -0.487079       -13.2541 
  60   2.0000      -0.487073       -13.2539 
  61   2.0000      -0.465043       -12.6545 
  62   2.0000      -0.443551       -12.0696 
  63   2.0000      -0.443548       -12.0695 
  64   2.0000      -0.442951       -12.0533 
  65   2.0000      -0.425172       -11.5695 
  66   2.0000      -0.425170       -11.5695 
  67   2.0000      -0.417441       -11.3591 
  68   2.0000      -0.402731       -10.9589 
  69   2.0000      -0.402729       -10.9588 
  70   2.0000      -0.402205       -10.9446 
  71   2.0000      -0.398552       -10.8452 
  72   2.0000      -0.398550       -10.8451 
  73   2.0000      -0.373051       -10.1512 
  74   2.0000      -0.373047       -10.1511 
  75   2.0000      -0.372751       -10.1431 
  76   2.0000      -0.353462        -9.6182 
  77   2.0000      -0.337481        -9.1833 
  78   2.0000      -0.336084        -9.1453 
  79   2.0000      -0.336082        -9.1453 
  80   2.0000      -0.329284        -8.9603 
  81   2.0000      -0.329282        -8.9602 
  82   2.0000      -0.315346        -8.5810 
  83   2.0000      -0.310842        -8.4585 
  84   2.0000      -0.310840        -8.4584 
  85   2.0000      -0.303955        -8.2710 
  86   2.0000      -0.281928        -7.6717 
  87   2.0000      -0.281926        -7.6716 
  88   2.0000      -0.281191        -7.6516 
  89   2.0000      -0.261980        -7.1288 
  90   2.0000      -0.261976        -7.1287 
  91   2.0000      -0.255495        -6.9524 
  92   2.0000      -0.234816        -6.3897 
  93   2.0000      -0.234814        -6.3896 
  94   2.0000      -0.233798        -6.3620 
  95   2.0000      -0.219683        -5.9779 
  96   2.0000      -0.219683        -5.9779 
  97   0.0000      -0.080186        -2.1820 
  98   0.0000      -0.080181        -2.1818 
  99   0.0000      -0.075711        -2.0602 
 100   0.0000      -0.069444        -1.8897 
 101   0.0000      -0.058527        -1.5926 
 102   0.0000      -0.058525        -1.5926 
 103   0.0000      -0.000124        -0.0034 
 104   0.0000       0.003969         0.1080 
 105   0.0000       0.003972         0.1081 
 106   0.0000       0.033846         0.9210 
 107   0.0000       0.056300         1.5320 
*Only the first 10 virtual orbitals were printed.

                    ********************************
                    * MULLIKEN POPULATION ANALYSIS *
                    ********************************

-----------------------
MULLIKEN ATOMIC CHARGES
-----------------------
   0 C :    0.002081
   1 C :    0.024074
   2 C :   -0.127948
   3 C :    0.019860
   4 C :    0.040911
   5 C :    0.028336
   6 Cl:   -0.069605
   7 P :    0.622189
   8 O :   -0.458395
   9 C :   -0.128325
  10 C :    0.019960
  11 C :    0.040870
  12 C :    0.028309
  13 C :    0.002001
  14 C :    0.024304
  15 Cl:   -0.069602
  16 C :   -0.127908
  17 C :    0.019925
  18 C :    0.040862
  19 C :    0.028212
  20 C :    0.002179
  21 C :    0.023965
  22 Cl:   -0.069616
  23 H :    0.012068
  24 H :    0.018162
  25 H :   -0.003192
  26 H :    0.000704
  27 H :   -0.003104
  28 H :    0.000699
  29 H :    0.012066
  30 H :    0.018160
  31 H :   -0.003200
  32 H :    0.000714
  33 H :    0.012071
  34 H :    0.018213
Sum of atomic charges:   -0.0000000

--------------------------------
MULLIKEN REDUCED ORBITAL CHARGES
--------------------------------
  0 C s       :     3.178660  s :     3.178660
      pz      :     0.915893  p :     2.786268
      px      :     0.916844
      py      :     0.953532
      dz2     :     0.006261  d :     0.032992
      dxz     :     0.006323
      dyz     :     0.007997
      dx2y2   :     0.006272
      dxy     :     0.006139

  1 C s       :     3.232179  s :     3.232179
      pz      :     0.887554  p :     2.711255
      px      :     0.944017
      py      :     0.879684
      dz2     :     0.005847  d :     0.032492
      dxz     :     0.005298
      dyz     :     0.007885
      dx2y2   :     0.006963
      dxy     :     0.006498

  2 C s       :     3.076799  s :     3.076799
      pz      :     0.982617  p :     3.017587
      px      :     1.031733
      py      :     1.003237
      dz2     :     0.008676  d :     0.033563
      dxz     :     0.006412
      dyz     :     0.006944
      dx2y2   :     0.005255
      dxy     :     0.006276

  3 C s       :     3.291721  s :     3.291721
      pz      :     0.863346  p :     2.656262
      px      :     0.888189
      py      :     0.904726
      dz2     :     0.006192  d :     0.032157
      dxz     :     0.006376
      dyz     :     0.007020
      dx2y2   :     0.006461
      dxy     :     0.006109

  4 C s       :     2.968305  s :     2.968305
      pz      :     0.905409  p :     2.939135
      px      :     1.047058
      py      :     0.986668
      dz2     :     0.011524  d :     0.051649
      dxz     :     0.008773
      dyz     :     0.013036
      dx2y2   :     0.009306
      dxy     :     0.009010

  5 C s       :     3.234527  s :     3.234527
      pz      :     0.923084  p :     2.704970
      px      :     0.937120
      py      :     0.844765
      dz2     :     0.007881  d :     0.032167
      dxz     :     0.006699
      dyz     :     0.006688
      dx2y2   :     0.005315
      dxy     :     0.005585

  6 Cls       :     5.940143  s :     5.940143
      pz      :     3.484068  p :    11.091203
      px      :     3.894956
      py      :     3.712180
      dz2     :     0.011009  d :     0.038259
      dxz     :     0.006241
      dyz     :     0.013775
      dx2y2   :     0.003197
      dxy     :     0.004037

  7 P s       :     5.209773  s :     5.209773
      pz      :     2.815951  p :     8.679996
      px      :     2.932585
      py      :     2.931460
      dz2     :     0.094323  d :     0.488042
      dxz     :     0.143164
      dyz     :     0.122758
      dx2y2   :     0.056730
      dxy     :     0.071067

  8 O s       :     3.823552  s :     3.823552
      pz      :     1.338426  p :     4.623068
      px      :     1.643754
      py      :     1.640888
      dz2     :     0.004890  d :     0.011775
      dxz     :     0.003260
      dyz     :     0.003340
      dx2y2   :     0.000150
      dxy     :     0.000135

  9 C s       :     3.076869  s :     3.076869
      pz      :     0.978386  p :     3.017893
      px      :     1.012226
      py      :     1.027281
      dz2     :     0.008452  d :     0.033563
      dxz     :     0.009695
      dyz     :     0.005693
      dx2y2   :     0.005657
      dxy     :     0.004066

 10 C s       :     3.291495  s :     3.291495
      pz      :     0.858620  p :     2.656387
      px      :     0.852167
      py      :     0.945601
      dz2     :     0.007226  d :     0.032158
      dxz     :     0.010285
      dyz     :     0.005187
      dx2y2   :     0.004323
      dxy     :     0.005137

 11 C s       :     2.968313  s :     2.968313
      pz      :     0.853154  p :     2.939167
      px      :     1.063319
      py      :     1.022694
      dz2     :     0.014213  d :     0.051649
      dxz     :     0.013579
      dyz     :     0.008746
      dx2y2   :     0.007333
      dxy     :     0.007778

 12 C s       :     3.234485  s :     3.234485
      pz      :     0.883246  p :     2.705038
      px      :     0.856243
      py      :     0.965549
      dz2     :     0.007466  d :     0.032168
      dxz     :     0.010184
      dyz     :     0.005261
      dx2y2   :     0.005123
      dxy     :     0.004134

 13 C s       :     3.178684  s :     3.178684
      pz      :     0.929780  p :     2.786323
      px      :     0.899017
      py      :     0.957525
      dz2     :     0.008021  d :     0.032992
      dxz     :     0.010309
      dyz     :     0.005134
      dx2y2   :     0.004365
      dxy     :     0.005163

 14 C s       :     3.232086  s :     3.232086
      pz      :     0.852616  p :     2.711119
      px      :     0.915897
      py      :     0.942606
      dz2     :     0.007413  d :     0.032491
      dxz     :     0.008946
      dyz     :     0.003515
      dx2y2   :     0.006112
      dxy     :     0.006505

 15 Cls       :     5.940143  s :     5.940143
      pz      :     3.335010  p :    11.091200
      px      :     3.933038
      py      :     3.823151
      dz2     :     0.016776  d :     0.038259
      dxz     :     0.006400
      dyz     :     0.012234
      dx2y2   :     0.001539
      dxy     :     0.001310

 16 C s       :     3.076704  s :     3.076704
      pz      :     0.991247  p :     3.017642
      px      :     1.006811
      py      :     1.019584
      dz2     :     0.006982  d :     0.033563
      dxz     :     0.004931
      dyz     :     0.007980
      dx2y2   :     0.005955
      dxy     :     0.007715

 17 C s       :     3.291625  s :     3.291625
      pz      :     0.895565  p :     2.656293
      px      :     0.935653
      py      :     0.825075
      dz2     :     0.006233  d :     0.032157
      dxz     :     0.004746
      dyz     :     0.007951
      dx2y2   :     0.006995
      dxy     :     0.006233

 18 C s       :     2.968357  s :     2.968357
      pz      :     0.917007  p :     2.939132
      px      :     0.962392
      py      :     1.059734
      dz2     :     0.010274  d :     0.051649
      dxz     :     0.009086
      dyz     :     0.011423
      dx2y2   :     0.010583
      dxy     :     0.010282

 19 C s       :     3.234491  s :     3.234491
      pz      :     0.907886  p :     2.705128
      px      :     0.907013
      py      :     0.890229
      dz2     :     0.006150  d :     0.032168
      dxz     :     0.004388
      dyz     :     0.008270
      dx2y2   :     0.006044
      dxy     :     0.007316

 20 C s       :     3.178632  s :     3.178632
      pz      :     0.946844  p :     2.786198
      px      :     0.967272
      py      :     0.872081
      dz2     :     0.006672  d :     0.032991
      dxz     :     0.005132
      dyz     :     0.007580
      dx2y2   :     0.007730
      dxy     :     0.005876

 21 C s       :     3.232226  s :     3.232226
      pz      :     0.880021  p :     2.711317
      px      :     0.897465
      py      :     0.933831
      dz2     :     0.004911  d :     0.032492
      dxz     :     0.004310
      dyz     :     0.008028
      dx2y2   :     0.007706
      dxy     :     0.007536

 22 Cls       :     5.940145  s :     5.940145
      pz      :     3.516416  p :    11.091211
      px      :     3.646426
      py      :     3.928368
      dz2     :     0.010582  d :     0.038260
      dxz     :     0.014797
      dyz     :     0.004563
      dx2y2   :     0.004924
      dxy     :     0.003394

 23 H s       :     0.965580  s :     0.965580
      pz      :     0.008287  p :     0.022352
      px      :     0.009291
      py      :     0.004773

 24 H s       :     0.959175  s :     0.959175
      pz      :     0.010884  p :     0.022663
      px      :     0.004425
      py      :     0.007355

 25 H s       :     0.979868  s :     0.979868
      pz      :     0.008590  p :     0.023324
      px      :     0.009893
      py      :     0.004841

 26 H s       :     0.976801  s :     0.976801
      pz      :     0.004269  p :     0.022496
      px      :     0.006650
      py      :     0.011577

 27 H s       :     0.979783  s :     0.979783
      pz      :     0.006669  p :     0.023322
      px      :     0.009908
      py      :     0.006744

 28 H s       :     0.976806  s :     0.976806
      pz      :     0.005829  p :     0.022495
      px      :     0.012001
      py      :     0.004665

 29 H s       :     0.965583  s :     0.965583
      pz      :     0.006368  p :     0.022351
      px      :     0.009683
      py      :     0.006300

 30 H s       :     0.959177  s :     0.959177
      pz      :     0.013158  p :     0.022662
      px      :     0.003944
      py      :     0.005560

 31 H s       :     0.979877  s :     0.979877
      pz      :     0.005815  p :     0.023323
      px      :     0.004663
      py      :     0.012846

 32 H s       :     0.976791  s :     0.976791
      pz      :     0.005822  p :     0.022495
      px      :     0.007178
      py      :     0.009495

 33 H s       :     0.965578  s :     0.965578
      pz      :     0.005613  p :     0.022351
      px      :     0.004433
      py      :     0.012305

 34 H s       :     0.959126  s :     0.959126
      pz      :     0.010657  p :     0.022661
      px      :     0.008189
      py      :     0.003815



                     *******************************
                     * LOEWDIN POPULATION ANALYSIS *
                     *******************************

----------------------
LOEWDIN ATOMIC CHARGES
----------------------
   0 C :   -0.016176
   1 C :   -0.011074
   2 C :   -0.182292
   3 C :   -0.048376
   4 C :   -0.131460
   5 C :   -0.032599
   6 Cl:    0.142076
   7 P :    0.887282
   8 O :   -0.490095
   9 C :   -0.182360
  10 C :   -0.048374
  11 C :   -0.131462
  12 C :   -0.032594
  13 C :   -0.016189
  14 C :   -0.011035
  15 Cl:    0.142079
  16 C :   -0.182289
  17 C :   -0.048372
  18 C :   -0.131462
  19 C :   -0.032614
  20 C :   -0.016169
  21 C :   -0.011077
  22 Cl:    0.142074
  23 H :    0.038833
  24 H :    0.038402
  25 H :    0.033019
  26 H :    0.037251
  27 H :    0.033039
  28 H :    0.037249
  29 H :    0.038835
  30 H :    0.038408
  31 H :    0.033017
  32 H :    0.037252
  33 H :    0.038835
  34 H :    0.038419

-------------------------------
LOEWDIN REDUCED ORBITAL CHARGES
-------------------------------
  0 C s       :     2.863661  s :     2.863661
      pz      :     1.022443  p :     3.063387
      px      :     1.003068
      py      :     1.037876
      dz2     :     0.016633  d :     0.089128
      dxz     :     0.016133
      dyz     :     0.023173
      dx2y2   :     0.016153
      dxy     :     0.017035

  1 C s       :     2.867191  s :     2.867191
      pz      :     1.021756  p :     3.055215
      px      :     1.001753
      py      :     1.031706
      dz2     :     0.015563  d :     0.088667
      dxz     :     0.014991
      dyz     :     0.021363
      dx2y2   :     0.017572
      dxy     :     0.019177

  2 C s       :     2.914114  s :     2.914114
      pz      :     1.062664  p :     3.179000
      px      :     1.048798
      py      :     1.067538
      dz2     :     0.021587  d :     0.089178
      dxz     :     0.018220
      dyz     :     0.020192
      dx2y2   :     0.013131
      dxy     :     0.016048

  3 C s       :     2.871507  s :     2.871507
      pz      :     1.034522  p :     3.087287
      px      :     1.013896
      py      :     1.038868
      dz2     :     0.016635  d :     0.089582
      dxz     :     0.016727
      dyz     :     0.021542
      dx2y2   :     0.017521
      dxy     :     0.017158

  4 C s       :     2.904976  s :     2.904976
      pz      :     0.983645  p :     3.101546
      px      :     1.074024
      py      :     1.043878
      dz2     :     0.026618  d :     0.124938
      dxz     :     0.022310
      dyz     :     0.030429
      dx2y2   :     0.022446
      dxy     :     0.023136

  5 C s       :     2.869220  s :     2.869220
      pz      :     1.038280  p :     3.075000
      px      :     1.007945
      py      :     1.028775
      dz2     :     0.020626  d :     0.088379
      dxz     :     0.019982
      dyz     :     0.019412
      dx2y2   :     0.013635
      dxy     :     0.014723

  6 Cls       :     5.751145  s :     5.751145
      pz      :     3.489533  p :    11.062268
      px      :     3.872342
      py      :     3.700393
      dz2     :     0.012564  d :     0.044511
      dxz     :     0.006959
      dyz     :     0.016823
      dx2y2   :     0.003617
      dxy     :     0.004547

  7 P s       :     4.928134  s :     4.928134
      pz      :     2.781784  p :     8.504853
      px      :     2.861913
      py      :     2.861156
      dz2     :     0.137826  d :     0.679731
      dxz     :     0.195006
      dyz     :     0.164630
      dx2y2   :     0.077708
      dxy     :     0.104561

  8 O s       :     3.666487  s :     3.666487
      pz      :     1.469094  p :     4.805344
      px      :     1.669066
      py      :     1.667185
      dz2     :     0.009914  d :     0.018264
      dxz     :     0.003888
      dyz     :     0.004112
      dx2y2   :     0.000195
      dxy     :     0.000155

  9 C s       :     2.914108  s :     2.914108
      pz      :     1.072629  p :     3.179073
      px      :     1.084983
      py      :     1.021460
      dz2     :     0.023351  d :     0.089179
      dxz     :     0.027069
      dyz     :     0.014587
      dx2y2   :     0.014008
      dxy     :     0.010164

 10 C s       :     2.871503  s :     2.871503
      pz      :     1.049707  p :     3.087287
      px      :     1.045195
      py      :     0.992386
      dz2     :     0.020686  d :     0.089584
      dxz     :     0.031536
      dyz     :     0.012889
      dx2y2   :     0.012191
      dxy     :     0.012282

 11 C s       :     2.904974  s :     2.904974
      pz      :     0.955452  p :     3.101549
      px      :     1.116689
      py      :     1.029408
      dz2     :     0.032424  d :     0.124939
      dxz     :     0.036482
      dyz     :     0.018748
      dx2y2   :     0.018953
      dxy     :     0.018333

 12 C s       :     2.869218  s :     2.869218
      pz      :     1.053213  p :     3.074997
      px      :     1.037716
      py      :     0.984068
      dz2     :     0.021263  d :     0.088379
      dxz     :     0.029529
      dyz     :     0.014017
      dx2y2   :     0.013039
      dxy     :     0.010531

 13 C s       :     2.863660  s :     2.863660
      pz      :     1.041029  p :     3.063402
      px      :     1.048008
      py      :     0.974366
      dz2     :     0.022655  d :     0.089127
      dxz     :     0.029660
      dyz     :     0.012826
      dx2y2   :     0.011976
      dxy     :     0.012009

 14 C s       :     2.867190  s :     2.867190
      pz      :     1.037640  p :     3.055176
      px      :     1.051765
      py      :     0.965771
      dz2     :     0.020316  d :     0.088669
      dxz     :     0.026311
      dyz     :     0.008291
      dx2y2   :     0.017539
      dxy     :     0.016212

 15 Cls       :     5.751145  s :     5.751145
      pz      :     3.349710  p :    11.062266
      px      :     3.903537
      py      :     3.809019
      dz2     :     0.020090  d :     0.044511
      dxz     :     0.007080
      dyz     :     0.014204
      dx2y2   :     0.001701
      dxy     :     0.001436

 16 C s       :     2.914109  s :     2.914109
      pz      :     1.050377  p :     3.179001
      px      :     1.041851
      py      :     1.086773
      dz2     :     0.016693  d :     0.089179
      dxz     :     0.014205
      dyz     :     0.021712
      dx2y2   :     0.017231
      dxy     :     0.019338

[...]
      dxz     :     0.030833
      dyz     :     0.011754
      dx2y2   :     0.010631
      dxy     :     0.008776

 14 C s       :     2.873651  s :     2.873651
      pz      :     1.047384  p :     3.058802
      px      :     1.052549
      py      :     0.958868
      dz2     :     0.022458  d :     0.086721
      dxz     :     0.028103
      dyz     :     0.005974
      dx2y2   :     0.016072
      dxy     :     0.014114

 15 Cls       :     5.765845  s :     5.765845
      pz      :     3.294772  p :    11.069615
      px      :     3.915184
      py      :     3.859659
      dz2     :     0.021803  d :     0.040709
      dxz     :     0.006307
      dyz     :     0.011348
      dx2y2   :     0.000699
      dxy     :     0.000551

 16 C s       :     2.921038  s :     2.921038
      pz      :     1.058700  p :     3.169258
      px      :     1.028044
      py      :     1.082515
      dz2     :     0.019160  d :     0.087155
      dxz     :     0.014263
      dyz     :     0.024167
      dx2y2   :     0.013845
      dxy     :     0.015719

 17 C s       :     2.878573  s :     2.878573
      pz      :     1.038143  p :     3.088220
      px      :     1.007577
      py      :     1.042500
      dz2     :     0.017726  d :     0.087141
      dxz     :     0.014531
      dyz     :     0.025089
      dx2y2   :     0.015605
      dxy     :     0.014191

 18 C s       :     2.916653  s :     2.916653
      pz      :     0.959253  p :     3.083488
      px      :     1.012054
      py      :     1.112182
      dz2     :     0.025520  d :     0.117888
      dxz     :     0.018592
      dyz     :     0.031103
      dx2y2   :     0.021538
      dxy     :     0.021136

 19 C s       :     2.878301  s :     2.878301
      pz      :     1.037120  p :     3.072266
      px      :     0.997495
      py      :     1.037651
      dz2     :     0.017416  d :     0.084773
      dxz     :     0.012793
      dyz     :     0.026078
      dx2y2   :     0.014010
      dxy     :     0.014476

 20 C s       :     2.872050  s :     2.872050
      pz      :     1.026677  p :     3.058017
      px      :     0.991102
      py      :     1.040238
      dz2     :     0.019241  d :     0.086463
      dxz     :     0.014945
      dyz     :     0.023404
      dx2y2   :     0.016379
      dxy     :     0.012494

 21 C s       :     2.873663  s :     2.873663
      pz      :     1.024733  p :     3.058790
      px      :     0.984778
      py      :     1.049279
      dz2     :     0.016012  d :     0.086719
      dxz     :     0.010184
      dyz     :     0.023638
      dx2y2   :     0.019128
      dxy     :     0.017756

 22 Cls       :     5.765836  s :     5.765836
      pz      :     3.433963  p :    11.069634
      px      :     3.731009
      py      :     3.904662
      dz2     :     0.014317  d :     0.040712
      dxz     :     0.015520
      dyz     :     0.005390
      dx2y2   :     0.003162
      dxy     :     0.002323

 23 H s       :     0.892986  s :     0.892986
      pz      :     0.025709  p :     0.066049
      px      :     0.024696
      py      :     0.015643

 24 H s       :     0.889071  s :     0.889071
      pz      :     0.036620  p :     0.069558
      px      :     0.012400
      py      :     0.020538

 25 H s       :     0.892837  s :     0.892837
      pz      :     0.026943  p :     0.070208
      px      :     0.027624
      py      :     0.015641

 26 H s       :     0.891750  s :     0.891750
      pz      :     0.012194  p :     0.067335
      px      :     0.020517
      py      :     0.034624

 27 H s       :     0.892860  s :     0.892860
      pz      :     0.019877  p :     0.070235
      px      :     0.032580
      py      :     0.017779

 28 H s       :     0.891751  s :     0.891751
      pz      :     0.017842  p :     0.067336
      px      :     0.035869
      py      :     0.013625

 29 H s       :     0.892986  s :     0.892986
      pz      :     0.018965  p :     0.066050
      px      :     0.031244
      py      :     0.015841

 30 H s       :     0.888991  s :     0.888991
      pz      :     0.043508  p :     0.069570
      px      :     0.011768
      py      :     0.014294

 31 H s       :     0.893000  s :     0.893000
      pz      :     0.017562  p :     0.070153
      px      :     0.013224
      py      :     0.039367

 32 H s       :     0.891752  s :     0.891752
      pz      :     0.017522  p :     0.067335
      px      :     0.020933
      py      :     0.028880

 33 H s       :     0.892999  s :     0.892999
      pz      :     0.017116  p :     0.066047
      px      :     0.012514
      py      :     0.036418

 34 H s       :     0.888968  s :     0.888968
      pz      :     0.037117  p :     0.069614
      px      :     0.021123
      py      :     0.011375



                      *****************************
                      * MAYER POPULATION ANALYSIS *
                      *****************************

  NA   - Mulliken gross atomic population
  ZA   - Total nuclear charge
  QA   - Mulliken gross atomic charge
  VA   - Mayer's total valence
  BVA  - Mayer's bonded valence
  FA   - Mayer's free valence

  ATOM       NA         ZA         QA         VA         BVA        FA
  0 C      6.0103     6.0000    -0.0103     3.8329     3.8329    -0.0000
  1 C      5.9698     6.0000     0.0302     3.8537     3.8537    -0.0000
  2 C      6.1427     6.0000    -0.1427     3.7775     3.7775    -0.0000
  3 C      5.9750     6.0000     0.0250     3.8907     3.8907    -0.0000
  4 C      5.9847     6.0000     0.0153     3.9261     3.9261    -0.0000
  5 C      5.9652     6.0000     0.0348     3.8727     3.8727    -0.0000
  6 Cl    17.0748    17.0000    -0.0748     1.1731     1.1731    -0.0000
  7 P     14.3730    15.0000     0.6270     4.7164     4.7164    -0.0000
  8 O      8.4456     8.0000    -0.4456     2.1571     2.1571    -0.0000
  9 C      6.1434     6.0000    -0.1434     3.7769     3.7769    -0.0000
 10 C      5.9749     6.0000     0.0251     3.8897     3.8897    -0.0000
 11 C      5.9846     6.0000     0.0154     3.9262     3.9262    -0.0000
 12 C      5.9651     6.0000     0.0349     3.8726     3.8726    -0.0000
 13 C      6.0103     6.0000    -0.0103     3.8327     3.8327    -0.0000
 14 C      5.9701     6.0000     0.0299     3.8542     3.8542    -0.0000
 15 Cl    17.0747    17.0000    -0.0747     1.1733     1.1733    -0.0000
 16 C      6.1431     6.0000    -0.1431     3.7781     3.7781    -0.0000
 17 C      5.9751     6.0000     0.0249     3.8899     3.8899    -0.0000
 18 C      5.9841     6.0000     0.0159     3.9255     3.9255    -0.0000
 19 C      5.9652     6.0000     0.0348     3.8728     3.8728    -0.0000
 20 C      6.0102     6.0000    -0.0102     3.8322     3.8322    -0.0000
 21 C      5.9702     6.0000     0.0298     3.8541     3.8541    -0.0000
 22 Cl    17.0748    17.0000    -0.0748     1.1731     1.1731    -0.0000
 23 H      0.9796     1.0000     0.0204     0.9808     0.9808     0.0000
 24 H      0.9741     1.0000     0.0259     1.0114     1.0114    -0.0000
 25 H      0.9940     1.0000     0.0060     1.0213     1.0213    -0.0000
 26 H      0.9898     1.0000     0.0102     0.9980     0.9980    -0.0000
 27 H      0.9944     1.0000     0.0056     1.0219     1.0219    -0.0000
 28 H      0.9898     1.0000     0.0102     0.9980     0.9980    -0.0000
 29 H      0.9795     1.0000     0.0205     0.9808     0.9808    -0.0000
 30 H      0.9741     1.0000     0.0259     1.0115     1.0115    -0.0000
 31 H      0.9941     1.0000     0.0059     1.0212     1.0212    -0.0000
 32 H      0.9898     1.0000     0.0102     0.9980     0.9980    -0.0000
 33 H      0.9795     1.0000     0.0205     0.9808     0.9808    -0.0000
 34 H      0.9742     1.0000     0.0258     1.0117     1.0117    -0.0000

  Mayer bond orders larger than 0.100000
B(  0-C ,  1-C ) :   1.3640 B(  0-C ,  5-C ) :   1.3658 B(  0-C , 23-H ) :   0.9731 
B(  1-C ,  2-C ) :   1.3783 B(  1-C , 24-H ) :   0.9740 B(  2-C ,  3-C ) :   1.3430 
B(  2-C ,  7-P ) :   0.8737 B(  3-C ,  4-C ) :   1.3800 B(  3-C , 25-H ) :   0.9635 
B(  4-C ,  5-C ) :   1.3852 B(  4-C ,  6-Cl) :   1.0003 B(  5-C , 26-H ) :   0.9760 
B(  7-P ,  8-O ) :   1.8889 B(  7-P ,  9-C ) :   0.8733 B(  7-P , 16-C ) :   0.8742 
B(  9-C , 10-C ) :   1.3419 B(  9-C , 14-C ) :   1.3789 B( 10-C , 11-C ) :   1.3802 
B( 10-C , 27-H ) :   0.9635 B( 11-C , 12-C ) :   1.3849 B( 11-C , 15-Cl) :   1.0007 
B( 12-C , 13-C ) :   1.3661 B( 12-C , 28-H ) :   0.9760 B( 13-C , 14-C ) :   1.3635 
B( 13-C , 29-H ) :   0.9731 B( 14-C , 30-H ) :   0.9740 B( 16-C , 17-C ) :   1.3421 
B( 16-C , 21-C ) :   1.3792 B( 17-C , 18-C ) :   1.3800 B( 17-C , 31-H ) :   0.9635 
B( 18-C , 19-C ) :   1.3848 B( 18-C , 22-Cl) :   1.0003 B( 19-C , 20-C ) :   1.3661 
B( 19-C , 32-H ) :   0.9761 B( 20-C , 21-C ) :   1.3631 B( 20-C , 33-H ) :   0.9731 
B( 21-C , 34-H ) :   0.9740 

-------
TIMINGS
-------

Total SCF time: 0 days 0 hours 0 min 8 sec 

Total time                  ....       8.234 sec
Sum of individual times     ....       8.131 sec  ( 98.7%)

SCF preparation             ....       0.122 sec  (  1.5%)
Fock matrix formation       ....       7.314 sec  ( 88.8%)
  Startup                   ....       0.039 sec  (  0.5% of F)
  Split-RI-J                ....       2.726 sec  ( 37.3% of F)
  XC integration            ....       4.417 sec  ( 60.4% of F)
    Basis function eval.    ....       1.342 sec  ( 30.4% of XC)
    Density eval.           ....       1.328 sec  ( 30.1% of XC)
    XC-Functional eval.     ....       0.120 sec  (  2.7% of XC)
    XC-Potential eval.      ....       0.842 sec  ( 19.1% of XC)
Diagonalization             ....       0.000 sec  (  0.0%)
Density matrix formation    ....       0.097 sec  (  1.2%)
Total Energy calculation    ....       0.032 sec  (  0.4%)
Population analysis         ....       0.090 sec  (  1.1%)
Orbital Transformation      ....       0.046 sec  (  0.6%)
Orbital Orthonormalization  ....       0.000 sec  (  0.0%)
DIIS solution               ....       0.058 sec  (  0.7%)
SOSCF solution              ....       0.372 sec  (  4.5%)
Finished LeanSCF after   8.3 sec

Maximum memory used throughout the entire LEANSCF-calculation: 41.0 MB


-------------------------------------------------------------------------------
                          DFT DISPERSION CORRECTION                            
                                                                               
                              DFTD3 V3.1  Rev 1                                
                          USING Becke-Johnson damping                          
-------------------------------------------------------------------------------
The BP86 functional is recognized
Active option DFTDOPT                   ...         4   

molecular C6(AA) [au] = 24110.943463 


            DFT-D V3
 parameters
 s6 scaling factor         :     1.0000 
 a1 scaling factor         :     0.3946 
 s8 scaling factor         :     3.2822 
 a2 scaling factor         :     4.8516 
 ad hoc parameters k1-k3   :    16.0000     1.3333    -4.0000 

 Edisp/kcal,au: -61.240229662885  -0.097592507622 
 E6   /kcal   : -21.681337543 
 E8   /kcal   : -39.558892120 
 % E8         :  64.596250435 

-------------------------   ----------------
Dispersion correction           -0.097592508
-------------------------   ----------------


-------------------------   --------------------
FINAL SINGLE POINT ENERGY     -2489.525930279082
-------------------------   --------------------

                                *** OPTIMIZATION RUN DONE ***



           ************************************************************
           *        Program running with 6 parallel MPI-processes     *
           *              working on a common directory               *
           ************************************************************

------------------------------------------------------------------------------
                              ORCA PROPERTY CALCULATIONS
------------------------------------------------------------------------------

GBWName                                 ... data/geom_opt_PO_BP86/121600/121600.gbw
Number of atoms                         ...     35
Number of basis functions               ...    398
Max core memory                         ...   1024 MB

Electric properties:
Dipole moment                           ... YES
Quadrupole moment                       ...  NO
Static polarizability (Dipole/Dipole)   ...  NO
Static polarizability (Dipole/Quad.)    ...  NO
Static polarizability (Quad./Quad.)     ...  NO
Static polarizability (Velocity)        ...  NO

Atomic electric properties:
Dipole moment                           ...  NO
Quadrupole moment                       ...  NO
Static polarizability                   ...  NO

Choice of electric origin               ... Center of mass
Position of electric origin             ...    -0.112799     0.155303    -0.666544

General magnetic properties:
Magnetizability                         ...  NO

EPR properties:
g-Tensor (aka g-matrix)                 ...  NO
Zero-Field splitting spin-orbit         ...  NO
Zero-field splitting spin-spin          ...  NO
Hyperfine couplings                     ...  NO (   0 nuclei)
Quadrupole couplings                    ...  NO (   0 nuclei)
Contact density                         ...  NO (   0 nuclei)

NMR properties:
Chemical shifts                         ...  NO (   0 nuclei)
Spin-rotation constants                 ...  NO (   0 nuclei)
Spin-spin couplings                     ...  NO (   0 nuclei,    0 pairs)

Choice of magnetic origin               ... GIAO
Position of magnetic origin             ...     0.000000     0.000000     0.000000

Properties with geometric perturbations:
SCF Hessian                             ...  NO
IR spectrum                             ...  NO
VCD spectrum                            ...  NO
X-ray spectroscopy properties:
SCF XES/XAS/RIXS spectra                ...  NO


-------------
DIPOLE MOMENT
-------------

Method             : SCF
Type of density    : Electron Density
Multiplicity       :   1
Irrep              :   0
Energy             : -2489.4283377714600647 Eh
Relativity type    : 
Basis              : AO
                                X                 Y                 Z
Electronic contribution:     -1.936273586       2.652533056     -17.729252617
Nuclear contribution   :      1.924458154      -2.645462624      17.664081308
                        -----------------------------------------
Total Dipole Moment    :     -0.011815432       0.007070431      -0.065171309
                        -----------------------------------------
Magnitude (a.u.)       :      0.066610021
Magnitude (Debye)      :      0.169309219



--------------------
Rotational spectrum 
--------------------
 
Rotational constants in cm-1:             0.005502             0.005481             0.004333 
Rotational constants in MHz :           164.936183           164.305288           129.901905 

Dipole components along the rotational axes: 
x,y,z [a.u.] :     0.002609     0.004183    -0.066427 
x,y,z [Debye]:     0.006632     0.010632    -0.168845 

 

Dipole moment calculation done in   0.0 sec 

Maximum memory used throughout the entire PROP-calculation: 21.4 MB

--------------------------------
SUGGESTED CITATIONS FOR THIS RUN
--------------------------------

Below you find a list of papers that are relevant to this ORCA run
We neither can nor want to force you to cite these papers, but we appreciate if you do
You receive ORCA, which is the product of decades of hard work by many enthusiastic individuals, for free
The only thing we kindly ask in return is that you cite our papers,
We deeply appreciate it, if you show your appreciation for ORCA by not just citing the generic ORCA reference.

Please note that relegating all ORCA citations to the supporting information does *not* help us.
SI sections are not indexed - citations you put there will not count into any citation statistics
But we need these citations in order to attract the funding resources that allow us to do what we are doing

Therefore, if you are a happy ORCA user, please consider citing a few of the papers listed below in the main body of your paper

In addition to the list printed below, the program has created the file data/geom_opt_PO_BP86/121600/121600.bibtex that contains the list in bibtex format
You can import this file easily into all common literature databanks and citation aid programs


List of essential papers. We consider these as the minimum necessary citations

  1. Neese,F.
     Software update: the ORCA program system, version 5.0
     WIRES Comput. Molec. Sci., 2022 12(1)e1606
     doi.org/10.1002/wcms.1606

List of papers to cite with high priority. The work reported in these papers was absolutely
necessary for this run to complete.
Our perspective: the developers of density functionals and basis sets usually get cited in chemistry papers
Good! But without the algorithms to do something with them, the functionals or basis sets would not do anything.
Hence, in our opinion, the algorithm design and method developments papers are equally worthy of getting cited

  1. Neese,F.
     An improvement of the resolution of the identity approximation for the formation of the Coulomb matrix
     J. Comp. Chem., 2003 24(14)1740-1747
     doi.org/10.1002/jcc.10318
  2. Neese,F.
     The SHARK Integral Generation and Digestion System
     J. Comp. Chem., 2022  1-16
     doi.org/10.1002/jcc.26942
  3. Grimme,S.; Antony,J.; Ehrlich,S.; Krieg,H.
     A consistent and accurate ab initio parametrization of density functional dispersion correction (DFT-D) for the 94 elements H-Pu
     J. Chem. Phys., 2010 132 154104-XXXX
     doi.org/10.1063/1.3382344
  4. Grimme,S.; Ehrlich,S.; Goerigk,L.
     Effect of the damping function in dispersion corrected density functional theory
     J. Comput. Chem., 2011 32(7)1456-1465
     doi.org/10.1002/jcc.21759

List of suggested additional citations. These are papers that are important in the 'surrounding' of 
of this run, or papers that preceded the highly important papers. If you like your results we are grateful for a citation.

  1. Neese,F.
     The ORCA program system
     WIRES Comput. Molec. Sci., 2012 2(1)73-78
     doi.org/10.1002/wcms.81
  2. Neese,F.
     Software update: the ORCA program system, version 4.0
     WIRES Comput. Molec. Sci., 2018 8(1)1-6
     doi.org/10.1002/wcms.1327
  3. Neese,F.; Wennmohs,F.; Becker,U.; Riplinger,C.
     The ORCA quantum chemistry program package
     J. Chem. Phys., 2020 152 Art. No. L224108
     doi.org/10.1063/5.0004608

List of optional additional citations

  1. Neese,F.
     Approximate second-order SCF convergence for spin unrestricted wavefunctions
     Chem. Phys. Lett., 2000 325(1-3)93-98
     doi.org/10.1016/s0009-2614(00)00662-x

Timings for individual modules:

Sum of individual times          ...      132.272 sec (=   2.205 min)
Startup calculation              ...       10.240 sec (=   0.171 min)   7.7 %
SCF iterations                   ...       85.678 sec (=   1.428 min)  64.8 %
Property calculations            ...        0.180 sec (=   0.003 min)   0.1 %
SCF Gradient evaluation          ...       36.069 sec (=   0.601 min)  27.3 %
Geometry relaxation              ...        0.105 sec (=   0.002 min)   0.1 %
                             ****ORCA TERMINATED NORMALLY****
TOTAL RUN TIME: 0 days 0 hours 2 minutes 13 seconds 632 msec
