
                                 *****************
                                 * O   R   C   A *
                                 *****************

                                            #,                                       
                                            ###                                      
                                            ####                                     
                                            #####                                    
                                            ######                                   
                                           ########,                                 
                                     ,,################,,,,,                         
                               ,,#################################,,                 
                          ,,##########################################,,             
                       ,#########################################, ''#####,          
                    ,#############################################,,   '####,        
                  ,##################################################,,,,####,       
                ,###########''''           ''''###############################       
              ,#####''   ,,,,##########,,,,          '''####'''          '####       
            ,##' ,,,,###########################,,,                        '##       
           ' ,,###''''                  '''############,,,                           
         ,,##''                                '''############,,,,        ,,,,,,###''
      ,#''                                            '''#######################'''  
     '                                                          ''''####''''         
             ,#######,   #######,   ,#######,      ##                                
            ,#'     '#,  ##    ##  ,#'     '#,    #''#        ,####,   ,####,        
            ##       ##  ##   ,#'  ##            #'  '#       #'       #'  '#        
            ##       ##  #######   ##           ,######,      #####,   #    #        
            '#,     ,#'  ##    ##  '#,     ,#' ,#      #,     #,   #   #,  ,#        
             '#######'   ##     ##  '#######'  #'      '#     '####' # '####'        



                #########################################################
                #                        -***-                          #
                #          Department of theory and spectroscopy        #
                #                                                       #
                #                      Frank Neese                      #
                #                                                       #
                #     Directorship, Architecture, Infrastructure        #
                #                    SHARK, DRIVERS                     #
                #        Core code/Algorithms in most modules           #
                #                                                       #
                #        Max Planck Institute fuer Kohlenforschung      #
                #                Kaiser Wilhelm Platz 1                 #
                #                 D-45470 Muelheim/Ruhr                 #
                #                      Germany                          #
                #                                                       #
                #                  All rights reserved                  #
                #                        -***-                          #
                #########################################################


                         Program Version 6.0.0  -   RELEASE   -


 With contributions from (in alphabetic order):
   Daniel Aravena         : Magnetic Suceptibility
   Michael Atanasov       : Ab Initio Ligand Field Theory (pilot matlab implementation)
   Alexander A. Auer      : GIAO ZORA, VPT2 properties, NMR spectrum
   Ute Becker             : All parallelization in ORCA, NUMFREQ, NUMCALC
   Giovanni Bistoni       : ED, misc. LED, open-shell LED, HFLD
   Martin Brehm           : Molecular dynamics
   Dmytro Bykov           : pre 5.0 version of the SCF Hessian
   Marcos Casanova-Páez   : Triplet and SCS-CIS(D). UHF-(DLPNO)-IP/EA/STEOM-CCSD. UHF-CVS-IP/STEOM-CCSD
   Vijay G. Chilkuri      : MRCI spin determinant printing, contributions to CSF-ICE
   Pauline Colinet        : FMM embedding
   Dipayan Datta          : RHF DLPNO-CCSD density
   Achintya Kumar Dutta   : EOM-CC, STEOM-CC
   Nicolas Foglia         : Exact transition moments, OPA infrastructure, MCD improvements
   Dmitry Ganyushin       : Spin-Orbit,Spin-Spin,Magnetic field MRCI
   Miquel Garcia          : C-PCM and meta-GGA Hessian, CCSD/C-PCM, Gaussian charge scheme
   Tiago L. C. Gouveia    : GS-ROHF, GS-ROCIS
   Yang Guo               : DLPNO-NEVPT2, F12-NEVPT2, CIM, IAO-localization
   Andreas Hansen         : Spin unrestricted coupled pair/coupled cluster methods
   Ingolf Harden          : AUTO-CI MPn and infrastructure 
   Benjamin Helmich-Paris : MC-RPA, TRAH-(SCF,CASSCF), AVAS, COSX integrals, SCF dyn. polar.
   Lee Huntington         : MR-EOM, pCC
   Robert Izsak           : Overlap fitted RIJCOSX, COSX-SCS-MP3, EOM
   Riya Kayal             : Wick's Theorem for AUTO-CI, AUTO-CI UHF-CCSDT
   Emily Kempfer          : AUTO-CI, RHF CISDT and CCSDT
   Christian Kollmar      : KDIIS, OOCD, Brueckner-CCSD(T), CCSD density, CASPT2, CASPT2-K, improved NEVPT2
   Axel Koslowski         : Symmetry handling
   Simone Kossmann        : Meta GGA functionals, TD-DFT gradient, OOMP2, (MP2 Hessian; deprecated post 5.0)
   Lucas Lang             : DCDCAS
   Marvin Lechner         : AUTO-CI (C++ implementation), FIC-MRCC
   Spencer Leger          : CASSCF response
   Dagmar Lenk            : GEPOL surface, SMD, ORCA-2-JSON
   Dimitrios Liakos       : Extrapolation schemes; Compound Job, initial MDCI parallelization
   Dimitrios Manganas     : Further ROCIS development; embedding schemes. LFT, Crystal Embedding
   Dimitrios Pantazis     : SARC Basis sets
   Anastasios Papadopoulos: AUTO-CI, single reference methods and gradients
   Taras Petrenko         : pre 6.0 DFT Hessian and TD-DFT gradient, (ASA, deprecated), ECA, 1-Electron XAS/XES, NRVS
   Peter Pinski           : DLPNO-MP2, DLPNO-MP2 Gradient
   Christoph Reimann      : Effective Core Potentials
   Marius Retegan         : Local ZFS, SOC
   Christoph Riplinger    : Optimizer, TS searches, QM/MM, DLPNO-CCSD(T), (RO)-DLPNO pert. Triples
   Michael Roemelt        : Original ROCIS implementation
   Masaaki Saitow         : Open-shell DLPNO-CCSD energy and density
   Barbara Sandhoefer     : DKH picture change effects
   Kantharuban Sivalingam : CASSCF convergence/infrastructure, NEVPT2 and variants, FIC-MRCI
   Bernardo de Souza      : ESD, SOC TD-DFT
   Georgi Stoychev        : AutoAux, RI-MP2 NMR, DLPNO-MP2 response, X2C
   Van Anh Tran           : RI-MP2 g-tensors
   Willem Van den Heuvel  : Paramagnetic NMR
   Zikuan Wang            : NOTCH, Electric field optimization 
   Frank Wennmohs         : Technical directorship and infrastructure
   Hang Xu                : AUTO-CI-Response properties 


 We gratefully acknowledge several colleagues who have allowed us to
 interface, adapt or use parts of their codes:
   Stefan Grimme, W. Hujo, H. Kruse, P. Pracht,  : VdW corrections, initial TS optimization,
                  C. Bannwarth, S. Ehlert,         DFT functionals, gCP, sTDA/sTD-DF
                  L. Wittmann, M. Mueller
   Ed Valeev, F. Pavosevic, A. Kumar             : LibInt (2-el integral package), F12 methods
   Garnet Chan, S. Sharma, J. Yang, R. Olivares  : DMRG
   Ulf Ekstrom                                   : XCFun DFT Library
   Mihaly Kallay                                 : mrcc  (arbitrary order and MRCC methods)
   Frank Weinhold                                : gennbo (NPA and NBO analysis)
   Simon Mueller                                 : openCOSMO-RS
   Christopher J. Cramer and Donald G. Truhlar   : smd solvation model
   Lars Goerigk                                  : TD-DFT with DH, B97 family of functionals
   V. Asgeirsson, H. Jonsson                     : NEB implementation
   FAccTs GmbH                                   : IRC, NEB, NEB-TS, DLPNO-Multilevel, CI-OPT
                                                   MM, QMMM, 2- and 3-layer-ONIOM, Crystal-QMMM,
                                                   LR-CPCM, SF, NACMEs, symmetry and pop. for TD-DFT,
                                                   nearIR, NL-DFT gradient (VV10), updates on ESD,
                                                   ML-optimized integration grids, MBIS, APM,
                                                   GOAT, DOCKER, SOLVATOR, interface openCOSMO-RS
   S Lehtola, MJT Oliveira, MAL Marques          : LibXC Library
   Liviu Ungur et al                             : ANISO software


 Your calculation uses the libint2 library for the computation of 2-el integrals
 For citations please refer to: http://libint.valeyev.net

 Your ORCA version has been built with support for libXC version: 6.2.2
 For citations please refer to: https://libxc.gitlab.io

 This ORCA versions uses:
   CBLAS   interface :  Fast vector & matrix operations
   LAPACKE interface :  Fast linear algebra routines
   Shared memory     :  Shared parallel matrices


Your calculation utilizes the atom-pairwise dispersion correction
with the zero-damping scheme (D30)


XCFun DFT library Copyright 2009-2010 Ulf Ekstrom and contributors.
See http://admol.org/xcfun for more information.
This is free software; see the source code for copying conditions.
There is ABSOLUTELY NO WARRANTY; not even for MERCHANTABILITY or FITNESS FOR A PARTICULAR PURPOSE.
For details see the documentation.
Scientific users of this library should cite U. Ekstrom, L. Visscher, R. Bast, A. J. Thorvaldsen and K. Ruud;
J.Chem.Theor.Comp. 2010, DOI: 10.1021/ct100117s
XCFun Version 0.99 

Warning: RI is on but no J-basis has been assigned. Assigning Def2/J (nothing to worry about!)
================================================================================

----- Orbital basis set information -----
Your calculation utilizes the basis: def2-TZVP
   F. Weigend and R. Ahlrichs, Phys. Chem. Chem. Phys. 7, 3297 (2005).

----- AuxJ basis set information -----
Your calculation utilizes the auxiliary basis: def2/J
   F. Weigend, Phys. Chem. Chem. Phys. 8, 1057 (2006).

================================================================================
                                        WARNINGS
                       Please study these warnings very carefully!
================================================================================

WARNING: Functional chosen is sensitive to the integration grid.
         DEFGRID3 seems to be a minimum grid for robust results!

================================================================================
                                       INPUT FILE
================================================================================
NAME = data/single_point_P_M06-2x/137699/137699.inp
|  1> ! RIJCOSX M062X def2-TZVP D3ZERO NormalSCF
|  2> %pal
|  3> nprocs 6
|  4> end
|  5> 
|  6> * xyz 0 1
|  7>   C           1.43922063246211      3.19553042837799     -1.15020678623785
|  8>   C           0.41109562875238      2.63026783935021     -1.81041222099463
|  9>   C          -0.64938549896906      1.78779707863368     -1.16923186671866
| 10>   P          -0.26915620301724     -0.05134496481344     -1.44752722843154
| 11>   C           1.17092584366554     -0.18967070564483     -0.28785694619412
| 12>   C           2.46438621870224     -0.07382586986773     -0.84025519099777
| 13>   C           3.59927437725112     -0.09833707805325     -0.01304277371003
| 14>   C           3.45372659035566     -0.25061820769300      1.37541411352940
| 15>   C           2.16901912168229     -0.37504902816396      1.93357626181370
| 16>   C           1.03402467044983     -0.34249535550749      1.10872455465982
| 17>   C          -1.59092692575264     -0.86093551545204     -0.43836633873733
| 18>   C          -2.68250327755480     -0.18474821558508      0.14567943723234
| 19>   C          -3.66410073286176     -0.89383825292904      0.86079402332166
| 20>   C          -3.56527743741375     -2.28548588084625      1.01055479357345
| 21>   C          -2.48100389980763     -2.97028160977585      0.43236037208185
| 22>   C          -1.51042392527874     -2.26623249374211     -0.29298118705991
| 23>   H           1.54656328443205      3.08995661676569     -0.05801445242490
| 24>   H           2.21129602127800      3.77618027408533     -1.67821557224445
| 25>   H           0.35412798951066      2.73427256060950     -2.90916805266197
| 26>   H          -1.64140008202260      1.97489622739774     -1.63294046064116
| 27>   H          -0.72135011836813      1.98421641251300     -0.07918582586951
| 28>   H           2.57783231295580      0.03847867369564     -1.92989315144747
| 29>   H           4.60244595640235     -0.00337215335140     -0.45670708008735
| 30>   H           4.34248280415097     -0.27684704049669      2.02466041554410
| 31>   H           2.05017241331610     -0.49710530559015      3.02157199464345
| 32>   H           0.03060613085379     -0.43861005468709      1.55155889955762
| 33>   H          -2.77669584919689      0.90692589232530      0.05335656541331
| 34>   H          -4.50941070923620     -0.34905043046841      1.30932245767749
| 35>   H          -4.33231309742587     -2.83806122489321      1.57435448082547
| 36>   H          -2.39536763012650     -4.06243739656589      0.54241680384032
| 37>   H          -0.66788560918908     -2.81017421962719     -0.75034003925534
| 38> **                         ****END OF INPUT****
================================================================================

                       ****************************
                       * Single Point Calculation *
                       ****************************

---------------------------------
CARTESIAN COORDINATES (ANGSTROEM)
---------------------------------
  C      1.439221    3.195530   -1.150207
  C      0.411096    2.630268   -1.810412
  C     -0.649385    1.787797   -1.169232
  P     -0.269156   -0.051345   -1.447527
  C      1.170926   -0.189671   -0.287857
  C      2.464386   -0.073826   -0.840255
  C      3.599274   -0.098337   -0.013043
  C      3.453727   -0.250618    1.375414
  C      2.169019   -0.375049    1.933576
  C      1.034025   -0.342495    1.108725
  C     -1.590927   -0.860936   -0.438366
  C     -2.682503   -0.184748    0.145679
  C     -3.664101   -0.893838    0.860794
  C     -3.565277   -2.285486    1.010555
  C     -2.481004   -2.970282    0.432360
  C     -1.510424   -2.266232   -0.292981
  H      1.546563    3.089957   -0.058014
  H      2.211296    3.776180   -1.678216
  H      0.354128    2.734273   -2.909168
  H     -1.641400    1.974896   -1.632940
  H     -0.721350    1.984216   -0.079186
  H      2.577832    0.038479   -1.929893
  H      4.602446   -0.003372   -0.456707
  H      4.342483   -0.276847    2.024660
  H      2.050172   -0.497105    3.021572
  H      0.030606   -0.438610    1.551559
  H     -2.776696    0.906926    0.053357
  H     -4.509411   -0.349050    1.309322
  H     -4.332313   -2.838061    1.574354
  H     -2.395368   -4.062437    0.542417
  H     -0.667886   -2.810174   -0.750340

----------------------------
CARTESIAN COORDINATES (A.U.)
----------------------------
  NO LB      ZA    FRAG     MASS         X           Y           Z
   0 C     6.0000    0    12.011    2.719733    6.038677   -2.173576
   1 C     6.0000    0    12.011    0.776858    4.970486   -3.421183
   2 C     6.0000    0    12.011   -1.227161    3.378447   -2.209528
   3 P    15.0000    0    30.974   -0.508632   -0.097028   -2.735430
   4 C     6.0000    0    12.011    2.212729   -0.358426   -0.543971
   5 C     6.0000    0    12.011    4.657015   -0.139511   -1.587852
   6 C     6.0000    0    12.011    6.801643   -0.185830   -0.024647
   7 C     6.0000    0    12.011    6.526597   -0.473600    2.599156
   8 C     6.0000    0    12.011    4.098852   -0.708740    3.653930
   9 C     6.0000    0    12.011    1.954023   -0.647222    2.095186
  10 C     6.0000    0    12.011   -3.006416   -1.626932   -0.828392
  11 C     6.0000    0    12.011   -5.069197   -0.349124    0.275294
  12 C     6.0000    0    12.011   -6.924147   -1.689110    1.626665
  13 C     6.0000    0    12.011   -6.737398   -4.318942    1.909672
  14 C     6.0000    0    12.011   -4.688418   -5.613019    0.817043
  15 C     6.0000    0    12.011   -2.854288   -4.282559   -0.553654
  16 H     1.0000    0     1.008    2.922581    5.839172   -0.109631
  17 H     1.0000    0     1.008    4.178744    7.135947   -3.171368
  18 H     1.0000    0     1.008    0.669205    5.167026   -5.497531
  19 H     1.0000    0     1.008   -3.101797    3.732013   -3.085810
  20 H     1.0000    0     1.008   -1.363154    3.749626   -0.149640
  21 H     1.0000    0     1.008    4.871397    0.072714   -3.646970
  22 H     1.0000    0     1.008    8.697362   -0.006372   -0.863051
  23 H     1.0000    0     1.008    8.206103   -0.523165    3.826054
  24 H     1.0000    0     1.008    3.874264   -0.939393    5.709944
  25 H     1.0000    0     1.008    0.057837   -0.828853    2.932021
  26 H     1.0000    0     1.008   -5.247195    1.713842    0.100829
  27 H     1.0000    0     1.008   -8.521551   -0.659610    2.474261
  28 H     1.0000    0     1.008   -8.186885   -5.363158    2.975099
  29 H     1.0000    0     1.008   -4.526589   -7.676894    1.025019
  30 H     1.0000    0     1.008   -1.262121   -5.310460   -1.417937

--------------------------------
INTERNAL COORDINATES (ANGSTROEM)
--------------------------------
 C      0   0   0     0.000000000000     0.00000000     0.00000000
 C      1   0   0     1.346266702362     0.00000000     0.00000000
 C      2   1   0     1.498495729599   124.51929704     0.00000000
 P      3   2   1     1.898543147212   109.88702293   260.12272586
 C      4   3   2     1.854132000495    97.82451353    72.09546298
 C      5   4   3     1.411241860429   117.44669701   263.55628347
 C      6   5   4     1.404582612400   120.57038031   176.65216310
 C      7   6   5     1.404345480442   120.02822141     0.54847064
 C      8   7   6     1.406236570754   119.78240980   359.84846434
 C      9   8   7     1.403443082111   120.23149920   359.76268698
 C      4   3   2     1.849573033014   101.59079421   174.50094912
 C     11   4   3     1.410630236718   124.68633742     9.54452829
 C     12  11   4     1.406318284231   120.59452006   177.86911445
 C     13  12  11     1.403166936725   120.34409369     0.43058149
 C     14  13  12     1.406734901734   119.55230918   359.57377353
 C     15  14  13     1.401367554271   120.13287008   359.71536085
 H      1   2   3     1.102520915298   121.32893945   358.19952642
 H      1   2   3     1.100930482563   121.45450010   177.76858018
 H      2   1   3     1.105136494551   119.17100716   183.55095283
 H      3   2   1     1.110911645693   111.01815879   142.80754052
 H      3   2   1     1.109936859618   111.50658231    21.31195109
 H      6   5   4     1.101268909785   119.34587661   356.77210881
 H      7   6   5     1.101003892315   119.82602116   180.21789279
 H      8   7   6     1.100952460331   120.12971291   179.58859150
 H      9   8   7     1.101252464063   120.03581171   179.85186654
 H     10   9   8     1.100994576746   119.90932639   180.10825248
 H     12  11   4     1.099612709592   120.49173470   357.54993097
 H     13  12  11     1.101145078582   119.57025522   180.03541706
 H     14  13  12     1.100705819883   120.23103886   179.73437738
 H     15  14  13     1.101022366474   120.11537496   180.12061251
 H     16  15  14     1.102234337571   119.75243159   180.49826676

---------------------------
INTERNAL COORDINATES (A.U.)
---------------------------
 C      0   0   0     0.000000000000     0.00000000     0.00000000
 C      1   0   0     2.544075370682     0.00000000     0.00000000
 C      2   1   0     2.831746541792   124.51929704     0.00000000
 P      3   2   1     3.587726601664   109.88702293   260.12272586
 C      4   3   2     3.503801697075    97.82451353    72.09546298
 C      5   4   3     2.666860624937   117.44669701   263.55628347
 C      6   5   4     2.654276469904   120.57038031   176.65216310
 C      7   6   5     2.653828355445   120.02822141     0.54847064
 C      8   7   6     2.657401998229   119.78240980   359.84846434
 C      9   8   7     2.652123069737   120.23149920   359.76268698
 C      4   3   2     3.495186497082   101.59079421   174.50094912
 C     11   4   3     2.665704823626   124.68633742     9.54452829
 C     12  11   4     2.657556414323   120.59452006   177.86911445
 C     13  12  11     2.651601230583   120.34409369     0.43058149
 C     14  13  12     2.658343707306   119.55230918   359.57377353
 C     15  14  13     2.648200890535   120.13287008   359.71536085
 H      1   2   3     2.083462586834   121.32893945   358.19952642
 H      1   2   3     2.080457104529   121.45450010   177.76858018
 H      2   1   3     2.088405315303   119.17100716   183.55095283
 H      3   2   1     2.099318769344   111.01815879   142.80754052
 H      3   2   1     2.097476690622   111.50658231    21.31195109
 H      6   5   4     2.081096639296   119.34587661   356.77210881
 H      7   6   5     2.080595828857   119.82602116   180.21789279
 H      8   7   6     2.080498636493   120.12971291   179.58859150
 H      9   8   7     2.081065561385   120.03581171   179.85186654
 H     10   9   8     2.080578224983   119.90932639   180.10825248
 H     12  11   4     2.077966874507   120.49173470   357.54993097
 H     13  12  11     2.080862632235   119.57025522   180.03541706
 H     14  13  12     2.080032553592   120.23103886   179.73437738
 H     15  14  13     2.080630739957   120.11537496   180.12061251
 H     16  15  14     2.082921033412   119.75243159   180.49826676

---------------------
BASIS SET INFORMATION
---------------------
There are 3 groups of distinct atoms

 Group   1 Type C   : 11s6p2d1f contracted to 5s3p2d1f pattern {62111/411/11/1}
 Group   2 Type P   : 14s9p3d1f contracted to 5s5p2d1f pattern {73211/51111/21/1}
 Group   3 Type H   : 5s1p contracted to 3s1p pattern {311/1}

Atom   0C    basis set group =>   1
Atom   1C    basis set group =>   1
Atom   2C    basis set group =>   1
Atom   3P    basis set group =>   2
Atom   4C    basis set group =>   1
Atom   5C    basis set group =>   1
Atom   6C    basis set group =>   1
Atom   7C    basis set group =>   1
Atom   8C    basis set group =>   1
Atom   9C    basis set group =>   1
Atom  10C    basis set group =>   1
Atom  11C    basis set group =>   1
Atom  12C    basis set group =>   1
Atom  13C    basis set group =>   1
Atom  14C    basis set group =>   1
Atom  15C    basis set group =>   1
Atom  16H    basis set group =>   3
Atom  17H    basis set group =>   3
Atom  18H    basis set group =>   3
Atom  19H    basis set group =>   3
Atom  20H    basis set group =>   3
Atom  21H    basis set group =>   3
Atom  22H    basis set group =>   3
Atom  23H    basis set group =>   3
Atom  24H    basis set group =>   3
Atom  25H    basis set group =>   3
Atom  26H    basis set group =>   3
Atom  27H    basis set group =>   3
Atom  28H    basis set group =>   3
Atom  29H    basis set group =>   3
Atom  30H    basis set group =>   3
---------------------------------
AUXILIARY/J BASIS SET INFORMATION
---------------------------------
There are 3 groups of distinct atoms

 Group   1 Type C   : 12s5p4d2f1g contracted to 6s4p3d1f1g pattern {711111/2111/211/2/1}
 Group   2 Type P   : 14s5p5d2f1g contracted to 8s4p3d1f1g pattern {71111111/2111/311/2/1}
 Group   3 Type H   : 5s2p1d contracted to 3s1p1d pattern {311/2/1}

Atom   0C    basis set group =>   1
Atom   1C    basis set group =>   1
Atom   2C    basis set group =>   1
Atom   3P    basis set group =>   2
Atom   4C    basis set group =>   1
Atom   5C    basis set group =>   1
Atom   6C    basis set group =>   1
Atom   7C    basis set group =>   1
Atom   8C    basis set group =>   1
Atom   9C    basis set group =>   1
Atom  10C    basis set group =>   1
Atom  11C    basis set group =>   1
Atom  12C    basis set group =>   1
Atom  13C    basis set group =>   1
Atom  14C    basis set group =>   1
Atom  15C    basis set group =>   1
Atom  16H    basis set group =>   3
Atom  17H    basis set group =>   3
Atom  18H    basis set group =>   3
Atom  19H    basis set group =>   3
Atom  20H    basis set group =>   3
Atom  21H    basis set group =>   3
Atom  22H    basis set group =>   3
Atom  23H    basis set group =>   3
Atom  24H    basis set group =>   3
Atom  25H    basis set group =>   3
Atom  26H    basis set group =>   3
Atom  27H    basis set group =>   3
Atom  28H    basis set group =>   3
Atom  29H    basis set group =>   3
Atom  30H    basis set group =>   3


           ************************************************************
           *        Program running with 6 parallel MPI-processes     *
           *              working on a common directory               *
           ************************************************************
------------------------------------------------------------------------------
                             ORCA STARTUP CALCULATIONS
                           -- RI-GTO INTEGRALS CHOSEN --
------------------------------------------------------------------------------
------------------------------------------------------------------------------
                   ___                                                        
                  /   \      - P O W E R E D   B Y -                         
                 /     \                                                     
                 |  |  |   _    _      __       _____    __    __             
                 |  |  |  | |  | |    /  \     |  _  \  |  |  /  |          
                  \  \/   | |  | |   /    \    | | | |  |  | /  /          
                 / \  \   | |__| |  /  /\  \   | |_| |  |  |/  /          
                |  |  |   |  __  | /  /__\  \  |    /   |      \           
                |  |  |   | |  | | |   __   |  |    \   |  |\   \          
                \     /   | |  | | |  |  |  |  | |\  \  |  | \   \       
                 \___/    |_|  |_| |__|  |__|  |_| \__\ |__|  \__/        
                                                                              
                      - O R C A' S   B I G   F R I E N D -                    
                                      &                                       
                       - I N T E G R A L  F E E D E R -                       
                                                                              
 v1 FN, 2020, v2 2021, v3 2022-2024                                           
------------------------------------------------------------------------------


----------------------
SHARK INTEGRAL PACKAGE
----------------------

Number of atoms                             ...     31
Number of basis functions                   ...    592
Number of shells                            ...    238
Maximum angular momentum                    ...      3
Integral batch strategy                     ... SHARK/LIBINT Hybrid
RI-J (if used) integral strategy            ... SPLIT-RIJ (Revised 2003 algorithm where possible)
Printlevel                                  ...      1
Contraction scheme used                     ... SEGMENTED contraction
Prescreening option                         ... SCHWARTZ
   Thresh                                   ... 1.000e-10
   Tcut                                     ... 1.000e-11
   Tpresel                                  ... 1.000e-11 
Coulomb Range Separation                    ... NOT USED
Exchange Range Separation                   ... NOT USED
Multipole approximations                    ... NOT USED
Finite Nucleus Model                        ... NOT USED
CABS basis                                  ... NOT available
Auxiliary Coulomb fitting basis             ... AVAILABLE
   # of basis functions in Aux-J            ...    951
   # of shells in Aux-J                     ...    317
   Maximum angular momentum in Aux-J        ...      4
Auxiliary J/K fitting basis                 ... NOT available
Auxiliary Correlation fitting basis         ... NOT available
Auxiliary 'external' fitting basis          ... NOT available

Checking pre-screening integrals            ... done (  0.0 sec) Dimension = 238
Check shell pair data                       ... done (  0.0 sec)
Shell pair information
Shell pair cut-off parameter TPreSel        ...   1.0e-11
Total number of shell pairs                 ...     28441
Shell pairs after pre-screening             ...     22017
Total number of primitive shell pairs       ...     87564
Primitive shell pairs kept                  ...     46160
          la=0 lb=0:   5864 shell pairs
          la=1 lb=0:   6406 shell pairs
          la=1 lb=1:   1793 shell pairs
          la=2 lb=0:   3058 shell pairs
          la=2 lb=1:   1707 shell pairs
          la=2 lb=2:    431 shell pairs
          la=3 lb=0:   1454 shell pairs
          la=3 lb=1:    814 shell pairs
          la=3 lb=2:    390 shell pairs
          la=3 lb=3:    100 shell pairs

Calculating one electron integrals          ... done (  0.0 sec)
Calculating RI/J V-Matrix + Cholesky decomp.... done (  0.0 sec)
Calculating Nuclear repulsion               ... done (  0.0 sec) ENN=   1109.626752310326 Eh

Diagonalization of the overlap matrix:
Smallest eigenvalue                        ... 8.481e-06
Time for diagonalization                   ...    0.056 sec
Threshold for overlap eigenvalues          ... 1.000e-07
Number of eigenvalues below threshold      ... 0
Time for construction of square roots      ...    0.029 sec
Total time needed                          ...    0.089 sec

-------------------
DFT GRID GENERATION
-------------------

General Integration Accuracy     IntAcc      ... 4.388
Radial Grid Type                 RadialGrid  ... OptM3 with GC (2021)
Angular Grid (max. ang.)         AngularGrid ... 4 (Lebedev-302)
Angular grid pruning method      GridPruning ... 4 (adaptive)
Weight generation scheme         WeightScheme... mBecke (2022)
Basis function cutoff            BFCut       ... 1.0000e-10
Integration weight cutoff        WCut        ... 1.0000e-14
Partially contracted basis set               ... off
Rotationally invariant grid construction     ... off
Angular grids for H and He will be reduced by one unit

Total number of grid points                  ...   144745
Total number of batches                      ...     2277
Average number of points per batch           ...       63
Average number of grid points per atom       ...     4669

--------------------
COSX GRID GENERATION
--------------------

GRIDX 1
-------
General Integration Accuracy     IntAcc      ... 3.816
Radial Grid Type                 RadialGrid  ... OptM3 with GC (2021)
Angular Grid (max. ang.)         AngularGrid ... 1 (Lebedev-50)
Angular grid pruning method      GridPruning ... 4 (adaptive)
Weight generation scheme         WeightScheme... mBecke (2022)
Basis function cutoff            BFCut       ... 1.0000e-10
Integration weight cutoff        WCut        ... 1.0000e-14
Partially contracted basis set               ... on
Rotationally invariant grid construction     ... off
Angular grids for H and He will be reduced by one unit

Total number of grid points                  ...    19434
Total number of batches                      ...      164
Average number of points per batch           ...      118
Average number of grid points per atom       ...      627
UseSFitting                                  ... on

GRIDX 2
-------
General Integration Accuracy     IntAcc      ... 4.020
Radial Grid Type                 RadialGrid  ... OptM3 with GC (2021)
Angular Grid (max. ang.)         AngularGrid ... 2 (Lebedev-110)
Angular grid pruning method      GridPruning ... 4 (adaptive)
Weight generation scheme         WeightScheme... mBecke (2022)
Basis function cutoff            BFCut       ... 1.0000e-10
Integration weight cutoff        WCut        ... 1.0000e-14
Partially contracted basis set               ... on
Rotationally invariant grid construction     ... off
Angular grids for H and He will be reduced by one unit

Total number of grid points                  ...    39512
Total number of batches                      ...      325
Average number of points per batch           ...      121
Average number of grid points per atom       ...     1275
UseSFitting                                  ... on

GRIDX 3
-------
General Integration Accuracy     IntAcc      ... 4.338
Radial Grid Type                 RadialGrid  ... OptM3 with GC (2021)
Angular Grid (max. ang.)         AngularGrid ... 3 (Lebedev-194)
Angular grid pruning method      GridPruning ... 4 (adaptive)
Weight generation scheme         WeightScheme... mBecke (2022)
Basis function cutoff            BFCut       ... 1.0000e-10
Integration weight cutoff        WCut        ... 1.0000e-14
Partially contracted basis set               ... on
Rotationally invariant grid construction     ... off
Angular grids for H and He will be reduced by one unit

Total number of grid points                  ...    86782
Total number of batches                      ...      689
Average number of points per batch           ...      125
Average number of grid points per atom       ...     2799
UseSFitting                                  ... on
Initializing property integral containers    ... done (  0.0 sec)

SHARK setup successfully completed in   2.9 seconds

Maximum memory used throughout the entire STARTUP-calculation: 55.6 MB


           ************************************************************
           *        Program running with 6 parallel MPI-processes     *
           *              working on a common directory               *
           ************************************************************
-------------------------------------------------------------------------------
                                 ORCA GUESS
                   Start orbitals & Density for SCF / CASSCF
-------------------------------------------------------------------------------

------------
SCF SETTINGS
------------
Hamiltonian:
 Density Functional     Method          .... DFT(GTOs)
 Exchange Functional    Exchange        .... M062X
 Correlation Functional Correlation     .... M062X
 Gradients option       PostSCFGGA      .... off
 Hybrid DFT is turned on
   Fraction HF Exchange ScalHFX         ....  0.540000
   Scaling of DF-GGA-X  ScalDFX         ....  0.460000
   Scaling of DF-GGA-C  ScalDFC         ....  1.000000
   Scaling of DF-LDA-C  ScalLDAC        ....  1.000000
   Perturbative correction              ....  0.000000
 RI-approximation to the Coulomb term is turned on
   Number of AuxJ basis functions       .... 951
   RIJ-COSX (HFX calculated with COS-X)).... on


General Settings:
 Integral files         IntName         .... data/single_point_P_M06-2x/137699/137699
 Hartree-Fock type      HFTyp           .... RHF
 Total Charge           Charge          ....    0
 Multiplicity           Mult            ....    1
 Number of Electrons    NEL             ....  120
 Basis Dimension        Dim             ....  592
 Nuclear Repulsion      ENuc            ....   1109.6267523103 Eh

Convergence Acceleration:
 AO-DIIS                CNVDIIS         .... on
   Start iteration      DIISMaxIt       ....    12
   Startup error        DIISStart       ....  0.200000
   # of expansion vecs  DIISMaxEq       ....     5
   Bias factor          DIISBfac        ....   1.050
   Max. coefficient     DIISMaxC        ....  10.000
 MO-DIIS                CNVKDIIS        .... off
 Trust-Rad. Augm. Hess. CNVTRAH         .... auto
   Auto Start mean grad. ratio tolernc. ....  1.125000
   Auto Start start iteration           ....    50
   Auto Start num. interpolation iter.  ....    10
   Max. Number of Micro iterations      ....    24
   Max. Number of Macro iterations      .... Maxiter - #DIIS iter
   Number of Davidson start vectors     ....     2
   Converg. threshold    (grad. norm)   ....   5.000e-05
   Grad. Scal. Fac. for Micro threshold ....   0.100
   Minimum threshold for Micro iter.    ....   1.000e-02
   NR start threshold (gradient norm)   ....   1.000e-04
   Initial trust radius                 ....   0.400
   Minimum AH scaling param. (alpha)    ....   1.000
   Maximum AH scaling param. (alpha)    .... 1000.000
   Quad. conv. algorithm                .... NR
   White noise on init. David. guess    .... on
   Maximum white noise                  ....   0.010
   Pseudo random numbers                .... off
   Inactive MOs                         .... canonical
   Orbital update algorithm             .... Taylor
   Preconditioner                       .... Diag
   Full preconditioner red. dimension   ....   250
 SOSCF                  CNVSOSCF        .... on
   Start iteration      SOSCFMaxIt      ....   150
   Startup grad/error   SOSCFStart      ....  0.003300
   Hessian update       SOSCFHessUp     .... L-BFGS
 Level Shifting         CNVShift        .... on
   Level shift para.    LevelShift      ....    0.2500
   Turn off err/grad.   ShiftErr        ....    0.0010
 Zerner damping         CNVZerner       .... off
 Static damping         CNVDamp         .... on
   Fraction old density DampFac         ....    0.7000
   Max. Damping (<1)    DampMax         ....    0.9800
   Min. Damping (>=0)   DampMin         ....    0.0000
   Turn off err/grad.   DampErr         ....    0.1000

SCF Procedure:
 Maximum # iterations   MaxIter         ....   125
 SCF integral mode      SCFMode         .... Direct
   Integral package                     .... SHARK and LIBINT hybrid scheme
 Reset frequency        DirectResetFreq ....    20
 Integral Threshold     Thresh          ....  1.000e-10 Eh
 Primitive CutOff       TCut            ....  1.000e-11 Eh

Convergence Tolerance:
 Convergence Check Mode ConvCheckMode   .... Total+1el-Energy
 Convergence forced     ConvForced      .... 0
 Energy Change          TolE            ....  1.000e-06 Eh
 1-El. energy change                    ....  1.000e-03 Eh
 Orbital Gradient       TolG            ....  5.000e-05
 Orbital Rotation angle TolX            ....  5.000e-05
 DIIS Error             TolErr          ....  1.000e-05

------------------------------
INITIAL GUESS: MODEL POTENTIAL
------------------------------
Loading Hartree-Fock densities                     ... done
Calculating cut-offs                               ... done
Initializing the effective Hamiltonian             ... done
Setting up the integral package (SHARK)            ... done
Starting the Coulomb interaction                   ... done (   0.4 sec)
Making the grid                                    ... done (   0.3 sec)
Mapping shells                                     ... done
Starting the XC term evaluation                    ... done (   0.3 sec)
  promolecular density results
     # of electrons  =    119.993182715
     EX              =   -103.525450229
     EC              =     -4.027534837
     EX+EC           =   -107.552985066
Transforming the Hamiltonian                       ... done (   0.0 sec)
Diagonalizing the Hamiltonian                      ... done (   0.1 sec)
Back transforming the eigenvectors                 ... done (   0.0 sec)
Now organizing SCF variables                       ... done
                      ------------------
                      INITIAL GUESS DONE (   1.1 sec)
                      ------------------
             **** ENERGY FILE WAS UPDATED (data/single_point_P_M06-2x/137699/137699.en.tmp) ****
Finished Guess after   1.3 sec
Maximum memory used throughout the entire GUESS-calculation: 40.6 MB


           ************************************************************
           *        Program running with 6 parallel MPI-processes     *
           *              working on a common directory               *
           ************************************************************

-------------------------------------------------------------------------------------------
                                      ORCA LEAN-SCF
                              memory conserving SCF solver
-------------------------------------------------------------------------------------------

----------------------------------------D-I-I-S--------------------------------------------
Iteration    Energy (Eh)           Delta-E    RMSDP     MaxDP     DIISErr   Damp  Time(sec)
-------------------------------------------------------------------------------------------
               ***  Starting incremental Fock matrix formation  ***
    1    -921.4948601729913662     0.00e+00  1.23e-03  3.68e-02  1.59e-01  0.700   9.9
    2    -921.6643889540780492    -1.70e-01  9.80e-04  2.58e-02  9.19e-02  0.700   6.0
                               ***Turning on AO-DIIS***
    3    -921.7470769219089561    -8.27e-02  6.72e-04  2.14e-02  4.30e-02  0.700   5.8
    4    -921.7954116886196516    -4.83e-02  1.56e-03  5.12e-02  2.54e-02  0.000   5.5
                              *** Initializing SOSCF ***
---------------------------------------S-O-S-C-F--------------------------------------
Iteration    Energy (Eh)           Delta-E    RMSDP     MaxDP     MaxGrad    Time(sec)
--------------------------------------------------------------------------------------
    5    -921.8979975677066250    -1.03e-01  1.32e-04  1.63e-02  3.04e-03     5.9
               *** Restarting incremental Fock matrix formation ***
    6    -921.8981383644422749    -1.41e-04  1.32e-04  8.56e-03  5.35e-04     9.5
    7    -921.8981586115919526    -2.02e-05  5.32e-05  4.35e-03  2.72e-04     7.1
    8    -921.8981618285115474    -3.22e-06  3.45e-05  1.89e-03  1.46e-04     6.8
    9    -921.8981635909231045    -1.76e-06  6.12e-06  3.57e-04  3.95e-05     6.5
   10    -921.8981637197105101    -1.29e-07  3.80e-06  2.60e-04  2.57e-05     5.7
                 **** Energy Check signals convergence ****

               *****************************************************
               *                     SUCCESS                       *
               *           SCF CONVERGED AFTER  10 CYCLES          *
               *****************************************************

Recomputing exchange energy using gridx3       ... done (   13.993 sec)
Old exchange energy                            :    -57.003506748 Eh
New exchange energy                            :    -57.003465120 Eh
Exchange energy change after final integration :      0.000041629 Eh
Total energy after final integration           :   -921.898122091 Eh
             **** ENERGY FILE WAS UPDATED (data/single_point_P_M06-2x/137699/137699.en.tmp) ****

----------------
TOTAL SCF ENERGY
----------------

Total Energy       :       -921.89812209120021 Eh          -25086.12326 eV

Components:
Nuclear Repulsion  :       1109.62675231032586 Eh           30194.47899 eV
Electronic Energy  :      -2031.52491603003637 Eh          -55280.60338 eV
One Electron Energy:      -3459.05350665755395 Eh          -94125.63117 eV
Two Electron Energy:       1427.52859062751759 Eh           38845.02779 eV

Virial components:
Potential Energy   :      -1839.30691985427052 Eh          -50050.08579 eV
Kinetic Energy     :        917.40879776307031 Eh           24963.96253 eV
Virial Ratio       :          2.00489348296973

DFT components:
N(Alpha)           :       59.999945715908 electrons
N(Beta)            :       59.999945715908 electrons
N(Total)           :      119.999891431815 electrons
E(XC)              :      -52.859430662329 Eh       

---------------
SCF CONVERGENCE
---------------

  Last Energy change         ...    1.2879e-07  Tolerance :   1.0000e-06
  Last MAX-Density change    ...    2.6050e-04  Tolerance :   1.0000e-05
  Last RMS-Density change    ...    3.8009e-06  Tolerance :   1.0000e-06
  Last DIIS Error            ...    3.0373e-03  Tolerance :   1.0000e-05
  Last Orbital Gradient      ...    2.5678e-05  Tolerance :   5.0000e-05
  Last Orbital Rotation      ...    7.1234e-05  Tolerance :   5.0000e-05


----------------
ORBITAL ENERGIES
----------------

  NO   OCC          E(Eh)            E(eV) 
   0   2.0000     -78.031087     -2123.3338 
   1   2.0000     -10.557045      -287.2718 
   2   2.0000     -10.554317      -287.1976 
   3   2.0000     -10.553077      -287.1638 
   4   2.0000     -10.552866      -287.1581 
   5   2.0000     -10.552351      -287.1441 
   6   2.0000     -10.551826      -287.1298 
   7   2.0000     -10.551821      -287.1296 
   8   2.0000     -10.551021      -287.1079 
   9   2.0000     -10.550239      -287.0866 
  10   2.0000     -10.549705      -287.0721 
  11   2.0000     -10.549194      -287.0581 
  12   2.0000     -10.548956      -287.0517 
  13   2.0000     -10.548398      -287.0365 
  14   2.0000     -10.548187      -287.0308 
  15   2.0000     -10.535014      -286.6723 
  16   2.0000      -6.846898      -186.3136 
  17   2.0000      -4.961380      -135.0060 
  18   2.0000      -4.961059      -134.9973 
  19   2.0000      -4.960916      -134.9934 
  20   2.0000      -0.959889       -26.1199 
  21   2.0000      -0.952788       -25.9267 
  22   2.0000      -0.893171       -24.3044 
  23   2.0000      -0.855623       -23.2827 
  24   2.0000      -0.843090       -22.9417 
  25   2.0000      -0.839192       -22.8356 
  26   2.0000      -0.834495       -22.7078 
  27   2.0000      -0.783072       -21.3085 
  28   2.0000      -0.712659       -19.3924 
  29   2.0000      -0.687438       -18.7061 
  30   2.0000      -0.685581       -18.6556 
  31   2.0000      -0.675824       -18.3901 
  32   2.0000      -0.640569       -17.4308 
  33   2.0000      -0.620000       -16.8711 
  34   2.0000      -0.589526       -16.0418 
  35   2.0000      -0.571411       -15.5489 
  36   2.0000      -0.541019       -14.7219 
  37   2.0000      -0.525738       -14.3061 
  38   2.0000      -0.518553       -14.1105 
  39   2.0000      -0.515700       -14.0329 
  40   2.0000      -0.511535       -13.9196 
  41   2.0000      -0.495431       -13.4814 
  42   2.0000      -0.485945       -13.2232 
  43   2.0000      -0.484354       -13.1800 
  44   2.0000      -0.474136       -12.9019 
  45   2.0000      -0.457882       -12.4596 
  46   2.0000      -0.443628       -12.0717 
  47   2.0000      -0.436373       -11.8743 
  48   2.0000      -0.433995       -11.8096 
  49   2.0000      -0.413441       -11.2503 
  50   2.0000      -0.405813       -11.0427 
  51   2.0000      -0.401526       -10.9261 
  52   2.0000      -0.394792       -10.7428 
  53   2.0000      -0.373212       -10.1556 
  54   2.0000      -0.328695        -8.9442 
  55   2.0000      -0.316567        -8.6142 
  56   2.0000      -0.310929        -8.4608 
  57   2.0000      -0.309893        -8.4326 
  58   2.0000      -0.301622        -8.2075 
  59   2.0000      -0.270595        -7.3633 
  60   0.0000      -0.000432        -0.0117 
  61   0.0000       0.007604         0.2069 
  62   0.0000       0.007730         0.2103 
  63   0.0000       0.022930         0.6240 
  64   0.0000       0.033299         0.9061 
  65   0.0000       0.068860         1.8738 
  66   0.0000       0.073808         2.0084 
  67   0.0000       0.079782         2.1710 
  68   0.0000       0.092088         2.5058 
  69   0.0000       0.094081         2.5601 
  70   0.0000       0.102435         2.7874 
*Only the first 10 virtual orbitals were printed.

                    ********************************
                    * MULLIKEN POPULATION ANALYSIS *
                    ********************************

-----------------------
MULLIKEN ATOMIC CHARGES
-----------------------
   0 C :   -0.319399
   1 C :   -0.100795
   2 C :   -0.436635
   3 P :    0.165716
   4 C :   -0.081082
   5 C :   -0.142768
   6 C :   -0.148468
   7 C :   -0.133582
   8 C :   -0.169360
   9 C :   -0.146560
  10 C :   -0.041586
  11 C :   -0.171775
  12 C :   -0.160591
  13 C :   -0.141012
  14 C :   -0.142846
  15 C :   -0.160669
  16 H :    0.147610
  17 H :    0.135178
  18 H :    0.146543
  19 H :    0.169710
  20 H :    0.189596
  21 H :    0.158295
  22 H :    0.144482
  23 H :    0.144540
  24 H :    0.144428
  25 H :    0.187142
  26 H :    0.168037
  27 H :    0.144648
  28 H :    0.145873
  29 H :    0.146464
  30 H :    0.158865
Sum of atomic charges:    0.0000000

--------------------------------
MULLIKEN REDUCED ORBITAL CHARGES
--------------------------------
  0 C s       :     3.322953  s :     3.322953
      pz      :     1.013847  p :     2.956186
      px      :     0.960959
      py      :     0.981380
      dz2     :     0.013257  d :     0.035785
      dxz     :     0.003837
      dyz     :     0.002820
      dx2y2   :     0.007029
      dxy     :     0.008841
      f0      :     0.000737  f :     0.004475
      f+1     :     0.000596
      f-1     :     0.000278
      f+2     :     0.000354
      f-2     :     0.000767
      f+3     :     0.001086
      f-3     :     0.000655

  1 C s       :     3.244987  s :     3.244987
      pz      :     0.945685  p :     2.779340
      px      :     0.880760
      py      :     0.952895
      dz2     :     0.022220  d :     0.070199
      dxz     :     0.008306
      dyz     :     0.004991
      dx2y2   :     0.024580
      dxy     :     0.010101
      f0      :     0.000690  f :     0.006269
      f+1     :     0.001186
      f-1     :     0.000525
      f+2     :     0.000659
      f-2     :     0.000841
      f+3     :     0.001442
      f-3     :     0.000925

  2 C s       :     3.280804  s :     3.280804
      pz      :     1.073681  p :     3.081690
      px      :     1.029831
      py      :     0.978178
      dz2     :     0.016323  d :     0.070653
      dxz     :     0.010403
      dyz     :     0.011190
      dx2y2   :     0.022357
      dxy     :     0.010379
      f0      :     0.000762  f :     0.003489
      f+1     :     0.000309
      f-1     :     0.000434
      f+2     :     0.000446
      f-2     :     0.000317
      f+3     :     0.000701
      f-3     :     0.000521

  3 P s       :     5.726515  s :     5.726515
      pz      :     3.300140  p :     8.836148
      px      :     2.737813
      py      :     2.798195
      dz2     :     0.031987  d :     0.246214
      dxz     :     0.065195
      dyz     :     0.034327
      dx2y2   :     0.060349
      dxy     :     0.054355
      f0      :     0.002396  f :     0.025407
      f+1     :     0.004088
      f-1     :     0.002766
      f+2     :     0.004722
      f-2     :     0.004063
      f+3     :     0.003543
      f-3     :     0.003830

  4 C s       :     3.262574  s :     3.262574
      pz      :     0.869773  p :     2.737112
      px      :     0.894019
      py      :     0.973319
      dz2     :     0.014231  d :     0.074426
      dxz     :     0.020611
      dyz     :     0.016934
      dx2y2   :     0.007665
      dxy     :     0.014985
      f0      :     0.000988  f :     0.006971
      f+1     :     0.001867
      f-1     :     0.001174
      f+2     :     0.000701
      f-2     :     0.000346
      f+3     :     0.000807
      f-3     :     0.001088

  5 C s       :     3.213692  s :     3.213692
      pz      :     1.012752  p :     2.856894
      px      :     0.896710
      py      :     0.947432
      dz2     :     0.017249  d :     0.065541
      dxz     :     0.013419
      dyz     :     0.005314
      dx2y2   :     0.008413
      dxy     :     0.021146
      f0      :     0.000879  f :     0.006642
      f+1     :     0.001511
      f-1     :     0.000180
      f+2     :     0.000950
      f-2     :     0.000833
      f+3     :     0.000925
      f-3     :     0.001364

  6 C s       :     3.225401  s :     3.225401
      pz      :     0.901850  p :     2.856843
      px      :     0.986223
      py      :     0.968770
      dz2     :     0.012037  d :     0.059914
      dxz     :     0.014497
      dyz     :     0.018018
      dx2y2   :     0.007968
      dxy     :     0.007394
      f0      :     0.000969  f :     0.006311
      f+1     :     0.001558
      f-1     :     0.001100
      f+2     :     0.000736
      f-2     :     0.000538
      f+3     :     0.000729
      f-3     :     0.000681

  7 C s       :     3.222258  s :     3.222258
      pz      :     0.923753  p :     2.843734
      px      :     0.959405
      py      :     0.960576
      dz2     :     0.011764  d :     0.061282
      dxz     :     0.016310
      dyz     :     0.015288
      dx2y2   :     0.007392
      dxy     :     0.010528
      f0      :     0.000885  f :     0.006308
      f+1     :     0.001559
      f-1     :     0.001085
      f+2     :     0.000857
      f-2     :     0.000265
      f+3     :     0.000752
      f-3     :     0.000906

  8 C s       :     3.237396  s :     3.237396
      pz      :     1.008797  p :     2.864809
      px      :     0.885881
      py      :     0.970131
      dz2     :     0.013767  d :     0.060865
      dxz     :     0.014454
      dyz     :     0.004941
      dx2y2   :     0.006783
      dxy     :     0.020919
      f0      :     0.000812  f :     0.006290
      f+1     :     0.001433
      f-1     :     0.000186
      f+2     :     0.000899
      f-2     :     0.000855
      f+3     :     0.000818
      f-3     :     0.001288

  9 C s       :     3.187792  s :     3.187792
      pz      :     0.879348  p :     2.885131
      px      :     1.052010
      py      :     0.953773
      dz2     :     0.014919  d :     0.067122
      dxz     :     0.017744
      dyz     :     0.018190
      dx2y2   :     0.007933
      dxy     :     0.008337
      f0      :     0.001026  f :     0.006515
      f+1     :     0.001710
      f-1     :     0.001076
      f+2     :     0.000715
      f-2     :     0.000548
      f+3     :     0.000759
      f-3     :     0.000681

 10 C s       :     3.235232  s :     3.235232
      pz      :     0.936655  p :     2.722950
      px      :     0.916769
      py      :     0.869526
      dz2     :     0.012342  d :     0.076496
      dxz     :     0.011521
      dyz     :     0.018341
      dx2y2   :     0.016642
      dxy     :     0.017651
      f0      :     0.000796  f :     0.006908
      f+1     :     0.001230
      f-1     :     0.000560
      f+2     :     0.001322
      f-2     :     0.000707
      f+3     :     0.001545
      f-3     :     0.000747

 11 C s       :     3.179423  s :     3.179423
      pz      :     0.974505  p :     2.921918
      px      :     0.903460
      py      :     1.043953
      dz2     :     0.015751  d :     0.063994
      dxz     :     0.011579
      dyz     :     0.006872
      dx2y2   :     0.018785
      dxy     :     0.011008
      f0      :     0.000487  f :     0.006441
      f+1     :     0.001404
      f-1     :     0.000761
      f+2     :     0.000969
      f-2     :     0.000890
      f+3     :     0.001084
      f-3     :     0.000846

 12 C s       :     3.234284  s :     3.234284
      pz      :     0.969065  p :     2.858161
      px      :     0.977575
      py      :     0.911520
      dz2     :     0.009428  d :     0.061796
      dxz     :     0.007136
      dyz     :     0.015802
      dx2y2   :     0.012525
      dxy     :     0.016906
      f0      :     0.000821  f :     0.006350
      f+1     :     0.000931
      f-1     :     0.000655
      f+2     :     0.001212
      f-2     :     0.000663
      f+3     :     0.001282
      f-3     :     0.000788

 13 C s       :     3.225400  s :     3.225400
      pz      :     0.971979  p :     2.848226
      px      :     0.963489
      py      :     0.912757
      dz2     :     0.006392  d :     0.061090
      dxz     :     0.008560
      dyz     :     0.016687
      dx2y2   :     0.014263
      dxy     :     0.015189
      f0      :     0.000816  f :     0.006295
      f+1     :     0.000907
      f-1     :     0.000560
      f+2     :     0.001103
      f-2     :     0.000760
      f+3     :     0.001412
      f-3     :     0.000738

 14 C s       :     3.223533  s :     3.223533
      pz      :     0.945734  p :     2.852416
      px      :     0.905725
      py      :     1.000958
      dz2     :     0.015616  d :     0.060588
      dxz     :     0.009005
      dyz     :     0.007770
      dx2y2   :     0.015738
      dxy     :     0.012460
      f0      :     0.000470  f :     0.006309
      f+1     :     0.001392
      f-1     :     0.000797
      f+2     :     0.000901
      f-2     :     0.000882
      f+3     :     0.001026
      f-3     :     0.000842

 15 C s       :     3.218274  s :     3.218274
      pz      :     0.988812  p :     2.872208
      px      :     0.981451
      py      :     0.901945
      dz2     :     0.010020  d :     0.063586
      dxz     :     0.007937
      dyz     :     0.015461
      dx2y2   :     0.013769
      dxy     :     0.016398
      f0      :     0.000856  f :     0.006601
      f+1     :     0.000946
      f-1     :     0.000643
      f+2     :     0.001278
      f-2     :     0.000701
      f+3     :     0.001407
      f-3     :     0.000771

 16 H s       :     0.833161  s :     0.833161
      pz      :     0.012598  p :     0.019229
      px      :     0.002976
      py      :     0.003655

 17 H s       :     0.845364  s :     0.845364
      pz      :     0.004884  p :     0.019457
      px      :     0.008032
      py      :     0.006541

 18 H s       :     0.834183  s :     0.834183
      pz      :     0.012813  p :     0.019274
      px      :     0.003020
      py      :     0.003441

 19 H s       :     0.810860  s :     0.810860
      pz      :     0.004511  p :     0.019430
      px      :     0.010474
      py      :     0.004445

 20 H s       :     0.790888  s :     0.790888
      pz      :     0.011865  p :     0.019517
      px      :     0.003295
      py      :     0.004357

 21 H s       :     0.821789  s :     0.821789
      pz      :     0.013231  p :     0.019916
      px      :     0.002835
      py      :     0.003850

 22 H s       :     0.835858  s :     0.835858
      pz      :     0.004372  p :     0.019660
      px      :     0.011381
      py      :     0.003907

 23 H s       :     0.835855  s :     0.835855
      pz      :     0.006315  p :     0.019606
      px      :     0.009502
      py      :     0.003789

 24 H s       :     0.835942  s :     0.835942
      pz      :     0.012890  p :     0.019630
      px      :     0.002787
      py      :     0.003952

 25 H s       :     0.792670  s :     0.792670
      pz      :     0.004285  p :     0.020187
      px      :     0.012112
      py      :     0.003791

 26 H s       :     0.811601  s :     0.811601
      pz      :     0.003654  p :     0.020362
      px      :     0.003207
      py      :     0.013502

 27 H s       :     0.835705  s :     0.835705
      pz      :     0.005212  p :     0.019647
      px      :     0.009210
      py      :     0.005225

 28 H s       :     0.834477  s :     0.834477
      pz      :     0.006253  p :     0.019650
      px      :     0.008072
      py      :     0.005325

 29 H s       :     0.833874  s :     0.833874
      pz      :     0.003553  p :     0.019662
      px      :     0.003065
      py      :     0.013044

 30 H s       :     0.821275  s :     0.821275
      pz      :     0.005250  p :     0.019860
      px      :     0.009305
      py      :     0.005305



                     *******************************
                     * LOEWDIN POPULATION ANALYSIS *
                     *******************************

----------------------
LOEWDIN ATOMIC CHARGES
----------------------
   0 C :   -0.212674
   1 C :   -0.241045
   2 C :   -0.389109
   3 P :    0.661482
   4 C :   -0.277072
   5 C :   -0.140392
   6 C :   -0.145039
   7 C :   -0.142127
   8 C :   -0.144778
   9 C :   -0.136788
  10 C :   -0.283735
  11 C :   -0.150073
  12 C :   -0.143967
  13 C :   -0.143028
  14 C :   -0.142561
  15 C :   -0.139630
  16 H :    0.128786
  17 H :    0.125134
  18 H :    0.144689
  19 H :    0.141007
  20 H :    0.140072
  21 H :    0.149390
  22 H :    0.147367
  23 H :    0.146726
  24 H :    0.147242
  25 H :    0.156192
  26 H :    0.148605
  27 H :    0.147603
  28 H :    0.147130
  29 H :    0.148291
  30 H :    0.152303

-------------------------------
LOEWDIN REDUCED ORBITAL CHARGES
-------------------------------
  0 C s       :     2.870583  s :     2.870583
      pz      :     1.049984  p :     3.083096
      px      :     1.048058
      py      :     0.985054
      dz2     :     0.080870  d :     0.232823
      dxz     :     0.058885
      dyz     :     0.023324
      dx2y2   :     0.025013
      dxy     :     0.044731
      f0      :     0.003268  f :     0.026172
      f+1     :     0.005634
      f-1     :     0.002191
      f+2     :     0.003259
      f-2     :     0.004573
      f+3     :     0.002979
      f-3     :     0.004269

  1 C s       :     2.808064  s :     2.808064
      pz      :     1.020973  p :     2.990835
      px      :     1.029672
      py      :     0.940190
      dz2     :     0.120211  d :     0.401617
      dxz     :     0.079236
      dyz     :     0.037378
      dx2y2   :     0.091544
      dxy     :     0.073249
      f0      :     0.003860  f :     0.040529
      f+1     :     0.009456
      f-1     :     0.003888
      f+2     :     0.006316
      f-2     :     0.006069
      f+3     :     0.004706
      f-3     :     0.006233

  2 C s       :     2.844390  s :     2.844390
      pz      :     1.060181  p :     3.182645
      px      :     1.046195
      py      :     1.076270
      dz2     :     0.077906  d :     0.334134
      dxz     :     0.048399
      dyz     :     0.057830
      dx2y2   :     0.099168
      dxy     :     0.050831
      f0      :     0.004024  f :     0.027940
      f+1     :     0.002459
      f-1     :     0.003314
      f+2     :     0.005123
      f-2     :     0.004337
      f+3     :     0.004992
      f-3     :     0.003691

  3 P s       :     4.957592  s :     4.957592
      pz      :     3.257633  p :     8.804119
      px      :     2.746886
      py      :     2.799599
      dz2     :     0.072883  d :     0.482409
      dxz     :     0.114800
      dyz     :     0.068113
      dx2y2   :     0.119156
      dxy     :     0.107457
      f0      :     0.008021  f :     0.094398
      f+1     :     0.015670
      f-1     :     0.007824
      f+2     :     0.018771
      f-2     :     0.014271
      f+3     :     0.014834
      f-3     :     0.015006

  4 C s       :     2.779772  s :     2.779772
      pz      :     1.076630  p :     2.998604
      px      :     1.044141
      py      :     0.877832
      dz2     :     0.113063  d :     0.453810
      dxz     :     0.175145
      dyz     :     0.060711
      dx2y2   :     0.053666
      dxy     :     0.051226
      f0      :     0.007372  f :     0.044886
      f+1     :     0.016075
      f-1     :     0.005589
      f+2     :     0.004640
      f-2     :     0.002750
      f+3     :     0.004329
      f-3     :     0.004131

  5 C s       :     2.779246  s :     2.779246
      pz      :     0.998952  p :     2.937407
      px      :     1.063311
      py      :     0.875144
      dz2     :     0.119147  d :     0.383036
      dxz     :     0.104341
      dyz     :     0.014494
      dx2y2   :     0.070048
      dxy     :     0.075006
      f0      :     0.004455  f :     0.040703
      f+1     :     0.012885
      f-1     :     0.000525
      f+2     :     0.006444
      f-2     :     0.006728
      f+3     :     0.005595
      f-3     :     0.004070

  6 C s       :     2.778004  s :     2.778004
      pz      :     1.054975  p :     2.951832
      px      :     1.004893
      py      :     0.891964
      dz2     :     0.108105  d :     0.374683
      dxz     :     0.133355
      dyz     :     0.064400
      dx2y2   :     0.045146
      dxy     :     0.023677
      f0      :     0.007378  f :     0.040521
      f+1     :     0.013653
      f-1     :     0.004896
      f+2     :     0.004722
      f-2     :     0.004033
      f+3     :     0.003563
      f-3     :     0.002276

  7 C s       :     2.778903  s :     2.778903
      pz      :     1.041944  p :     2.947416
      px      :     1.019452
      py      :     0.886019
      dz2     :     0.087247  d :     0.375229
      dxz     :     0.155358
      dyz     :     0.053691
      dx2y2   :     0.043743
      dxy     :     0.035190
      f0      :     0.007158  f :     0.040578
      f+1     :     0.013111
      f-1     :     0.005662
      f+2     :     0.004651
      f-2     :     0.002052
      f+3     :     0.004269
      f-3     :     0.003675

  8 C s       :     2.778300  s :     2.778300
      pz      :     0.992342  p :     2.950514
      px      :     1.066628
      py      :     0.891544
      dz2     :     0.115809  d :     0.375465
      dxz     :     0.102226
      dyz     :     0.014309
      dx2y2   :     0.068013
      dxy     :     0.075107
      f0      :     0.004390  f :     0.040499
      f+1     :     0.012815
      f-1     :     0.000524
      f+2     :     0.006475
      f-2     :     0.006796
      f+3     :     0.005565
      f-3     :     0.003934

  9 C s       :     2.776369  s :     2.776369
      pz      :     1.044652  p :     2.937481
      px      :     1.011359
      py      :     0.881470
      dz2     :     0.109676  d :     0.382299
      dxz     :     0.137641
      dyz     :     0.064980
      dx2y2   :     0.045560
      dxy     :     0.024441
      f0      :     0.007405  f :     0.040639
      f+1     :     0.013712
      f-1     :     0.004901
      f+2     :     0.004657
      f-2     :     0.004069
      f+3     :     0.003539
      f-3     :     0.002355

 10 C s       :     2.782246  s :     2.782246
      pz      :     0.939227  p :     3.001345
      px      :     1.009270
      py      :     1.052847
      dz2     :     0.056779  d :     0.455534
      dxz     :     0.071312
      dyz     :     0.088170
      dx2y2   :     0.112407
      dxy     :     0.126866
      f0      :     0.003795  f :     0.044611
      f+1     :     0.004656
      f-1     :     0.004574
      f+2     :     0.008647
      f-2     :     0.004192
      f+3     :     0.012680
      f-3     :     0.006067

 11 C s       :     2.775483  s :     2.775483
      pz      :     0.942875  p :     2.952333
      px      :     1.017060
      py      :     0.992397
      dz2     :     0.061480  d :     0.381808
      dxz     :     0.071577
      dyz     :     0.037400
      dx2y2   :     0.134909
      dxy     :     0.076442
      f0      :     0.003254  f :     0.040449
      f+1     :     0.004431
      f-1     :     0.004678
      f+2     :     0.006470
      f-2     :     0.006277
      f+3     :     0.009366
      f-3     :     0.005975

 12 C s       :     2.778360  s :     2.778360
      pz      :     0.927107  p :     2.947947
      px      :     0.972051
      py      :     1.048788
      dz2     :     0.039872  d :     0.377078
      dxz     :     0.037741
      dyz     :     0.085961
      dx2y2   :     0.093489
      dxy     :     0.120014
      f0      :     0.004523  f :     0.040582
      f+1     :     0.003410
      f-1     :     0.003848
      f+2     :     0.007613
      f-2     :     0.004281
      f+3     :     0.010674
      f-3     :     0.006232

 13 C s       :     2.778521  s :     2.778521
      pz      :     0.920496  p :     2.949922
      px      :     0.981464
      py      :     1.047961
      dz2     :     0.030607  d :     0.373973
      dxz     :     0.045125
      dyz     :     0.081226
      dx2y2   :     0.094457
      dxy     :     0.122559
      f0      :     0.003997  f :     0.040613
      f+1     :     0.003361
      f-1     :     0.004291
      f+2     :     0.007403
      f-2     :     0.003977
      f+3     :     0.011734
      f-3     :     0.005849

 14 C s       :     2.778117  s :     2.778117
      pz      :     0.939819  p :     2.947303
      px      :     1.015986
      py      :     0.991498
      dz2     :     0.061943  d :     0.376457
      dxz     :     0.070658
      dyz     :     0.038436
      dx2y2   :     0.129941
      dxy     :     0.075479
      f0      :     0.003339  f :     0.040684
      f+1     :     0.004542
      f-1     :     0.004749
      f+2     :     0.006481
      f-2     :     0.006394
      f+3     :     0.009187
      f-3     :     0.005992

 15 C s       :     2.776789  s :     2.776789
      pz      :     0.930320  p :     2.940338
      px      :     0.972260
      py      :     1.037758
      dz2     :     0.039440  d :     0.381848
      dxz     :     0.039820
      dyz     :     0.086258
      dx2y2   :     0.094376
      dxy     :     0.121954
      f0      :     0.004518  f :     0.040655
      f+1     :     0.003469
      f-1     :     0.003844
      f+2     :     0.007722
      f-2     :     0.004289
      f+3     :     0.010729
      f-3     :     0.006085

 16 H s       :     0.812458  s :     0.812458
      pz      :     0.035577  p :     0.058756
      px      :     0.010726
      py      :     0.012453

 17 H s       :     0.815957  s :     0.815957
      pz      :     0.017401  p :     0.058909
      px      :     0.022552
      py      :     0.018955

 18 H s       :     0.799568  s :     0.799568
      pz      :     0.033533  p :     0.055744
      px      :     0.010705
      py      :     0.011507

 19 H s       :     0.800069  s :     0.800069
      pz      :     0.015785  p :     0.058924
      px      :     0.028909
      py      :     0.014230

 20 H s       :     0.800578  s :     0.800578
      pz      :     0.034348  p :     0.059351
      px      :     0.011065
      py      :     0.013938

 21 H s       :     0.794287  s :     0.794287
      pz      :     0.034326  p :     0.056323
      px      :     0.009849
      py      :     0.012149

 22 H s       :     0.796853  s :     0.796853
      pz      :     0.013791  p :     0.055780
      px      :     0.029768
      py      :     0.012221

 23 H s       :     0.797527  s :     0.797527
      pz      :     0.018262  p :     0.055747
      px      :     0.025562
      py      :     0.011922

 24 H s       :     0.797008  s :     0.797008
      pz      :     0.033291  p :     0.055750
      px      :     0.010156
      py      :     0.012304

 25 H s       :     0.786202  s :     0.786202
      pz      :     0.013486  p :     0.057606
      px      :     0.032008
      py      :     0.012112

 26 H s       :     0.794086  s :     0.794086
      pz      :     0.012056  p :     0.057309
      px      :     0.010850
      py      :     0.034403

 27 H s       :     0.796651  s :     0.796651
      pz      :     0.015373  p :     0.055746
      px      :     0.024621
      py      :     0.015751

 28 H s       :     0.796983  s :     0.796983
      pz      :     0.017723  p :     0.055887
      px      :     0.022195
      py      :     0.015970

 29 H s       :     0.795956  s :     0.795956
      pz      :     0.011541  p :     0.055753
      px      :     0.010569
      py      :     0.033643

 30 H s       :     0.791565  s :     0.791565
      pz      :     0.015423  p :     0.056132
      px      :     0.025067
      py      :     0.015641



                      *****************************
                      * MAYER POPULATION ANALYSIS *
                      *****************************

  NA   - Mulliken gross atomic population
  ZA   - Total nuclear charge
  QA   - Mulliken gross atomic charge
  VA   - Mayer's total valence
  BVA  - Mayer's bonded valence
  FA   - Mayer's free valence

  ATOM       NA         ZA         QA         VA         BVA        FA
  0 C      6.3194     6.0000    -0.3194     3.8916     3.8916    -0.0000
  1 C      6.1008     6.0000    -0.1008     3.7663     3.7663     0.0000
  2 C      6.4366     6.0000    -0.4366     3.8254     3.8254    -0.0000
  3 P     14.8343    15.0000     0.1657     3.0638     3.0638     0.0000
  4 C      6.0811     6.0000    -0.0811     3.7879     3.7879    -0.0000
  5 C      6.1428     6.0000    -0.1428     3.8726     3.8726    -0.0000
  6 C      6.1485     6.0000    -0.1485     3.9630     3.9630     0.0000
  7 C      6.1336     6.0000    -0.1336     3.9209     3.9209     0.0000
  8 C      6.1694     6.0000    -0.1694     3.9878     3.9878     0.0000
  9 C      6.1466     6.0000    -0.1466     3.8439     3.8439     0.0000
 10 C      6.0416     6.0000    -0.0416     3.7960     3.7960    -0.0000
 11 C      6.1718     6.0000    -0.1718     3.8901     3.8901     0.0000
 12 C      6.1606     6.0000    -0.1606     3.9961     3.9961    -0.0000
 13 C      6.1410     6.0000    -0.1410     3.9341     3.9341    -0.0000
 14 C      6.1428     6.0000    -0.1428     3.9517     3.9517     0.0000
 15 C      6.1607     6.0000    -0.1607     3.9413     3.9413    -0.0000
 16 H      0.8524     1.0000     0.1476     0.9665     0.9665    -0.0000
 17 H      0.8648     1.0000     0.1352     0.9727     0.9727    -0.0000
 18 H      0.8535     1.0000     0.1465     0.9670     0.9670     0.0000
 19 H      0.8303     1.0000     0.1697     0.9477     0.9477    -0.0000
 20 H      0.8104     1.0000     0.1896     0.9390     0.9390    -0.0000
 21 H      0.8417     1.0000     0.1583     0.9756     0.9756    -0.0000
 22 H      0.8555     1.0000     0.1445     0.9648     0.9648     0.0000
 23 H      0.8555     1.0000     0.1445     0.9638     0.9638     0.0000
 24 H      0.8556     1.0000     0.1444     0.9661     0.9661     0.0000
 25 H      0.8129     1.0000     0.1871     0.9433     0.9433     0.0000
 26 H      0.8320     1.0000     0.1680     0.9530     0.9530     0.0000
 27 H      0.8554     1.0000     0.1446     0.9662     0.9662     0.0000
 28 H      0.8541     1.0000     0.1459     0.9640     0.9640     0.0000
 29 H      0.8535     1.0000     0.1465     0.9644     0.9644     0.0000
 30 H      0.8411     1.0000     0.1589     0.9662     0.9662    -0.0000

  Mayer bond orders larger than 0.100000
B(  0-C ,  1-C ) :   1.8713 B(  0-C , 16-H ) :   0.9735 B(  0-C , 17-H ) :   0.9706 
B(  1-C ,  2-C ) :   0.9533 B(  1-C , 18-H ) :   0.9552 B(  2-C ,  3-P ) :   0.9123 
B(  2-C , 19-H ) :   0.9397 B(  2-C , 20-H ) :   0.9510 B(  3-P ,  4-C ) :   0.9432 
B(  3-P , 10-C ) :   0.9637 B(  4-C ,  5-C ) :   1.3673 B(  4-C ,  9-C ) :   1.3300 
B(  5-C ,  6-C ) :   1.4522 B(  5-C , 21-H ) :   0.9433 B(  6-C ,  7-C ) :   1.4436 
B(  6-C , 22-H ) :   0.9483 B(  7-C ,  8-C ) :   1.4276 B(  7-C , 23-H ) :   0.9477 
B(  8-C ,  9-C ) :   1.4765 B(  8-C , 24-H ) :   0.9441 B(  9-C , 25-H ) :   0.9263 
B( 10-C , 11-C ) :   1.3605 B( 10-C , 15-C ) :   1.3753 B( 11-C , 12-C ) :   1.4654 
B( 11-C , 26-H ) :   0.9211 B( 12-C , 13-C ) :   1.4558 B( 12-C , 27-H ) :   0.9425 
B( 13-C , 14-C ) :   1.4194 B( 13-C , 28-H ) :   0.9464 B( 14-C , 15-C ) :   1.4741 
B( 14-C , 29-H ) :   0.9469 B( 15-C , 30-H ) :   0.9377 

-------
TIMINGS
-------

Total SCF time: 0 days 0 hours 1 min 23 sec 

Total time                  ....      83.277 sec
Sum of individual times     ....      83.287 sec  (100.0%)

SCF preparation             ....       0.213 sec  (  0.3%)
Fock matrix formation       ....      80.918 sec  ( 97.2%)
  Startup                   ....       0.082 sec  (  0.1% of F)
  Split-RI-J                ....       5.197 sec  (  6.4% of F)
  Chain of spheres X        ....      56.716 sec  ( 70.1% of F)
  XC integration            ....      18.696 sec  ( 23.1% of F)
    Basis function eval.    ....       2.669 sec  ( 14.3% of XC)
    Density eval.           ....       7.282 sec  ( 38.9% of XC)
    XC-Functional eval.     ....       0.394 sec  (  2.1% of XC)
    XC-Potential eval.      ....       6.828 sec  ( 36.5% of XC)
Diagonalization             ....       0.000 sec  (  0.0%)
Density matrix formation    ....       0.212 sec  (  0.3%)
Total Energy calculation    ....       0.079 sec  (  0.1%)
Population analysis         ....       0.130 sec  (  0.2%)
Orbital Transformation      ....       0.260 sec  (  0.3%)
Orbital Orthonormalization  ....       0.000 sec  (  0.0%)
DIIS solution               ....       0.907 sec  (  1.1%)
SOSCF solution              ....       0.568 sec  (  0.7%)
Finished LeanSCF after  83.3 sec

Maximum memory used throughout the entire LEANSCF-calculation: 77.2 MB


-------------------------------------------------------------------------------
                          DFT DISPERSION CORRECTION                            
                                                                               
                              DFTD3 V3.1  Rev 1                                
                              USING zero damping                               
-------------------------------------------------------------------------------
The M062X functional is recognized
Active option DFTDOPT                   ...         3   

molecular C6(AA) [au] = 12797.822477 


            DFT-D V3
 parameters
 s6 scaling factor         :     1.0000 
 rs6 scaling factor        :     1.6190 
 s8 scaling factor         :     0.0000 
 rs8 scaling factor        :     1.0000 
 Damping factor alpha6     :    14.0000 
 Damping factor alpha8     :    16.0000 
 ad hoc parameters k1-k3   :    16.0000     1.3333    -4.0000 

 Edisp/kcal,au: -1.059643009389  -0.001688648443 
 E6   /kcal   :  -1.059643009 
 E8   /kcal   :  -0.000000000 
 % E8         :   0.000000000 

-------------------------   ----------------
Dispersion correction           -0.001688648
-------------------------   ----------------


-------------------------   --------------------
FINAL SINGLE POINT ENERGY      -921.899810739643
-------------------------   --------------------



           ************************************************************
           *        Program running with 6 parallel MPI-processes     *
           *              working on a common directory               *
           ************************************************************

------------------------------------------------------------------------------
                              ORCA PROPERTY CALCULATIONS
------------------------------------------------------------------------------

GBWName                                 ... data/single_point_P_M06-2x/137699/137699.gbw
Number of atoms                         ...     31
Number of basis functions               ...    592
Max core memory                         ...   1024 MB

Electric properties:
Dipole moment                           ... YES
Quadrupole moment                       ...  NO
Static polarizability (Dipole/Dipole)   ...  NO
Static polarizability (Dipole/Quad.)    ...  NO
Static polarizability (Quad./Quad.)     ...  NO
Static polarizability (Velocity)        ...  NO

Atomic electric properties:
Dipole moment                           ...  NO
Quadrupole moment                       ...  NO
Static polarizability                   ...  NO

Choice of electric origin               ... Center of mass
Position of electric origin             ...    -0.104302    -0.304894    -0.282815

General magnetic properties:
Magnetizability                         ...  NO

EPR properties:
g-Tensor (aka g-matrix)                 ...  NO
Zero-Field splitting spin-orbit         ...  NO
Zero-field splitting spin-spin          ...  NO
Hyperfine couplings                     ...  NO (   0 nuclei)
Quadrupole couplings                    ...  NO (   0 nuclei)
Contact density                         ...  NO (   0 nuclei)

NMR properties:
Chemical shifts                         ...  NO (   0 nuclei)
Spin-rotation constants                 ...  NO (   0 nuclei)
Spin-spin couplings                     ...  NO (   0 nuclei,    0 pairs)

Choice of magnetic origin               ... GIAO
Position of magnetic origin             ...     0.000000     0.000000     0.000000

Properties with geometric perturbations:
SCF Hessian                             ...  NO
IR spectrum                             ...  NO
VCD spectrum                            ...  NO
X-ray spectroscopy properties:
SCF XES/XAS/RIXS spectra                ...  NO


-------------
DIPOLE MOMENT
-------------

Method             : SCF
Type of density    : Electron Density
Multiplicity       :   1
Irrep              :   0
Energy             :  -921.8981220912002073 Eh
Relativity type    : 
Basis              : AO
                                X                 Y                 Z
Electronic contribution:     -1.653864238      -5.143820720      -3.344959232
Nuclear contribution   :      1.597515489       5.201863187       3.812486470
                        -----------------------------------------
Total Dipole Moment    :     -0.056348749       0.058042466       0.467527238
                        -----------------------------------------
Magnitude (a.u.)       :      0.474474265
Magnitude (Debye)      :      1.206017737



--------------------
Rotational spectrum 
--------------------
 
Rotational constants in cm-1:             0.024512             0.011606             0.009126 
Rotational constants in MHz :           734.847565           347.942571           273.603540 

Dipole components along the rotational axes: 
x,y,z [a.u.] :    -0.071945    -0.205204     0.421712 
x,y,z [Debye]:    -0.182870    -0.521587     1.071907 

 

Dipole moment calculation done in   0.0 sec 

Maximum memory used throughout the entire PROP-calculation: 40.5 MB

--------------------------------
SUGGESTED CITATIONS FOR THIS RUN
--------------------------------

Below you find a list of papers that are relevant to this ORCA run
We neither can nor want to force you to cite these papers, but we appreciate if you do
You receive ORCA, which is the product of decades of hard work by many enthusiastic individuals, for free
The only thing we kindly ask in return is that you cite our papers,
We deeply appreciate it, if you show your appreciation for ORCA by not just citing the generic ORCA reference.

Please note that relegating all ORCA citations to the supporting information does *not* help us.
SI sections are not indexed - citations you put there will not count into any citation statistics
But we need these citations in order to attract the funding resources that allow us to do what we are doing

Therefore, if you are a happy ORCA user, please consider citing a few of the papers listed below in the main body of your paper

In addition to the list printed below, the program has created the file data/single_point_P_M06-2x/137699/137699.bibtex that contains the list in bibtex format
You can import this file easily into all common literature databanks and citation aid programs


List of essential papers. We consider these as the minimum necessary citations

  1. Neese,F.
     Software update: the ORCA program system, version 5.0
     WIRES Comput. Molec. Sci., 2022 12(1)e1606
     doi.org/10.1002/wcms.1606

List of papers to cite with high priority. The work reported in these papers was absolutely
necessary for this run to complete.
Our perspective: the developers of density functionals and basis sets usually get cited in chemistry papers
Good! But without the algorithms to do something with them, the functionals or basis sets would not do anything.
Hence, in our opinion, the algorithm design and method developments papers are equally worthy of getting cited

  1. Neese,F.
     An improvement of the resolution of the identity approximation for the formation of the Coulomb matrix
     J. Comp. Chem., 2003 24(14)1740-1747
     doi.org/10.1002/jcc.10318
  2. Neese,F.; Wennmohs,F.; Hansen,A.; Becker,U.
     Efficient, approximate and parallel Hartree-Fock and hybrid DFT calculations. A 'chain-of-spheres' algorithm for the Hartree-Fock exchange
     Chem. Phys., 2009 356(1-3)98-109
     doi.org/10.1016/j.chemphys.2008.10.036
  3. Helmich-Paris,B.; de Souza,B.; Neese,F.; Izsák,R.
     An improved chain of spheres for exchange algorithm
     J. Chem. Phys., 2021 155 104109
     doi.org/doi: 10.1063/5.0058766.
  4. Neese,F.
     The SHARK Integral Generation and Digestion System
     J. Comp. Chem., 2022  1-16
     doi.org/10.1002/jcc.26942
  5. Grimme,S.; Antony,J.; Ehrlich,S.; Krieg,H.
     A consistent and accurate ab initio parametrization of density functional dispersion correction (DFT-D) for the 94 elements H-Pu
     J. Chem. Phys., 2010 132 154104-XXXX
     doi.org/10.1063/1.3382344

List of suggested additional citations. These are papers that are important in the 'surrounding' of 
of this run, or papers that preceded the highly important papers. If you like your results we are grateful for a citation.

  1. Izsak,R.; Neese,F.
     An overlap fitted chain of spheres exchange method
     J. Chem. Phys., 2011 135 144105
     doi.org/10.1063/1.3646921
  2. Izsak,R.; Hansen,A.; Neese,F.
     The resolution of identity and chain of spheres approximations for the LPNO-CCSD singles Fock term
     Molec. Phys., 2012 110 2413-2417
     doi.org/10.1080/00268976.2012.687466
  3. Neese,F.
     The ORCA program system
     WIRES Comput. Molec. Sci., 2012 2(1)73-78
     doi.org/10.1002/wcms.81
  4. Izsak,R.; Neese,F.; Klopper,W.
     Robust fitting techniques in the chain of spheres approximation to the Fock exchange: The role of the complementary space
     J. Chem. Phys., 2013 139 
     doi.org/10.1063/1.4819264
  5. Neese,F.
     Software update: the ORCA program system, version 4.0
     WIRES Comput. Molec. Sci., 2018 8(1)1-6
     doi.org/10.1002/wcms.1327
  6. Neese,F.; Wennmohs,F.; Becker,U.; Riplinger,C.
     The ORCA quantum chemistry program package
     J. Chem. Phys., 2020 152 Art. No. L224108
     doi.org/10.1063/5.0004608

List of optional additional citations

  1. Neese,F.
     Approximate second-order SCF convergence for spin unrestricted wavefunctions
     Chem. Phys. Lett., 2000 325(1-3)93-98
     doi.org/10.1016/s0009-2614(00)00662-x

Timings for individual modules:

Sum of individual times          ...       88.099 sec (=   1.468 min)
Startup calculation              ...        3.029 sec (=   0.050 min)   3.4 %
SCF iterations                   ...       84.834 sec (=   1.414 min)  96.3 %
Property calculations            ...        0.236 sec (=   0.004 min)   0.3 %
                             ****ORCA TERMINATED NORMALLY****
TOTAL RUN TIME: 0 days 0 hours 1 minutes 28 seconds 358 msec
