
                                 *****************
                                 * O   R   C   A *
                                 *****************

                                            #,                                       
                                            ###                                      
                                            ####                                     
                                            #####                                    
                                            ######                                   
                                           ########,                                 
                                     ,,################,,,,,                         
                               ,,#################################,,                 
                          ,,##########################################,,             
                       ,#########################################, ''#####,          
                    ,#############################################,,   '####,        
                  ,##################################################,,,,####,       
                ,###########''''           ''''###############################       
              ,#####''   ,,,,##########,,,,          '''####'''          '####       
            ,##' ,,,,###########################,,,                        '##       
           ' ,,###''''                  '''############,,,                           
         ,,##''                                '''############,,,,        ,,,,,,###''
      ,#''                                            '''#######################'''  
     '                                                          ''''####''''         
             ,#######,   #######,   ,#######,      ##                                
            ,#'     '#,  ##    ##  ,#'     '#,    #''#        ,####,   ,####,        
            ##       ##  ##   ,#'  ##            #'  '#       #'       #'  '#        
            ##       ##  #######   ##           ,######,      #####,   #    #        
            '#,     ,#'  ##    ##  '#,     ,#' ,#      #,     #,   #   #,  ,#        
             '#######'   ##     ##  '#######'  #'      '#     '####' # '####'        



                #########################################################
                #                        -***-                          #
                #          Department of theory and spectroscopy        #
                #                                                       #
                #                      Frank Neese                      #
                #                                                       #
                #     Directorship, Architecture, Infrastructure        #
                #                    SHARK, DRIVERS                     #
                #        Core code/Algorithms in most modules           #
                #                                                       #
                #        Max Planck Institute fuer Kohlenforschung      #
                #                Kaiser Wilhelm Platz 1                 #
                #                 D-45470 Muelheim/Ruhr                 #
                #                      Germany                          #
                #                                                       #
                #                  All rights reserved                  #
                #                        -***-                          #
                #########################################################


                         Program Version 6.0.0  -   RELEASE   -


 With contributions from (in alphabetic order):
   Daniel Aravena         : Magnetic Suceptibility
   Michael Atanasov       : Ab Initio Ligand Field Theory (pilot matlab implementation)
   Alexander A. Auer      : GIAO ZORA, VPT2 properties, NMR spectrum
   Ute Becker             : All parallelization in ORCA, NUMFREQ, NUMCALC
   Giovanni Bistoni       : ED, misc. LED, open-shell LED, HFLD
   Martin Brehm           : Molecular dynamics
   Dmytro Bykov           : pre 5.0 version of the SCF Hessian
   Marcos Casanova-Páez   : Triplet and SCS-CIS(D). UHF-(DLPNO)-IP/EA/STEOM-CCSD. UHF-CVS-IP/STEOM-CCSD
   Vijay G. Chilkuri      : MRCI spin determinant printing, contributions to CSF-ICE
   Pauline Colinet        : FMM embedding
   Dipayan Datta          : RHF DLPNO-CCSD density
   Achintya Kumar Dutta   : EOM-CC, STEOM-CC
   Nicolas Foglia         : Exact transition moments, OPA infrastructure, MCD improvements
   Dmitry Ganyushin       : Spin-Orbit,Spin-Spin,Magnetic field MRCI
   Miquel Garcia          : C-PCM and meta-GGA Hessian, CCSD/C-PCM, Gaussian charge scheme
   Tiago L. C. Gouveia    : GS-ROHF, GS-ROCIS
   Yang Guo               : DLPNO-NEVPT2, F12-NEVPT2, CIM, IAO-localization
   Andreas Hansen         : Spin unrestricted coupled pair/coupled cluster methods
   Ingolf Harden          : AUTO-CI MPn and infrastructure 
   Benjamin Helmich-Paris : MC-RPA, TRAH-(SCF,CASSCF), AVAS, COSX integrals, SCF dyn. polar.
   Lee Huntington         : MR-EOM, pCC
   Robert Izsak           : Overlap fitted RIJCOSX, COSX-SCS-MP3, EOM
   Riya Kayal             : Wick's Theorem for AUTO-CI, AUTO-CI UHF-CCSDT
   Emily Kempfer          : AUTO-CI, RHF CISDT and CCSDT
   Christian Kollmar      : KDIIS, OOCD, Brueckner-CCSD(T), CCSD density, CASPT2, CASPT2-K, improved NEVPT2
   Axel Koslowski         : Symmetry handling
   Simone Kossmann        : Meta GGA functionals, TD-DFT gradient, OOMP2, (MP2 Hessian; deprecated post 5.0)
   Lucas Lang             : DCDCAS
   Marvin Lechner         : AUTO-CI (C++ implementation), FIC-MRCC
   Spencer Leger          : CASSCF response
   Dagmar Lenk            : GEPOL surface, SMD, ORCA-2-JSON
   Dimitrios Liakos       : Extrapolation schemes; Compound Job, initial MDCI parallelization
   Dimitrios Manganas     : Further ROCIS development; embedding schemes. LFT, Crystal Embedding
   Dimitrios Pantazis     : SARC Basis sets
   Anastasios Papadopoulos: AUTO-CI, single reference methods and gradients
   Taras Petrenko         : pre 6.0 DFT Hessian and TD-DFT gradient, (ASA, deprecated), ECA, 1-Electron XAS/XES, NRVS
   Peter Pinski           : DLPNO-MP2, DLPNO-MP2 Gradient
   Christoph Reimann      : Effective Core Potentials
   Marius Retegan         : Local ZFS, SOC
   Christoph Riplinger    : Optimizer, TS searches, QM/MM, DLPNO-CCSD(T), (RO)-DLPNO pert. Triples
   Michael Roemelt        : Original ROCIS implementation
   Masaaki Saitow         : Open-shell DLPNO-CCSD energy and density
   Barbara Sandhoefer     : DKH picture change effects
   Kantharuban Sivalingam : CASSCF convergence/infrastructure, NEVPT2 and variants, FIC-MRCI
   Bernardo de Souza      : ESD, SOC TD-DFT
   Georgi Stoychev        : AutoAux, RI-MP2 NMR, DLPNO-MP2 response, X2C
   Van Anh Tran           : RI-MP2 g-tensors
   Willem Van den Heuvel  : Paramagnetic NMR
   Zikuan Wang            : NOTCH, Electric field optimization 
   Frank Wennmohs         : Technical directorship and infrastructure
   Hang Xu                : AUTO-CI-Response properties 


 We gratefully acknowledge several colleagues who have allowed us to
 interface, adapt or use parts of their codes:
   Stefan Grimme, W. Hujo, H. Kruse, P. Pracht,  : VdW corrections, initial TS optimization,
                  C. Bannwarth, S. Ehlert,         DFT functionals, gCP, sTDA/sTD-DF
                  L. Wittmann, M. Mueller
   Ed Valeev, F. Pavosevic, A. Kumar             : LibInt (2-el integral package), F12 methods
   Garnet Chan, S. Sharma, J. Yang, R. Olivares  : DMRG
   Ulf Ekstrom                                   : XCFun DFT Library
   Mihaly Kallay                                 : mrcc  (arbitrary order and MRCC methods)
   Frank Weinhold                                : gennbo (NPA and NBO analysis)
   Simon Mueller                                 : openCOSMO-RS
   Christopher J. Cramer and Donald G. Truhlar   : smd solvation model
   Lars Goerigk                                  : TD-DFT with DH, B97 family of functionals
   V. Asgeirsson, H. Jonsson                     : NEB implementation
   FAccTs GmbH                                   : IRC, NEB, NEB-TS, DLPNO-Multilevel, CI-OPT
                                                   MM, QMMM, 2- and 3-layer-ONIOM, Crystal-QMMM,
                                                   LR-CPCM, SF, NACMEs, symmetry and pop. for TD-DFT,
                                                   nearIR, NL-DFT gradient (VV10), updates on ESD,
                                                   ML-optimized integration grids, MBIS, APM,
                                                   GOAT, DOCKER, SOLVATOR, interface openCOSMO-RS
   S Lehtola, MJT Oliveira, MAL Marques          : LibXC Library
   Liviu Ungur et al                             : ANISO software


 Your calculation uses the libint2 library for the computation of 2-el integrals
 For citations please refer to: http://libint.valeyev.net

 Your ORCA version has been built with support for libXC version: 6.2.2
 For citations please refer to: https://libxc.gitlab.io

 This ORCA versions uses:
   CBLAS   interface :  Fast vector & matrix operations
   LAPACKE interface :  Fast linear algebra routines
   Shared memory     :  Shared parallel matrices


Your calculation utilizes the atom-pairwise dispersion correction
with the Becke-Johnson damping scheme (D3BJ)


Warning: RI is on but no J-basis has been assigned. Assigning Def2/J (nothing to worry about!)
================================================================================

----- Orbital basis set information -----
Your calculation utilizes the basis: def2-SVP
   F. Weigend and R. Ahlrichs, Phys. Chem. Chem. Phys. 7, 3297 (2005).

----- AuxJ basis set information -----
Your calculation utilizes the auxiliary basis: def2/J
   F. Weigend, Phys. Chem. Chem. Phys. 8, 1057 (2006).

================================================================================
                                        WARNINGS
                       Please study these warnings very carefully!
================================================================================


WARNING: Geometry Optimization
  ===> : Switching off AutoStart
         For restart on a previous wavefunction, please use MOREAD

================================================================================
                                       INPUT FILE
================================================================================
NAME = data/geom_opt/75226/75226.inp
|  1> ! RIJONX B3LYP def2-SVP D3BJ TIGHTSCF Opt
|  2> %pal
|  3> nprocs 6
|  4> end
|  5> 
|  6> * xyz 0 1
|  7> C     -0.586997    3.982932   -0.560630
|  8> C     -0.244866    2.793783    0.325001
|  9> C     -0.639828    1.476080   -0.340673
| 10> P     -0.296546    0.010697    0.741283
| 11> C     -0.849364   -1.355828   -0.382471
| 12> C     -2.371564   -1.477163   -0.442822
| 13> C     -2.797152   -2.639466   -1.327919
| 14> C      1.540212   -0.122092    0.530319
| 15> C      2.129635   -1.299061    1.306711
| 16> C      3.643346   -1.352815    1.160898
| 17> H     -0.297299    4.917020   -0.069175
| 18> H     -0.058204    3.924165   -1.517332
| 19> H     -1.661954    4.025209   -0.763175
| 20> H      0.829948    2.813638    0.538422
| 21> H     -0.762703    2.906045    1.285568
| 22> H     -1.712691    1.498699   -0.560521
| 23> H     -0.115716    1.363717   -1.296435
| 24> H     -0.442832   -1.198147   -1.387790
| 25> H     -0.434086   -2.298345   -0.009528
| 26> H     -2.818824   -0.556448   -0.834499
| 27> H     -2.782295   -1.628174    0.563132
| 28> H     -3.888846   -2.711198   -1.360030
| 29> H     -2.435204   -2.505140   -2.352275
| 30> H     -2.405820   -3.587731   -0.945821
| 31> H      1.787054   -0.209884   -0.533712
| 32> H      1.996976    0.805050    0.893159
| 33> H      1.878319   -1.217750    2.371454
| 34> H      1.709585   -2.247116    0.951863
| 35> H      4.107499   -0.438911    1.545196
| 36> H      4.048086   -2.200842    1.722155
| 37> H      3.932131   -1.470923    0.111609
| 38> **                         ****END OF INPUT****
================================================================================

                       *****************************
                       * Geometry Optimization Run *
                       *****************************

Geometry optimization settings:
Update method            Update   .... BFGS
Choice of coordinates    CoordSys .... (2022) Redundant Internals
Initial Hessian          InHess   .... Almloef's Model
Max. no of cycles        MaxIter  .... 93

Convergence Tolerances:
Energy Change            TolE     ....  5.0000e-06 Eh
Max. Gradient            TolMAXG  ....  3.0000e-04 Eh/bohr
RMS Gradient             TolRMSG  ....  1.0000e-04 Eh/bohr
Max. Displacement        TolMAXD  ....  4.0000e-03 bohr
RMS Displacement         TolRMSD  ....  2.0000e-03 bohr
Strict Convergence                .... False

------------------------------------------------------------------------------
                        ORCA OPTIMIZATION COORDINATE SETUP
------------------------------------------------------------------------------

The optimization will be done in redundant internal coordinates (2022)
Making redundant internal coordinates   ...  (2022 redundants) done
Evaluating the initial hessian          ...  (Almloef) done
Evaluating the coordinates              ...  done
Calculating the B-matrix                .... done
Calculating the G-matrix                .... done
Diagonalizing the G-matrix              .... done
Small eigenvalue found = 7.331e-03
Small eigenvalue found = 7.675e-03
Small eigenvalue found = 1.578e-02
The first mode is                       ....   51
The number of degrees of freedom        ....   87

    -----------------------------------------------------------------
                    Redundant Internal Coordinates


    -----------------------------------------------------------------
         Definition                    Initial Value    Approx d2E/dq
    -----------------------------------------------------------------
      1. B(C   1,C   0)                  1.5217         0.385187   
      2. B(C   2,C   1)                  1.5282         0.376025   
      3. B(P   3,C   2)                  1.8536         0.382467   
      4. B(C   4,P   3)                  1.8536         0.382466   
      5. B(C   5,C   4)                  1.5282         0.376025   
      6. B(C   6,C   5)                  1.5217         0.385188   
      7. B(C   7,P   3)                  1.8536         0.382467   
      8. B(C   8,C   7)                  1.5282         0.376024   
      9. B(C   9,C   8)                  1.5217         0.385187   
     10. B(H  10,C   0)                  1.0945         0.354170   
     11. B(H  11,C   0)                  1.0947         0.353944   
     12. B(H  12,C   0)                  1.0947         0.353950   
     13. B(H  13,C   1)                  1.0960         0.352278   
     14. B(H  14,C   1)                  1.0970         0.350936   
     15. B(H  15,C   2)                  1.0954         0.353040   
     16. B(H  16,C   2)                  1.0958         0.352495   
     17. B(H  17,C   4)                  1.0958         0.352497   
     18. B(H  18,C   4)                  1.0954         0.353039   
     19. B(H  19,C   5)                  1.0960         0.352278   
     20. B(H  20,C   5)                  1.0970         0.350935   
     21. B(H  21,C   6)                  1.0945         0.354171   
     22. B(H  22,C   6)                  1.0947         0.353944   
     23. B(H  23,C   6)                  1.0947         0.353949   
     24. B(H  24,C   7)                  1.0958         0.352495   
     25. B(H  25,C   7)                  1.0954         0.353040   
     26. B(H  26,C   8)                  1.0970         0.350935   
     27. B(H  27,C   8)                  1.0960         0.352278   
     28. B(H  28,C   9)                  1.0947         0.353950   
     29. B(H  29,C   9)                  1.0945         0.354170   
     30. B(H  30,C   9)                  1.0947         0.353944   
     31. A(C   1,C   0,H  11)          110.9827         0.325032   
     32. A(H  10,C   0,H  11)          108.0818         0.289299   
     33. A(H  10,C   0,H  12)          108.0610         0.289300   
     34. A(C   1,C   0,H  12)          111.0176         0.325033   
     35. A(H  11,C   0,H  12)          108.3436         0.289271   
     36. A(C   1,C   0,H  10)          110.2482         0.325066   
     37. A(H  13,C   1,H  14)          106.8916         0.288670   
     38. A(C   0,C   1,H  14)          108.8757         0.324576   
     39. A(C   0,C   1,H  13)          108.6434         0.324780   
     40. A(C   2,C   1,H  14)          110.3435         0.323296   
     41. A(C   0,C   1,C   2)          111.2354         0.365668   
     42. A(C   2,C   1,H  13)          110.7259         0.323499   
     43. A(H  15,C   2,H  16)          107.1885         0.288968   
     44. A(C   1,C   2,H  16)          110.1647         0.323531   
     45. A(P   3,C   2,H  16)          109.8443         0.344438   
     46. A(P   3,C   2,H  15)          108.3527         0.344527   
     47. A(C   1,C   2,H  15)          108.8293         0.323613   
     48. A(C   1,C   2,P   3)          112.3052         0.388693   
     49. A(C   2,P   3,C   7)          100.0040         0.415409   
     50. A(C   4,P   3,C   7)          100.0040         0.415409   
     51. A(C   2,P   3,C   4)          100.0040         0.415409   
     52. A(H  17,C   4,H  18)          107.1885         0.288969   
     53. A(C   5,C   4,H  18)          108.8293         0.323613   
     54. A(P   3,C   4,H  18)          108.3526         0.344527   
     55. A(C   5,C   4,H  17)          110.1648         0.323532   
     56. A(P   3,C   4,H  17)          109.8443         0.344438   
     57. A(P   3,C   4,C   5)          112.3052         0.388693   
     58. A(C   4,C   5,H  19)          110.7259         0.323499   
     59. A(C   4,C   5,C   6)          111.2354         0.365668   
     60. A(C   6,C   5,H  20)          108.8757         0.324576   
     61. A(C   4,C   5,H  20)          110.3436         0.323296   
     62. A(C   6,C   5,H  19)          108.6434         0.324780   
     63. A(H  19,C   5,H  20)          106.8915         0.288670   
     64. A(H  22,C   6,H  23)          108.3436         0.289271   
     65. A(H  21,C   6,H  23)          108.0609         0.289300   
     66. A(C   5,C   6,H  23)          111.0176         0.325033   
     67. A(H  21,C   6,H  22)          108.0818         0.289299   
     68. A(C   5,C   6,H  22)          110.9827         0.325032   
     69. A(C   5,C   6,H  21)          110.2482         0.325066   
     70. A(H  24,C   7,H  25)          107.1885         0.288968   
     71. A(C   8,C   7,H  25)          108.8294         0.323613   
     72. A(P   3,C   7,H  25)          108.3526         0.344527   
     73. A(C   8,C   7,H  24)          110.1647         0.323531   
     74. A(P   3,C   7,H  24)          109.8443         0.344438   
     75. A(P   3,C   7,C   8)          112.3052         0.388693   
     76. A(H  26,C   8,H  27)          106.8916         0.288670   
     77. A(C   9,C   8,H  27)          108.6434         0.324780   
     78. A(C   7,C   8,H  27)          110.7259         0.323499   
     79. A(C   9,C   8,H  26)          108.8757         0.324576   
     80. A(C   7,C   8,H  26)          110.3435         0.323296   
     81. A(C   7,C   8,C   9)          111.2353         0.365668   
     82. A(H  29,C   9,H  30)          108.0818         0.289299   
     83. A(H  28,C   9,H  30)          108.3436         0.289271   
     84. A(C   8,C   9,H  30)          110.9827         0.325032   
     85. A(H  28,C   9,H  29)          108.0610         0.289300   
     86. A(C   8,C   9,H  29)          110.2481         0.325066   
     87. A(C   8,C   9,H  28)          111.0177         0.325033   
     88. D(H  13,C   1,C   0,H  11)     61.8753         0.011809   
     89. D(C   2,C   1,C   0,H  12)     60.3081         0.011809   
     90. D(C   2,C   1,C   0,H  10)   -179.9738         0.011809   
     91. D(H  13,C   1,C   0,H  10)    -57.8463         0.011809   
     92. D(H  13,C   1,C   0,H  12)   -177.5645         0.011809   
     93. D(C   2,C   1,C   0,H  11)    -60.2522         0.011809   
     94. D(P   3,C   2,C   1,C   0)   -177.7683         0.011282   
     95. D(H  15,C   2,C   1,H  14)     63.1435         0.011282   
     96. D(H  15,C   2,C   1,C   0)    -57.8038         0.011282   
     97. D(H  15,C   2,C   1,H  13)   -178.7163         0.011282   
     98. D(P   3,C   2,C   1,H  13)     61.3192         0.011282   
     99. D(P   3,C   2,C   1,H  14)    -56.8210         0.011282   
    100. D(C   4,P   3,C   2,H  16)    -55.7979         0.003475   
    101. D(C   4,P   3,C   2,H  15)     60.9927         0.003475   
    102. D(C   4,P   3,C   2,C   1)   -178.7663         0.003475   
    103. D(C   7,P   3,C   2,H  15)    163.1291         0.003475   
    104. D(C   7,P   3,C   2,C   1)    -76.6299         0.003475   
    105. D(H  18,C   4,P   3,C   2)    163.1290         0.003475   
    106. D(H  17,C   4,P   3,C   7)    -55.7979         0.003475   
    107. D(H  17,C   4,P   3,C   2)     46.3384         0.003475   
    108. D(C   5,C   4,P   3,C   7)   -178.7663         0.003475   
    109. D(C   5,C   4,P   3,C   2)    -76.6300         0.003475   
    110. D(H  19,C   5,C   4,H  18)   -178.7163         0.011282   
    111. D(H  19,C   5,C   4,H  17)    -61.4686         0.011282   
    112. D(H  19,C   5,C   4,P   3)     61.3193         0.011282   
    113. D(C   6,C   5,C   4,H  18)    -57.8037         0.011282   
    114. D(C   6,C   5,C   4,H  17)     59.4440         0.011282   
    115. D(C   6,C   5,C   4,P   3)   -177.7681         0.011282   
    116. D(H  21,C   6,C   5,H  20)     58.2212         0.011809   
    117. D(H  21,C   6,C   5,H  19)    -57.8464         0.011809   
    118. D(H  21,C   6,C   5,C   4)   -179.9739         0.011809   
    119. D(H  22,C   6,C   5,H  20)    177.9429         0.011809   
    120. D(H  22,C   6,C   5,H  19)     61.8753         0.011809   
    121. D(H  22,C   6,C   5,C   4)    -60.2522         0.011809   
    122. D(H  25,C   7,P   3,C   2)     60.9927         0.003475   
    123. D(H  24,C   7,P   3,C   4)     46.3384         0.003475   
    124. D(H  24,C   7,P   3,C   2)    -55.7979         0.003475   
    125. D(C   8,C   7,P   3,C   4)    -76.6299         0.003475   
    126. D(C   8,C   7,P   3,C   2)   -178.7662         0.003475   
    127. D(H  26,C   8,C   7,H  25)     63.1437         0.011282   
    128. D(H  26,C   8,C   7,H  24)   -179.6086         0.011282   
    129. D(H  26,C   8,C   7,P   3)    -56.8208         0.011282   
    130. D(C   9,C   8,C   7,H  25)    -57.8036         0.011282   
    131. D(C   9,C   8,C   7,H  24)     59.4441         0.011282   
    132. D(C   9,C   8,C   7,P   3)   -177.7681         0.011282   
    133. D(H  29,C   9,C   8,H  27)    -57.8464         0.011809   
    134. D(H  29,C   9,C   8,H  26)     58.2213         0.011809   
    135. D(H  29,C   9,C   8,C   7)   -179.9739         0.011809   
    136. D(H  28,C   9,C   8,H  27)   -177.5645         0.011809   
    137. D(H  28,C   9,C   8,H  26)    -61.4968         0.011809   
    138. D(H  28,C   9,C   8,C   7)     60.3080         0.011809   
    -----------------------------------------------------------------

Number of atoms                         .... 31
Number of degrees of freedom            .... 138


         *************************************************************
         *                GEOMETRY OPTIMIZATION CYCLE   1            *
         *************************************************************
---------------------------------
CARTESIAN COORDINATES (ANGSTROEM)
---------------------------------
  C     -0.586997    3.982932   -0.560630
  C     -0.244866    2.793783    0.325001
  C     -0.639828    1.476080   -0.340673
  P     -0.296546    0.010697    0.741283
  C     -0.849364   -1.355828   -0.382471
  C     -2.371564   -1.477163   -0.442822
  C     -2.797152   -2.639466   -1.327919
  C      1.540212   -0.122092    0.530319
  C      2.129635   -1.299061    1.306711
  C      3.643346   -1.352815    1.160898
  H     -0.297299    4.917020   -0.069175
  H     -0.058204    3.924165   -1.517332
  H     -1.661954    4.025209   -0.763175
  H      0.829948    2.813638    0.538422
  H     -0.762703    2.906045    1.285568
  H     -1.712691    1.498699   -0.560521
  H     -0.115716    1.363717   -1.296435
  H     -0.442832   -1.198147   -1.387790
  H     -0.434086   -2.298345   -0.009528
  H     -2.818824   -0.556448   -0.834499
  H     -2.782295   -1.628174    0.563132
  H     -3.888846   -2.711198   -1.360030
  H     -2.435204   -2.505140   -2.352275
  H     -2.405820   -3.587731   -0.945821
  H      1.787054   -0.209884   -0.533712
  H      1.996976    0.805050    0.893159
  H      1.878319   -1.217750    2.371454
  H      1.709585   -2.247116    0.951863
  H      4.107499   -0.438911    1.545196
  H      4.048086   -2.200842    1.722155
  H      3.932131   -1.470923    0.111609

----------------------------
CARTESIAN COORDINATES (A.U.)
----------------------------
  NO LB      ZA    FRAG     MASS         X           Y           Z
   0 C     6.0000    0    12.011   -1.109264    7.526651   -1.059437
   1 C     6.0000    0    12.011   -0.462730    5.279485    0.614163
   2 C     6.0000    0    12.011   -1.209100    2.789387   -0.643779
   3 P    15.0000    0    30.974   -0.560391    0.020214    1.400822
   4 C     6.0000    0    12.011   -1.605065   -2.562144   -0.722765
   5 C     6.0000    0    12.011   -4.481606   -2.791434   -0.836812
   6 C     6.0000    0    12.011   -5.285851   -4.987868   -2.509403
   7 C     6.0000    0    12.011    2.910579   -0.230720    1.002158
   8 C     6.0000    0    12.011    4.024427   -2.454870    2.469326
   9 C     6.0000    0    12.011    6.884926   -2.556450    2.193779
  10 H     1.0000    0     1.008   -0.561814    9.291821   -0.130722
  11 H     1.0000    0     1.008   -0.109990    7.415597   -2.867342
  12 H     1.0000    0     1.008   -3.140638    7.606543   -1.442192
  13 H     1.0000    0     1.008    1.568374    5.317005    1.017470
  14 H     1.0000    0     1.008   -1.441300    5.491629    2.429371
  15 H     1.0000    0     1.008   -3.236517    2.832131   -1.059231
  16 H     1.0000    0     1.008   -0.218672    2.577052   -2.449907
  17 H     1.0000    0     1.008   -0.836831   -2.264170   -2.622543
  18 H     1.0000    0     1.008   -0.820304   -4.343243   -0.018005
  19 H     1.0000    0     1.008   -5.326805   -1.051534   -1.576975
  20 H     1.0000    0     1.008   -5.257776   -3.076803    1.064165
  21 H     1.0000    0     1.008   -7.348854   -5.123422   -2.570084
  22 H     1.0000    0     1.008   -4.601869   -4.734029   -4.445156
  23 H     1.0000    0     1.008   -4.546341   -6.779829   -1.787343
  24 H     1.0000    0     1.008    3.377043   -0.396623   -1.008570
  25 H     1.0000    0     1.008    3.773738    1.521324    1.687826
  26 H     1.0000    0     1.008    3.549509   -2.301214    4.481399
  27 H     1.0000    0     1.008    3.230647   -4.246434    1.798760
  28 H     1.0000    0     1.008    7.762048   -0.829422    2.919997
  29 H     1.0000    0     1.008    7.649774   -4.158989    3.254401
  30 H     1.0000    0     1.008    7.430651   -2.779642    0.210910

--------------------------------
INTERNAL COORDINATES (ANGSTROEM)
--------------------------------
 C      0   0   0     0.000000000000     0.00000000     0.00000000
 C      1   0   0     1.521667254535     0.00000000     0.00000000
 C      2   1   0     1.528220550814   111.23535169     0.00000000
 P      3   2   1     1.853596141059   112.30523329   182.23173342
 C      4   3   2     1.853596873450   100.00395849   181.23370885
 C      5   4   3     1.528220293487   112.30523444   283.37004780
 C      6   5   4     1.521666885019   111.23535151   182.23187678
 C      4   3   2     1.853596147596   100.00398421   283.37008424
 C      8   4   3     1.528221200466   112.30519990   181.23377837
 C      9   8   4     1.521667478461   111.23533613   182.23193611
 H      1   2   3     1.094519684598   110.24821118   180.02617694
 H      1   2   3     1.094693707821   110.98271820   299.74782727
 H      1   2   3     1.094689167574   111.01759494    60.30806512
 H      2   1   3     1.095978046706   108.64336010   122.12748051
 H      2   1   3     1.097017263630   108.87568628   238.19512566
 H      3   2   1     1.095390240523   108.82928879   302.19622680
 H      3   2   1     1.095810126325   110.16473744    59.44384328
 H      5   4   3     1.095809224521   109.84430003    46.33842879
 H      5   4   3     1.095390612440   108.35259977   163.12902892
 H      6   5   4     1.095978326042   110.72591529    61.31931235
 H      6   5   4     1.097017650997   110.34355228   303.17922332
 H      7   6   5     1.094519248703   110.24823107   180.02613189
 H      7   6   5     1.094694041144   110.98273278   299.74778042
 H      7   6   5     1.094689968006   111.01763434    60.30804024
 H      8   4   3     1.095810374649   109.84431804   304.20206236
 H      8   4   3     1.095389659190   108.35264731    60.99270831
 H      9   8   4     1.097018170600   110.34348122   303.17919444
 H      9   8   4     1.095977823055   110.72593979    61.31927525
 H     10   9   8     1.094688760072   111.01767231    60.30799096
 H     10   9   8     1.094519840102   110.24814291   180.02610285
 H     10   9   8     1.094693418912   110.98272201   299.74770932

---------------------------
INTERNAL COORDINATES (A.U.)
---------------------------
 C      0   0   0     0.000000000000     0.00000000     0.00000000
 C      1   0   0     2.875534378026     0.00000000     0.00000000
 C      2   1   0     2.887918313268   111.23535169     0.00000000
 P      3   2   1     3.502789069495   112.30523329   182.23173342
 C      4   3   2     3.502790453514   100.00395849   181.23370885
 C      5   4   3     2.887917826992   112.30523444   283.37004780
 C      6   5   4     2.875533679742   111.23535151   182.23187678
 C      4   3   2     3.502789081847   100.00398421   283.37008424
 C      8   4   3     2.887919540933   112.30519990   181.23377837
 C      9   8   4     2.875534801186   111.23533613   182.23193611
 H      1   2   3     2.068342452077   110.24821118   180.02617694
 H      1   2   3     2.068671308308   110.98271820   299.74782727
 H      1   2   3     2.068662728484   111.01759494    60.30806512
 H      2   1   3     2.071098357065   108.64336010   122.12748051
 H      2   1   3     2.073062192444   108.87568628   238.19512566
 H      3   2   1     2.069987564359   108.82928879   302.19622680
 H      3   2   1     2.070781033532   110.16473744    59.44384328
 H      5   4   3     2.070779329370   109.84430003    46.33842879
 H      5   4   3     2.069988267180   108.35259977   163.12902892
 H      6   5   4     2.071098884933   110.72591529    61.31931235
 H      6   5   4     2.073062924461   110.34355228   303.17922332
 H      7   6   5     2.068341628354   110.24823107   180.02613189
 H      7   6   5     2.068671938198   110.98273278   299.74778042
 H      7   6   5     2.068664241082   111.01763434    60.30804024
 H      8   4   3     2.070781502797   109.84431804   304.20206236
 H      8   4   3     2.069986465798   108.35264731    60.99270831
 H      9   8   4     2.073063906369   110.34348122   303.17919444
 H      9   8   4     2.071097934426   110.72593979    61.31927525
 H     10   9   8     2.068661958419   111.01767231    60.30799096
 H     10   9   8     2.068342745937   110.24814291   180.02610285
 H     10   9   8     2.068670762350   110.98272201   299.74770932

---------------------
BASIS SET INFORMATION
---------------------
There are 3 groups of distinct atoms

 Group   1 Type C   : 7s4p1d contracted to 3s2p1d pattern {511/31/1}
 Group   2 Type P   : 10s7p1d contracted to 4s3p1d pattern {5311/511/1}
 Group   3 Type H   : 4s1p contracted to 2s1p pattern {31/1}

Atom   0C    basis set group =>   1
Atom   1C    basis set group =>   1
Atom   2C    basis set group =>   1
Atom   3P    basis set group =>   2
Atom   4C    basis set group =>   1
Atom   5C    basis set group =>   1
Atom   6C    basis set group =>   1
Atom   7C    basis set group =>   1
Atom   8C    basis set group =>   1
Atom   9C    basis set group =>   1
Atom  10H    basis set group =>   3
Atom  11H    basis set group =>   3
Atom  12H    basis set group =>   3
Atom  13H    basis set group =>   3
Atom  14H    basis set group =>   3
Atom  15H    basis set group =>   3
Atom  16H    basis set group =>   3
Atom  17H    basis set group =>   3
Atom  18H    basis set group =>   3
Atom  19H    basis set group =>   3
Atom  20H    basis set group =>   3
Atom  21H    basis set group =>   3
Atom  22H    basis set group =>   3
Atom  23H    basis set group =>   3
Atom  24H    basis set group =>   3
Atom  25H    basis set group =>   3
Atom  26H    basis set group =>   3
Atom  27H    basis set group =>   3
Atom  28H    basis set group =>   3
Atom  29H    basis set group =>   3
Atom  30H    basis set group =>   3
---------------------------------
AUXILIARY/J BASIS SET INFORMATION
---------------------------------
There are 3 groups of distinct atoms

 Group   1 Type C   : 12s5p4d2f1g contracted to 6s4p3d1f1g pattern {711111/2111/211/2/1}
 Group   2 Type P   : 14s5p5d2f1g contracted to 8s4p3d1f1g pattern {71111111/2111/311/2/1}
 Group   3 Type H   : 5s2p1d contracted to 3s1p1d pattern {311/2/1}

Atom   0C    basis set group =>   1
Atom   1C    basis set group =>   1
Atom   2C    basis set group =>   1
Atom   3P    basis set group =>   2
Atom   4C    basis set group =>   1
Atom   5C    basis set group =>   1
Atom   6C    basis set group =>   1
Atom   7C    basis set group =>   1
Atom   8C    basis set group =>   1
Atom   9C    basis set group =>   1
Atom  10H    basis set group =>   3
Atom  11H    basis set group =>   3
Atom  12H    basis set group =>   3
Atom  13H    basis set group =>   3
Atom  14H    basis set group =>   3
Atom  15H    basis set group =>   3
Atom  16H    basis set group =>   3
Atom  17H    basis set group =>   3
Atom  18H    basis set group =>   3
Atom  19H    basis set group =>   3
Atom  20H    basis set group =>   3
Atom  21H    basis set group =>   3
Atom  22H    basis set group =>   3
Atom  23H    basis set group =>   3
Atom  24H    basis set group =>   3
Atom  25H    basis set group =>   3
Atom  26H    basis set group =>   3
Atom  27H    basis set group =>   3
Atom  28H    basis set group =>   3
Atom  29H    basis set group =>   3
Atom  30H    basis set group =>   3


           ************************************************************
           *        Program running with 6 parallel MPI-processes     *
           *              working on a common directory               *
           ************************************************************
------------------------------------------------------------------------------
                             ORCA STARTUP CALCULATIONS
                           -- RI-GTO INTEGRALS CHOSEN --
------------------------------------------------------------------------------
------------------------------------------------------------------------------
                   ___                                                        
                  /   \      - P O W E R E D   B Y -                         
                 /     \                                                     
                 |  |  |   _    _      __       _____    __    __             
                 |  |  |  | |  | |    /  \     |  _  \  |  |  /  |          
                  \  \/   | |  | |   /    \    | | | |  |  | /  /          
                 / \  \   | |__| |  /  /\  \   | |_| |  |  |/  /          
                |  |  |   |  __  | /  /__\  \  |    /   |      \           
                |  |  |   | |  | | |   __   |  |    \   |  |\   \          
                \     /   | |  | | |  |  |  |  | |\  \  |  | \   \       
                 \___/    |_|  |_| |__|  |__|  |_| \__\ |__|  \__/        
                                                                              
                      - O R C A' S   B I G   F R I E N D -                    
                                      &                                       
                       - I N T E G R A L  F E E D E R -                       
                                                                              
 v1 FN, 2020, v2 2021, v3 2022-2024                                           
------------------------------------------------------------------------------


----------------------
SHARK INTEGRAL PACKAGE
----------------------

Number of atoms                             ...     31
Number of basis functions                   ...    249
Number of shells                            ...    125
Maximum angular momentum                    ...      2
Integral batch strategy                     ... SHARK/LIBINT Hybrid
RI-J (if used) integral strategy            ... SPLIT-RIJ (Revised 2003 algorithm where possible)
Printlevel                                  ...      1
Contraction scheme used                     ... SEGMENTED contraction
Prescreening option                         ... SCHWARTZ
   Thresh                                   ... 2.500e-11
   Tcut                                     ... 2.500e-12
   Tpresel                                  ... 2.500e-12 
Coulomb Range Separation                    ... NOT USED
Exchange Range Separation                   ... NOT USED
Multipole approximations                    ... NOT USED
Finite Nucleus Model                        ... NOT USED
CABS basis                                  ... NOT available
Auxiliary Coulomb fitting basis             ... AVAILABLE
   # of basis functions in Aux-J            ...    723
   # of shells in Aux-J                     ...    257
   Maximum angular momentum in Aux-J        ...      4
Auxiliary J/K fitting basis                 ... NOT available
Auxiliary Correlation fitting basis         ... NOT available
Auxiliary 'external' fitting basis          ... NOT available

Checking pre-screening integrals            ... done (  0.0 sec) Dimension = 125
Check shell pair data                       ... done (  0.0 sec)
Shell pair information
Shell pair cut-off parameter TPreSel        ...   2.5e-12
Total number of shell pairs                 ...      7875
Shell pairs after pre-screening             ...      6575
Total number of primitive shell pairs       ...     26999
Primitive shell pairs kept                  ...     15694
          la=0 lb=0:   2368 shell pairs
          la=1 lb=0:   2567 shell pairs
          la=1 lb=1:    695 shell pairs
          la=2 lb=0:    598 shell pairs
          la=2 lb=1:    306 shell pairs
          la=2 lb=2:     41 shell pairs

Calculating one electron integrals          ... done (  0.0 sec)
Calculating RI/J V-Matrix + Cholesky decomp.... done (  0.0 sec)
Calculating Nuclear repulsion               ... done (  0.0 sec) ENN=    648.219070590509 Eh

Diagonalization of the overlap matrix:
Smallest eigenvalue                        ... 1.437e-03
Time for diagonalization                   ...    0.007 sec
Threshold for overlap eigenvalues          ... 1.000e-07
Number of eigenvalues below threshold      ... 0
Time for construction of square roots      ...    0.004 sec
Total time needed                          ...    0.013 sec

-------------------
DFT GRID GENERATION
-------------------

General Integration Accuracy     IntAcc      ... 4.388
Radial Grid Type                 RadialGrid  ... OptM3 with GC (2021)
Angular Grid (max. ang.)         AngularGrid ... 4 (Lebedev-302)
Angular grid pruning method      GridPruning ... 4 (adaptive)
Weight generation scheme         WeightScheme... mBecke (2022)
Basis function cutoff            BFCut       ... 1.0000e-11
Integration weight cutoff        WCut        ... 1.0000e-14
Partially contracted basis set               ... off
Rotationally invariant grid construction     ... off
Angular grids for H and He will be reduced by one unit

Total number of grid points                  ...   128112
Total number of batches                      ...     2017
Average number of points per batch           ...       63
Average number of grid points per atom       ...     4133
Initializing property integral containers    ... done (  0.0 sec)

SHARK setup successfully completed in   0.7 seconds

Maximum memory used throughout the entire STARTUP-calculation: 34.3 MB


           ************************************************************
           *        Program running with 6 parallel MPI-processes     *
           *              working on a common directory               *
           ************************************************************
-------------------------------------------------------------------------------
                                 ORCA GUESS
                   Start orbitals & Density for SCF / CASSCF
-------------------------------------------------------------------------------

------------
SCF SETTINGS
------------
Hamiltonian:
 Density Functional     Method          .... DFT(GTOs)
 Exchange Functional    Exchange        .... B88
   X-Alpha parameter    XAlpha          ....  0.666667
   Becke's b parameter  XBeta           ....  0.004200
 Correlation Functional Correlation     .... LYP
 LDA part of GGA corr.  LDAOpt          .... VWN-5
 Gradients option       PostSCFGGA      .... off
 Hybrid DFT is turned on
   Fraction HF Exchange ScalHFX         ....  0.200000
   Scaling of DF-GGA-X  ScalDFX         ....  0.720000
   Scaling of DF-GGA-C  ScalDFC         ....  0.810000
   Scaling of DF-LDA-C  ScalLDAC        ....  1.000000
   Perturbative correction              ....  0.000000
   NL short-range parameter             ....  4.800000
 RI-approximation to the Coulomb term is turned on
   Number of AuxJ basis functions       .... 723
   RIJ-ON(X) (HFX calculated with O(N)) .... on


General Settings:
 Integral files         IntName         .... data/geom_opt/75226/75226
 Hartree-Fock type      HFTyp           .... RHF
 Total Charge           Charge          ....    0
 Multiplicity           Mult            ....    1
 Number of Electrons    NEL             ....   90
 Basis Dimension        Dim             ....  249
 Nuclear Repulsion      ENuc            ....    648.2190705905 Eh

Convergence Acceleration:
 AO-DIIS                CNVDIIS         .... on
   Start iteration      DIISMaxIt       ....    12
   Startup error        DIISStart       ....  0.200000
   # of expansion vecs  DIISMaxEq       ....     5
   Bias factor          DIISBfac        ....   1.050
   Max. coefficient     DIISMaxC        ....  10.000
 MO-DIIS                CNVKDIIS        .... off
 Trust-Rad. Augm. Hess. CNVTRAH         .... auto
   Auto Start mean grad. ratio tolernc. ....  1.125000
   Auto Start start iteration           ....    50
   Auto Start num. interpolation iter.  ....    10
   Max. Number of Micro iterations      ....    24
   Max. Number of Macro iterations      .... Maxiter - #DIIS iter
   Number of Davidson start vectors     ....     2
   Converg. threshold    (grad. norm)   ....   1.000e-05
   Grad. Scal. Fac. for Micro threshold ....   0.100
   Minimum threshold for Micro iter.    ....   1.000e-02
   NR start threshold (gradient norm)   ....   1.000e-04
   Initial trust radius                 ....   0.400
   Minimum AH scaling param. (alpha)    ....   1.000
   Maximum AH scaling param. (alpha)    .... 1000.000
   Quad. conv. algorithm                .... NR
   White noise on init. David. guess    .... on
   Maximum white noise                  ....   0.010
   Pseudo random numbers                .... off
   Inactive MOs                         .... canonical
   Orbital update algorithm             .... Taylor
   Preconditioner                       .... Diag
   Full preconditioner red. dimension   ....   250
   COSX micro iterations for RIJONX calc.... off
 SOSCF                  CNVSOSCF        .... on
   Start iteration      SOSCFMaxIt      ....   150
   Startup grad/error   SOSCFStart      ....  0.003300
   Hessian update       SOSCFHessUp     .... L-BFGS
 Level Shifting         CNVShift        .... on
   Level shift para.    LevelShift      ....    0.2500
   Turn off err/grad.   ShiftErr        ....    0.0010
 Zerner damping         CNVZerner       .... off
 Static damping         CNVDamp         .... on
   Fraction old density DampFac         ....    0.7000
   Max. Damping (<1)    DampMax         ....    0.9800
   Min. Damping (>=0)   DampMin         ....    0.0000
   Turn off err/grad.   DampErr         ....    0.1000

SCF Procedure:
 Maximum # iterations   MaxIter         ....   125
 SCF integral mode      SCFMode         .... Direct
   Integral package                     .... SHARK and LIBINT hybrid scheme
 Reset frequency        DirectResetFreq ....    20
 Integral Threshold     Thresh          ....  2.500e-11 Eh
 Primitive CutOff       TCut            ....  2.500e-12 Eh

Convergence Tolerance:
 Convergence Check Mode ConvCheckMode   .... Total+1el-Energy
 Convergence forced     ConvForced      .... 0
 Energy Change          TolE            ....  1.000e-08 Eh
 1-El. energy change                    ....  1.000e-05 Eh
 Orbital Gradient       TolG            ....  1.000e-05
 Orbital Rotation angle TolX            ....  1.000e-05
 DIIS Error             TolErr          ....  5.000e-07

------------------------------
INITIAL GUESS: MODEL POTENTIAL
------------------------------
Loading Hartree-Fock densities                     ... done
Calculating cut-offs                               ... done
Initializing the effective Hamiltonian             ... done
Setting up the integral package (SHARK)            ... done
Starting the Coulomb interaction                   ... done (   0.1 sec)
Making the grid                                    ... done (   0.1 sec)
Mapping shells                                     ... done
Starting the XC term evaluation                    ... done (   0.1 sec)
  promolecular density results
     # of electrons  =     89.983213604
     EX              =    -75.170248505
     EC              =     -2.988580952
     EX+EC           =    -78.158829457
Transforming the Hamiltonian                       ... done (   0.0 sec)
Diagonalizing the Hamiltonian                      ... done (   0.0 sec)
Back transforming the eigenvectors                 ... done (   0.0 sec)
Now organizing SCF variables                       ... done
                      ------------------
                      INITIAL GUESS DONE (   0.3 sec)
                      ------------------
             **** ENERGY FILE WAS UPDATED (data/geom_opt/75226/75226.en.tmp) ****
Finished Guess after   0.4 sec
Maximum memory used throughout the entire GUESS-calculation: 17.6 MB


           ************************************************************
           *        Program running with 6 parallel MPI-processes     *
           *              working on a common directory               *
           ************************************************************

-------------------------------------------------------------------------------------------
                                      ORCA LEAN-SCF
                              memory conserving SCF solver
-------------------------------------------------------------------------------------------

----------------------------------------D-I-I-S--------------------------------------------
Iteration    Energy (Eh)           Delta-E    RMSDP     MaxDP     DIISErr   Damp  Time(sec)
-------------------------------------------------------------------------------------------
               ***  Starting incremental Fock matrix formation  ***
    1    -695.8982496860666060     0.00e+00  2.86e-03  8.00e-02  1.76e-01  0.700   1.7
    2    -696.0839096011483207    -1.86e-01  2.06e-03  4.93e-02  9.19e-02  0.700   1.5
                               ***Turning on AO-DIIS***
    3    -696.1584275354242664    -7.45e-02  8.96e-04  3.64e-02  3.46e-02  0.700   1.4
    4    -696.2009850035534555    -4.26e-02  1.62e-03  7.85e-02  1.63e-02  0.000   1.4
    5    -696.2935271227948988    -9.25e-02  2.71e-04  1.10e-02  6.90e-03  0.000   1.5
                              *** Initializing SOSCF ***
---------------------------------------S-O-S-C-F--------------------------------------
Iteration    Energy (Eh)           Delta-E    RMSDP     MaxDP     MaxGrad    Time(sec)
--------------------------------------------------------------------------------------
    6    -696.2941939574208163    -6.67e-04  9.59e-05  1.61e-03  1.75e-03     1.3
               *** Restarting incremental Fock matrix formation ***
    7    -696.2942555789994685    -6.16e-05  7.00e-05  2.37e-03  2.59e-04     1.7
    8    -696.2942571907334468    -1.61e-06  2.02e-05  8.55e-04  2.37e-04     1.2
    9    -696.2942609460445738    -3.76e-06  6.70e-06  4.83e-04  2.04e-05     1.1
   10    -696.2942609680136457    -2.20e-08  3.40e-06  2.41e-04  2.25e-05     1.0
   11    -696.2942610011288025    -3.31e-08  5.04e-07  1.98e-05  2.34e-06     0.9
                  *** Gradient check signals convergence ***

               *****************************************************
               *                     SUCCESS                       *
               *           SCF CONVERGED AFTER  11 CYCLES          *
               *****************************************************

             **** ENERGY FILE WAS UPDATED (data/geom_opt/75226/75226.en.tmp) ****

----------------
TOTAL SCF ENERGY
----------------

Total Energy       :       -696.29426100112880 Eh          -18947.13010 eV

Components:
Nuclear Repulsion  :        648.21907059050898 Eh           17638.93766 eV
Electronic Energy  :      -1344.51333159163778 Eh          -36586.06775 eV
One Electron Energy:      -2235.82702953403486 Eh          -60839.94652 eV
Two Electron Energy:        891.31369794239708 Eh           24253.87876 eV

Virial components:
Potential Energy   :      -1387.53888362703606 Eh          -37756.85254 eV
Kinetic Energy     :        691.24462262590725 Eh           18809.72245 eV
Virial Ratio       :          2.00730513946863

DFT components:
N(Alpha)           :       45.000001651719 electrons
N(Beta)            :       45.000001651719 electrons
N(Total)           :       90.000003303439 electrons
E(X)               :      -60.787526776959 Eh       
E(C)               :       -3.533175556050 Eh       
E(XC)              :      -64.320702333009 Eh       

---------------
SCF CONVERGENCE
---------------

  Last Energy change         ...    3.3115e-08  Tolerance :   1.0000e-08
  Last MAX-Density change    ...    1.9803e-05  Tolerance :   1.0000e-07
  Last RMS-Density change    ...    5.0447e-07  Tolerance :   5.0000e-09
  Last DIIS Error            ...    1.7456e-03  Tolerance :   5.0000e-07
  Last Orbital Gradient      ...    2.3373e-06  Tolerance :   1.0000e-05
  Last Orbital Rotation      ...    4.1588e-06  Tolerance :   1.0000e-05


----------------
ORBITAL ENERGIES
----------------

  NO   OCC          E(Eh)            E(eV) 
   0   2.0000     -77.023719     -2095.9220 
   1   2.0000     -10.178804      -276.9793 
   2   2.0000     -10.178797      -276.9791 
   3   2.0000     -10.178792      -276.9790 
   4   2.0000     -10.174209      -276.8543 
   5   2.0000     -10.174206      -276.8542 
   6   2.0000     -10.174145      -276.8526 
   7   2.0000     -10.171404      -276.7780 
   8   2.0000     -10.171401      -276.7779 
   9   2.0000     -10.171399      -276.7778 
  10   2.0000      -6.522281      -177.4803 
  11   2.0000      -4.687605      -127.5562 
  12   2.0000      -4.687604      -127.5562 
  13   2.0000      -4.684534      -127.4726 
  14   2.0000      -0.793510       -21.5925 
  15   2.0000      -0.773586       -21.0503 
  16   2.0000      -0.773583       -21.0503 
  17   2.0000      -0.709207       -19.2985 
  18   2.0000      -0.664489       -18.0817 
  19   2.0000      -0.664488       -18.0816 
  20   2.0000      -0.590193       -16.0600 
  21   2.0000      -0.576482       -15.6869 
  22   2.0000      -0.576479       -15.6868 
  23   2.0000      -0.521322       -14.1859 
  24   2.0000      -0.463317       -12.6075 
  25   2.0000      -0.463313       -12.6074 
  26   2.0000      -0.463044       -12.6001 
  27   2.0000      -0.423771       -11.5314 
  28   2.0000      -0.423770       -11.5314 
  29   2.0000      -0.414222       -11.2716 
  30   2.0000      -0.398278       -10.8377 
  31   2.0000      -0.398277       -10.8377 
  32   2.0000      -0.390068       -10.6143 
  33   2.0000      -0.381060       -10.3692 
  34   2.0000      -0.381059       -10.3692 
  35   2.0000      -0.362414        -9.8618 
  36   2.0000      -0.341368        -9.2891 
  37   2.0000      -0.339154        -9.2289 
  38   2.0000      -0.339153        -9.2288 
  39   2.0000      -0.336431        -9.1547 
  40   2.0000      -0.326651        -8.8886 
  41   2.0000      -0.326649        -8.8886 
  42   2.0000      -0.292670        -7.9640 
  43   2.0000      -0.292668        -7.9639 
  44   2.0000      -0.213177        -5.8008 
  45   0.0000       0.053929         1.4675 
  46   0.0000       0.053933         1.4676 
  47   0.0000       0.057681         1.5696 
  48   0.0000       0.079919         2.1747 
  49   0.0000       0.084130         2.2893 
  50   0.0000       0.084134         2.2894 
  51   0.0000       0.094890         2.5821 
  52   0.0000       0.094898         2.5823 
  53   0.0000       0.107523         2.9259 
  54   0.0000       0.119076         3.2402 
  55   0.0000       0.119085         3.2405 
*Only the first 10 virtual orbitals were printed.

                    ********************************
                    * MULLIKEN POPULATION ANALYSIS *
                    ********************************

-----------------------
MULLIKEN ATOMIC CHARGES
-----------------------
   0 C :    0.019447
   1 C :    0.015362
   2 C :   -0.138829
   3 P :    0.159374
   4 C :   -0.138853
   5 C :    0.015290
   6 C :    0.019475
   7 C :   -0.138949
   8 C :    0.015370
   9 C :    0.019464
  10 H :    0.005371
  11 H :    0.002458
  12 H :    0.004089
  13 H :    0.001436
  14 H :    0.007229
  15 H :    0.022755
  16 H :    0.007587
  17 H :    0.007618
  18 H :    0.022733
  19 H :    0.001445
  20 H :    0.007228
  21 H :    0.005361
  22 H :    0.002482
  23 H :    0.004075
  24 H :    0.007638
  25 H :    0.022761
  26 H :    0.007235
  27 H :    0.001446
  28 H :    0.004081
  29 H :    0.005357
  30 H :    0.002464
Sum of atomic charges:   -0.0000000

--------------------------------
MULLIKEN REDUCED ORBITAL CHARGES
--------------------------------
  0 C s       :     2.981784  s :     2.981784
      pz      :     0.988417  p :     2.968888
      px      :     0.998669
      py      :     0.981802
      dz2     :     0.006154  d :     0.029881
      dxz     :     0.005439
      dyz     :     0.006529
      dx2y2   :     0.008882
      dxy     :     0.002877

  1 C s       :     2.997188  s :     2.997188
      pz      :     1.004074  p :     2.949184
      px      :     1.001086
      py      :     0.944024
      dz2     :     0.007750  d :     0.038265
      dxz     :     0.006031
      dyz     :     0.008597
      dx2y2   :     0.011062
      dxy     :     0.004826

  2 C s       :     3.075380  s :     3.075380
      pz      :     1.018692  p :     3.032681
      px      :     1.009630
      py      :     1.004359
      dz2     :     0.006593  d :     0.030768
      dxz     :     0.004971
      dyz     :     0.007080
      dx2y2   :     0.008628
      dxy     :     0.003497

  3 P s       :     5.793588  s :     5.793588
      pz      :     3.248319  p :     8.876631
      px      :     2.849695
      py      :     2.778617
      dz2     :     0.021095  d :     0.170407
      dxz     :     0.020063
      dyz     :     0.052015
      dx2y2   :     0.052010
      dxy     :     0.025224

  4 C s       :     3.075383  s :     3.075383
      pz      :     1.007704  p :     3.032702
      px      :     1.000037
      py      :     1.024961
      dz2     :     0.006849  d :     0.030768
      dxz     :     0.006450
      dyz     :     0.004638
      dx2y2   :     0.006772
      dxy     :     0.006059

  5 C s       :     2.997193  s :     2.997193
      pz      :     0.999983  p :     2.949251
      px      :     0.954517
      py      :     0.994751
      dz2     :     0.008330  d :     0.038266
      dxz     :     0.006932
      dyz     :     0.006196
      dx2y2   :     0.009097
      dxy     :     0.007711

  6 C s       :     2.981767  s :     2.981767
      pz      :     0.992625  p :     2.968878
      px      :     0.988921
      py      :     0.987331
      dz2     :     0.008626  d :     0.029881
      dxz     :     0.003150
      dyz     :     0.005454
      dx2y2   :     0.008838
      dxy     :     0.003812

  7 C s       :     3.075422  s :     3.075422
      pz      :     1.000575  p :     3.032758
      px      :     1.025216
      py      :     1.006967
      dz2     :     0.009088  d :     0.030769
      dxz     :     0.004342
      dyz     :     0.004939
      dx2y2   :     0.007261
      dxy     :     0.005138

  8 C s       :     2.997160  s :     2.997160
      pz      :     0.998474  p :     2.949204
      px      :     0.973490
      py      :     0.977240
      dz2     :     0.009799  d :     0.038266
      dxz     :     0.005782
      dyz     :     0.005077
      dx2y2   :     0.009494
      dxy     :     0.008113

  9 C s       :     2.981789  s :     2.981789
      pz      :     0.996051  p :     2.968865
      px      :     0.978183
      py      :     0.994631
      dz2     :     0.006898  d :     0.029881
      dxz     :     0.005357
      dyz     :     0.004458
      dx2y2   :     0.006289
      dxy     :     0.006879

 10 H s       :     0.971407  s :     0.971407
      pz      :     0.006459  p :     0.023222
      px      :     0.005606
      py      :     0.011156

 11 H s       :     0.974161  s :     0.974161
      pz      :     0.011694  p :     0.023381
      px      :     0.007123
      py      :     0.004564

 12 H s       :     0.972547  s :     0.972547
      pz      :     0.005121  p :     0.023365
      px      :     0.013667
      py      :     0.004577

 13 H s       :     0.976186  s :     0.976186
      pz      :     0.004968  p :     0.022378
      px      :     0.013415
      py      :     0.003995

 14 H s       :     0.970615  s :     0.970615
      pz      :     0.011529  p :     0.022157
      px      :     0.006779
      py      :     0.003849

 15 H s       :     0.954084  s :     0.954084
      pz      :     0.005047  p :     0.023161
      px      :     0.013686
      py      :     0.004428

 16 H s       :     0.969605  s :     0.969605
      pz      :     0.011519  p :     0.022808
      px      :     0.006983
      py      :     0.004306

 17 H s       :     0.969573  s :     0.969573
      pz      :     0.012446  p :     0.022809
      px      :     0.005270
      py      :     0.005092

 18 H s       :     0.954106  s :     0.954106
      pz      :     0.006054  p :     0.023161
      px      :     0.005663
      py      :     0.011444

 19 H s       :     0.976177  s :     0.976177
      pz      :     0.005955  p :     0.022379
      px      :     0.005578
      py      :     0.010845

 20 H s       :     0.970614  s :     0.970614
      pz      :     0.012425  p :     0.022157
      px      :     0.005142
      py      :     0.004590

 21 H s       :     0.971417  s :     0.971417
      pz      :     0.004778  p :     0.023222
      px      :     0.013868
      py      :     0.004576

 22 H s       :     0.974138  s :     0.974138
      pz      :     0.012785  p :     0.023380
      px      :     0.006014
      py      :     0.004580

 23 H s       :     0.972561  s :     0.972561
      pz      :     0.005742  p :     0.023364
      px      :     0.006143
      py      :     0.011480

 24 H s       :     0.969553  s :     0.969553
      pz      :     0.013359  p :     0.022809
      px      :     0.005081
      py      :     0.004370

 25 H s       :     0.954077  s :     0.954077
      pz      :     0.005843  p :     0.023162
      px      :     0.006158
      py      :     0.011160

 26 H s       :     0.970607  s :     0.970607
      pz      :     0.013225  p :     0.022158
      px      :     0.004571
      py      :     0.004362

 27 H s       :     0.976177  s :     0.976177
      pz      :     0.005683  p :     0.022378
      px      :     0.005563
      py      :     0.011131

 28 H s       :     0.972554  s :     0.972554
      pz      :     0.006288  p :     0.023365
      px      :     0.005899
      py      :     0.011179

 29 H s       :     0.971420  s :     0.971420
      pz      :     0.007369  p :     0.023222
      px      :     0.005489
      py      :     0.010364

 30 H s       :     0.974155  s :     0.974155
      pz      :     0.013207  p :     0.023380
      px      :     0.004847
      py      :     0.005326



                     *******************************
                     * LOEWDIN POPULATION ANALYSIS *
                     *******************************

----------------------
LOEWDIN ATOMIC CHARGES
----------------------
   0 C :   -0.052403
   1 C :   -0.044573
   2 C :   -0.174973
   3 P :    0.452894
   4 C :   -0.174975
   5 C :   -0.044581
   6 C :   -0.052399
   7 C :   -0.174989
   8 C :   -0.044574
   9 C :   -0.052395
  10 H :    0.020737
  11 H :    0.018485
  12 H :    0.018830
  13 H :    0.015383
  14 H :    0.019621
  15 H :    0.018005
  16 H :    0.009926
  17 H :    0.009933
  18 H :    0.017998
  19 H :    0.015384
  20 H :    0.019621
  21 H :    0.020735
  22 H :    0.018493
  23 H :    0.018826
  24 H :    0.009933
  25 H :    0.018005
  26 H :    0.019622
  27 H :    0.015386
  28 H :    0.018824
  29 H :    0.020735
  30 H :    0.018487

-------------------------------
LOEWDIN REDUCED ORBITAL CHARGES
-------------------------------
  0 C s       :     2.836895  s :     2.836895
      pz      :     1.048753  p :     3.141201
      px      :     1.058969
      py      :     1.033479
      dz2     :     0.014435  d :     0.074306
      dxz     :     0.013190
      dyz     :     0.017497
      dx2y2   :     0.022815
      dxy     :     0.006370

  1 C s       :     2.835513  s :     2.835513
      pz      :     1.045982  p :     3.116758
      px      :     1.055205
      py      :     1.015571
      dz2     :     0.017782  d :     0.092302
      dxz     :     0.014363
      dyz     :     0.021974
      dx2y2   :     0.028020
      dxy     :     0.010163

  2 C s       :     2.891889  s :     2.891889
      pz      :     1.076780  p :     3.207713
      px      :     1.070689
      py      :     1.060244
      dz2     :     0.015341  d :     0.075370
      dxz     :     0.012451
      dyz     :     0.018048
      dx2y2   :     0.022325
      dxy     :     0.007205

  3 P s       :     5.305357  s :     5.305357
      pz      :     3.340494  p :     9.016941
      px      :     2.879339
      py      :     2.797107
      dz2     :     0.026793  d :     0.224809
      dxz     :     0.024409
      dyz     :     0.069734
      dx2y2   :     0.071472
      dxy     :     0.032401

  4 C s       :     2.891888  s :     2.891888
      pz      :     1.081548  p :     3.207717
      px      :     1.042271
      py      :     1.083898
      dz2     :     0.017518  d :     0.075370
      dxz     :     0.013929
      dyz     :     0.012386
      dx2y2   :     0.018009
      dxy     :     0.013528

  5 C s       :     2.835511  s :     2.835511
      pz      :     1.053482  p :     3.116768
      px      :     1.020326
      py      :     1.042960
      dz2     :     0.019948  d :     0.092302
      dxz     :     0.015447
      dyz     :     0.016222
      dx2y2   :     0.023384
      dxy     :     0.017301

  6 C s       :     2.836894  s :     2.836894
      pz      :     1.048668  p :     3.141198
      px      :     1.054238
      py      :     1.038292
      dz2     :     0.020366  d :     0.074306
      dxz     :     0.007773
      dyz     :     0.014761
      dx2y2   :     0.021999
      dxy     :     0.009408

  7 C s       :     2.891889  s :     2.891889
      pz      :     1.066225  p :     3.207730
      px      :     1.088412
      py      :     1.053094
      dz2     :     0.021713  d :     0.075370
      dxz     :     0.010034
      dyz     :     0.012654
      dx2y2   :     0.018065
      dxy     :     0.012903

  8 C s       :     2.835513  s :     2.835513
      pz      :     1.051842  p :     3.116759
      px      :     1.028200
      py      :     1.036718
      dz2     :     0.024074  d :     0.092302
      dxz     :     0.012445
      dyz     :     0.013104
      dx2y2   :     0.023989
      dxy     :     0.018689

  9 C s       :     2.836896  s :     2.836896
      pz      :     1.060216  p :     3.141193
      px      :     1.021791
      py      :     1.059186
      dz2     :     0.017842  d :     0.074307
      dxz     :     0.011771
      dyz     :     0.011455
      dx2y2   :     0.017330
      dxy     :     0.015910

 10 H s       :     0.914355  s :     0.914355
      pz      :     0.017936  p :     0.064908
      px      :     0.014215
      py      :     0.032757

 11 H s       :     0.916764  s :     0.916764
      pz      :     0.033492  p :     0.064751
      px      :     0.018536
      py      :     0.012723

 12 H s       :     0.916503  s :     0.916503
      pz      :     0.013473  p :     0.064667
      px      :     0.038595
      py      :     0.012600

 13 H s       :     0.919035  s :     0.919035
      pz      :     0.013853  p :     0.065582
      px      :     0.038602
      py      :     0.013126

 14 H s       :     0.914893  s :     0.914893
      pz      :     0.034133  p :     0.065486
      px      :     0.018474
      py      :     0.012879

 15 H s       :     0.912173  s :     0.912173
      pz      :     0.014827  p :     0.069823
      px      :     0.039951
      py      :     0.015044

 16 H s       :     0.919728  s :     0.919728
      pz      :     0.036789  p :     0.070346
      px      :     0.018724
      py      :     0.014833

 17 H s       :     0.919720  s :     0.919720
      pz      :     0.038819  p :     0.070347
      px      :     0.016835
      py      :     0.014693

 18 H s       :     0.912179  s :     0.912179
      pz      :     0.016399  p :     0.069822
      px      :     0.017612
      py      :     0.035811

 19 H s       :     0.919034  s :     0.919034
      pz      :     0.016285  p :     0.065582
      px      :     0.017291
      py      :     0.032006

 20 H s       :     0.914892  s :     0.914892
      pz      :     0.036021  p :     0.065486
      px      :     0.016228
      py      :     0.013237

 21 H s       :     0.914356  s :     0.914356
      pz      :     0.012656  p :     0.064908
      px      :     0.039311
      py      :     0.012941

 22 H s       :     0.916756  s :     0.916756
      pz      :     0.036425  p :     0.064751
      px      :     0.015370
      py      :     0.012955

 23 H s       :     0.916507  s :     0.916507
      pz      :     0.015634  p :     0.064667
      px      :     0.015811
      py      :     0.033222

 24 H s       :     0.919719  s :     0.919719
      pz      :     0.039585  p :     0.070348
      px      :     0.017873
      py      :     0.012891

 25 H s       :     0.912172  s :     0.912172
      pz      :     0.015536  p :     0.069823
      px      :     0.020958
      py      :     0.033328

 26 H s       :     0.914891  s :     0.914891
      pz      :     0.038612  p :     0.065486
      px      :     0.014459
      py      :     0.012415

 27 H s       :     0.919032  s :     0.919032
      pz      :     0.015382  p :     0.065583
      px      :     0.017257
      py      :     0.032944

 28 H s       :     0.916509  s :     0.916509
      pz      :     0.015582  p :     0.064667
      px      :     0.017797
      py      :     0.031288

 29 H s       :     0.914357  s :     0.914357
      pz      :     0.019408  p :     0.064908
      px      :     0.017005
      py      :     0.028495

 30 H s       :     0.916762  s :     0.916762
      pz      :     0.037311  p :     0.064751
      px      :     0.014822
      py      :     0.012618



                      *****************************
                      * MAYER POPULATION ANALYSIS *
                      *****************************

  NA   - Mulliken gross atomic population
  ZA   - Total nuclear charge
  QA   - Mulliken gross atomic charge
  VA   - Mayer's total valence
  BVA  - Mayer's bonded valence
  FA   - Mayer's free valence

  ATOM       NA         ZA         QA         VA         BVA        FA
  0 C      5.9806     6.0000     0.0194     4.0293     4.0293    -0.0000
  1 C      5.9846     6.0000     0.0154     4.0884     4.0884    -0.0000
  2 C      6.1388     6.0000    -0.1388     3.9334     3.9334    -0.0000
  3 P     14.8406    15.0000     0.1594     3.0471     3.0471    -0.0000
  4 C      6.1389     6.0000    -0.1389     3.9334     3.9334    -0.0000
  5 C      5.9847     6.0000     0.0153     4.0885     4.0885    -0.0000
  6 C      5.9805     6.0000     0.0195     4.0292     4.0292    -0.0000
  7 C      6.1389     6.0000    -0.1389     3.9334     3.9334    -0.0000
  8 C      5.9846     6.0000     0.0154     4.0884     4.0884    -0.0000
  9 C      5.9805     6.0000     0.0195     4.0292     4.0292    -0.0000
 10 H      0.9946     1.0000     0.0054     0.9824     0.9824    -0.0000
 11 H      0.9975     1.0000     0.0025     0.9895     0.9895    -0.0000
 12 H      0.9959     1.0000     0.0041     0.9896     0.9896    -0.0000
 13 H      0.9986     1.0000     0.0014     0.9814     0.9814    -0.0000
 14 H      0.9928     1.0000     0.0072     0.9819     0.9819    -0.0000
 15 H      0.9772     1.0000     0.0228     0.9879     0.9879    -0.0000
 16 H      0.9924     1.0000     0.0076     0.9851     0.9851    -0.0000
 17 H      0.9924     1.0000     0.0076     0.9851     0.9851    -0.0000
 18 H      0.9773     1.0000     0.0227     0.9879     0.9879    -0.0000
 19 H      0.9986     1.0000     0.0014     0.9814     0.9814    -0.0000
 20 H      0.9928     1.0000     0.0072     0.9819     0.9819    -0.0000
 21 H      0.9946     1.0000     0.0054     0.9824     0.9824    -0.0000
 22 H      0.9975     1.0000     0.0025     0.9895     0.9895    -0.0000
 23 H      0.9959     1.0000     0.0041     0.9896     0.9896    -0.0000
 24 H      0.9924     1.0000     0.0076     0.9851     0.9851    -0.0000
 25 H      0.9772     1.0000     0.0228     0.9879     0.9879    -0.0000
 26 H      0.9928     1.0000     0.0072     0.9819     0.9819    -0.0000
 27 H      0.9986     1.0000     0.0014     0.9814     0.9814    -0.0000
 28 H      0.9959     1.0000     0.0041     0.9896     0.9896    -0.0000
 29 H      0.9946     1.0000     0.0054     0.9824     0.9824    -0.0000
 30 H      0.9975     1.0000     0.0025     0.9895     0.9895    -0.0000

  Mayer bond orders larger than 0.100000
B(  0-C ,  1-C ) :   1.1104 B(  0-C , 10-H ) :   0.9650 B(  0-C , 11-H ) :   0.9695 
B(  0-C , 12-H ) :   0.9704 B(  1-C ,  2-C ) :   1.0658 B(  1-C , 13-H ) :   0.9437 
B(  1-C , 14-H ) :   0.9428 B(  2-C ,  3-P ) :   0.9679 B(  2-C , 15-H ) :   0.9424 
B(  2-C , 16-H ) :   0.9258 B(  3-P ,  4-C ) :   0.9678 B(  3-P ,  7-C ) :   0.9678 
B(  4-C ,  5-C ) :   1.0658 B(  4-C , 17-H ) :   0.9258 B(  4-C , 18-H ) :   0.9424 
B(  5-C ,  6-C ) :   1.1104 B(  5-C , 19-H ) :   0.9437 B(  5-C , 20-H ) :   0.9428 
B(  6-C , 21-H ) :   0.9650 B(  6-C , 22-H ) :   0.9695 B(  6-C , 23-H ) :   0.9704 
B(  7-C ,  8-C ) :   1.0658 B(  7-C , 24-H ) :   0.9258 B(  7-C , 25-H ) :   0.9424 
B(  8-C ,  9-C ) :   1.1104 B(  8-C , 26-H ) :   0.9428 B(  8-C , 27-H ) :   0.9437 
B(  9-C , 28-H ) :   0.9704 B(  9-C , 29-H ) :   0.9650 B(  9-C , 30-H ) :   0.9695 


-------
TIMINGS
-------

Total SCF time: 0 days 0 hours 0 min 14 sec 

Total time                  ....      14.749 sec
Sum of individual times     ....      14.702 sec  ( 99.7%)

SCF preparation             ....       0.088 sec  (  0.6%)
Fock matrix formation       ....      14.189 sec  ( 96.2%)
  Startup                   ....       0.026 sec  (  0.2% of F)
  Exchange formation        ....      10.136 sec  ( 71.4% of F)
  Split-RI-J                ....       1.284 sec  (  9.0% of F)
  XC integration            ....       2.634 sec  ( 18.6% of F)
    Basis function eval.    ....       0.782 sec  ( 29.7% of XC)
    Density eval.           ....       0.666 sec  ( 25.3% of XC)
    XC-Functional eval.     ....       0.058 sec  (  2.2% of XC)
    XC-Potential eval.      ....       0.601 sec  ( 22.8% of XC)
Diagonalization             ....       0.000 sec  (  0.0%)
Density matrix formation    ....       0.060 sec  (  0.4%)
Total Energy calculation    ....       0.027 sec  (  0.2%)
Population analysis         ....       0.042 sec  (  0.3%)
Orbital Transformation      ....       0.036 sec  (  0.2%)
Orbital Orthonormalization  ....       0.000 sec  (  0.0%)
DIIS solution               ....       0.173 sec  (  1.2%)
SOSCF solution              ....       0.087 sec  (  0.6%)
Finished LeanSCF after  14.8 sec

Maximum memory used throughout the entire LEANSCF-calculation: 25.2 MB


-------------------------------------------------------------------------------
                          DFT DISPERSION CORRECTION                            
                                                                               
                              DFTD3 V3.1  Rev 1                                
                          USING Becke-Johnson damping                          
-------------------------------------------------------------------------------
The B3LYP functional is recognized
Active option DFTDOPT                   ...         4   

molecular C6(AA) [au] = 7634.543929 


            DFT-D V3
 parameters
 s6 scaling factor         :     1.0000 
 a1 scaling factor         :     0.3981 
 s8 scaling factor         :     1.9889 
 a2 scaling factor         :     4.4211 
 ad hoc parameters k1-k3   :    16.0000     1.3333    -4.0000 

 Edisp/kcal,au: -31.448493077784  -0.050116358434 
 E6   /kcal   : -15.056381341 
 E8   /kcal   : -16.392111736 
 % E8         :  52.123679490 

-------------------------   ----------------
Dispersion correction           -0.050116358
-------------------------   ----------------


-------------------------   --------------------
FINAL SINGLE POINT ENERGY      -696.344377359563
-------------------------   --------------------



           ************************************************************
           *        Program running with 6 parallel MPI-processes     *
           *              working on a common directory               *
           ************************************************************
------------------------------------------------------------------------------
                         ORCA SCF GRADIENT CALCULATION
------------------------------------------------------------------------------

Nuc. rep. gradient        (SHARK) ... done (  0.0 sec)
HCore & Overlap gradient  (SHARK) ... done (  0.1 sec)
Split-RIJ-J gradient      (SHARK) ... done (  0.4 sec)
O(N)X-gradient            (SHARK) ... done (  3.8 sec)
XC gradient                       ... done (  2.2 sec)
Dispersion correction             ... done (  0.1 sec)

-------------------
DISPERSION GRADIENT
-------------------

   1   C   :   -0.000046952    0.000523975   -0.000110497
   2   C   :   -0.000114402    0.000574222    0.000060882
   3   C   :   -0.000140033    0.000441447   -0.000083269
   4   P   :   -0.000209669    0.000007563    0.000538668
   5   C   :   -0.000275725   -0.000360295   -0.000124828
   6   C   :   -0.000463019   -0.000358232   -0.000061720
   7   C   :   -0.000357588   -0.000336136   -0.000219332
   8   C   :    0.000438636   -0.000081978    0.000149320
   9   C   :    0.000462369   -0.000211840    0.000296420
  10   C   :    0.000490585   -0.000190942    0.000108770
  11   H   :    0.000001940    0.000224429   -0.000016845
  12   H   :    0.000032199    0.000248801   -0.000165433
  13   H   :   -0.000125335    0.000249412   -0.000080867
  14   H   :    0.000140824    0.000343933    0.000096460
  15   H   :   -0.000084139    0.000262394    0.000221363
  16   H   :   -0.000218405    0.000173451   -0.000084366
  17   H   :    0.000010579    0.000134102   -0.000300457
  18   H   :    0.000036539   -0.000158424   -0.000286245
  19   H   :   -0.000033286   -0.000289417   -0.000005812
  20   H   :   -0.000370425   -0.000027177   -0.000097327
  21   H   :   -0.000297859   -0.000124849    0.000143613
  22   H   :   -0.000174944   -0.000116204   -0.000080913
  23   H   :   -0.000130301   -0.000153571   -0.000223035
  24   H   :   -0.000125030   -0.000251771   -0.000073711
  25   H   :    0.000259782    0.000013252   -0.000201762
  26   H   :    0.000248567    0.000116079    0.000098203
  27   H   :    0.000120616   -0.000128116    0.000306545
  28   H   :    0.000182480   -0.000315057    0.000121926
  29   H   :    0.000279341    0.000001314    0.000080133
  30   H   :    0.000187654   -0.000108753    0.000060120
  31   H   :    0.000275001   -0.000101611   -0.000066005

Difference to translation invariance:
           :   -0.0000000000    0.0000000000    0.0000000000

Difference to rotation invariance:
           :    0.0000000000   -0.0000000000    0.0000000000

Norm of the Dispersion gradient    ...    0.0022311544
RMS gradient                       ...    0.0002313599
MAX gradient                       ...    0.0005742225

------------------
[...]
      dxz     :     0.023520
      dyz     :     0.067483
      dx2y2   :     0.067612
      dxy     :     0.030461

  4 C s       :     2.900675  s :     2.900675
      pz      :     1.078888  p :     3.202497
      px      :     1.041141
      py      :     1.082467
      dz2     :     0.016908  d :     0.073578
      dxz     :     0.013828
      dyz     :     0.011895
      dx2y2   :     0.016872
      dxy     :     0.014074

  5 C s       :     2.841486  s :     2.841486
      pz      :     1.051925  p :     3.115083
      px      :     1.021722
      py      :     1.041436
      dz2     :     0.020650  d :     0.090564
      dxz     :     0.014432
      dyz     :     0.015252
      dx2y2   :     0.022606
      dxy     :     0.017625

  6 C s       :     2.844419  s :     2.844419
      pz      :     1.047709  p :     3.139377
      px      :     1.053755
      py      :     1.037913
      dz2     :     0.020426  d :     0.072259
      dxz     :     0.007241
      dyz     :     0.013930
      dx2y2   :     0.020848
      dxy     :     0.009814

  7 C s       :     2.900721  s :     2.900721
      pz      :     1.065348  p :     3.202489
      px      :     1.084628
      py      :     1.052513
      dz2     :     0.021789  d :     0.073591
      dxz     :     0.009508
      dyz     :     0.011888
      dx2y2   :     0.017745
      dxy     :     0.012661

  8 C s       :     2.841440  s :     2.841440
      pz      :     1.051839  p :     3.115128
      px      :     1.025442
      py      :     1.037848
      dz2     :     0.023649  d :     0.090575
      dxz     :     0.012508
      dyz     :     0.012242
      dx2y2   :     0.022952
      dxy     :     0.019223

  9 C s       :     2.844410  s :     2.844410
      pz      :     1.060409  p :     3.139362
      px      :     1.019590
      py      :     1.059363
      dz2     :     0.017653  d :     0.072262
      dxz     :     0.011307
      dyz     :     0.010698
      dx2y2   :     0.016550
      dxy     :     0.016054

 10 H s       :     0.913775  s :     0.913775
      pz      :     0.017393  p :     0.063664
      px      :     0.013557
      py      :     0.032714

 11 H s       :     0.916558  s :     0.916558
      pz      :     0.032529  p :     0.063454
      px      :     0.018821
      py      :     0.012104

 12 H s       :     0.916361  s :     0.916361
      pz      :     0.013602  p :     0.063398
      px      :     0.037783
      py      :     0.012013

 13 H s       :     0.919690  s :     0.919690
      pz      :     0.013966  p :     0.064095
      px      :     0.037653
      py      :     0.012476

 14 H s       :     0.915407  s :     0.915407
      pz      :     0.033335  p :     0.064306
      px      :     0.018733
      py      :     0.012238

 15 H s       :     0.913076  s :     0.913076
      pz      :     0.014884  p :     0.068481
      px      :     0.039208
      py      :     0.014389

 16 H s       :     0.919934  s :     0.919934
      pz      :     0.035854  p :     0.068522
      px      :     0.018659
      py      :     0.014008

 17 H s       :     0.919896  s :     0.919896
      pz      :     0.038070  p :     0.068518
      px      :     0.016220
      py      :     0.014228

 18 H s       :     0.913060  s :     0.913060
      pz      :     0.015826  p :     0.068482
      px      :     0.017742
      py      :     0.034913

 19 H s       :     0.919689  s :     0.919689
      pz      :     0.015141  p :     0.064104
      px      :     0.017139
      py      :     0.031824

 20 H s       :     0.915410  s :     0.915410
      pz      :     0.036037  p :     0.064310
      px      :     0.015519
      py      :     0.012754

 21 H s       :     0.913777  s :     0.913777
      pz      :     0.012195  p :     0.063662
      px      :     0.038992
      py      :     0.012475

 22 H s       :     0.916549  s :     0.916549
      pz      :     0.036191  p :     0.063464
      px      :     0.014686
      py      :     0.012587

 23 H s       :     0.916365  s :     0.916365
      pz      :     0.014710  p :     0.063397
      px      :     0.015746
      py      :     0.032941

 24 H s       :     0.919944  s :     0.919944
      pz      :     0.039327  p :     0.068501
      px      :     0.016836
      py      :     0.012338

 25 H s       :     0.913036  s :     0.913036
      pz      :     0.014717  p :     0.068456
      px      :     0.020198
      py      :     0.033541

 26 H s       :     0.915386  s :     0.915386
      pz      :     0.038062  p :     0.064304
      px      :     0.013859
      py      :     0.012383

 27 H s       :     0.919670  s :     0.919670
      pz      :     0.014664  p :     0.064112
      px      :     0.016984
      py      :     0.032464

 28 H s       :     0.916360  s :     0.916360
      pz      :     0.014730  p :     0.063397
      px      :     0.017555
      py      :     0.031113

 29 H s       :     0.913777  s :     0.913777
      pz      :     0.019348  p :     0.063662
      px      :     0.016567
      py      :     0.027747

 30 H s       :     0.916552  s :     0.916552
      pz      :     0.036941  p :     0.063461
      px      :     0.014127
      py      :     0.012393



                      *****************************
                      * MAYER POPULATION ANALYSIS *
                      *****************************

  NA   - Mulliken gross atomic population
  ZA   - Total nuclear charge
  QA   - Mulliken gross atomic charge
  VA   - Mayer's total valence
  BVA  - Mayer's bonded valence
  FA   - Mayer's free valence

  ATOM       NA         ZA         QA         VA         BVA        FA
  0 C      5.9909     6.0000     0.0091     4.0235     4.0235    -0.0000
  1 C      5.9824     6.0000     0.0176     4.0784     4.0784    -0.0000
  2 C      6.1519     6.0000    -0.1519     3.9301     3.9301    -0.0000
  3 P     14.8315    15.0000     0.1685     3.0396     3.0396    -0.0000
  4 C      6.1518     6.0000    -0.1518     3.9299     3.9299    -0.0000
  5 C      5.9830     6.0000     0.0170     4.0787     4.0787    -0.0000
  6 C      5.9908     6.0000     0.0092     4.0235     4.0235    -0.0000
  7 C      6.1518     6.0000    -0.1518     3.9299     3.9299    -0.0000
  8 C      5.9830     6.0000     0.0170     4.0787     4.0787    -0.0000
  9 C      5.9908     6.0000     0.0092     4.0236     4.0236    -0.0000
 10 H      0.9899     1.0000     0.0101     0.9823     0.9823     0.0000
 11 H      0.9943     1.0000     0.0057     0.9882     0.9882    -0.0000
 12 H      0.9931     1.0000     0.0069     0.9884     0.9884    -0.0000
 13 H      0.9978     1.0000     0.0022     0.9810     0.9810     0.0000
 14 H      0.9917     1.0000     0.0083     0.9811     0.9811     0.0000
 15 H      0.9761     1.0000     0.0239     0.9868     0.9868    -0.0000
 16 H      0.9882     1.0000     0.0118     0.9851     0.9851     0.0000
 17 H      0.9882     1.0000     0.0118     0.9850     0.9850    -0.0000
 18 H      0.9759     1.0000     0.0241     0.9868     0.9868    -0.0000
 19 H      0.9976     1.0000     0.0024     0.9811     0.9811    -0.0000
 20 H      0.9917     1.0000     0.0083     0.9811     0.9811     0.0000
 21 H      0.9899     1.0000     0.0101     0.9823     0.9823     0.0000
 22 H      0.9942     1.0000     0.0058     0.9882     0.9882    -0.0000
 23 H      0.9931     1.0000     0.0069     0.9884     0.9884    -0.0000
 24 H      0.9881     1.0000     0.0119     0.9850     0.9850     0.0000
 25 H      0.9759     1.0000     0.0241     0.9866     0.9866     0.0000
 26 H      0.9917     1.0000     0.0083     0.9810     0.9810    -0.0000
 27 H      0.9976     1.0000     0.0024     0.9811     0.9811    -0.0000
 28 H      0.9931     1.0000     0.0069     0.9884     0.9884    -0.0000
 29 H      0.9899     1.0000     0.0101     0.9823     0.9823     0.0000
 30 H      0.9943     1.0000     0.0057     0.9882     0.9882    -0.0000

  Mayer bond orders larger than 0.100000
B(  0-C ,  1-C ) :   1.1066 B(  0-C , 10-H ) :   0.9662 B(  0-C , 11-H ) :   0.9699 
B(  0-C , 12-H ) :   0.9706 B(  1-C ,  2-C ) :   1.0622 B(  1-C , 13-H ) :   0.9436 
B(  1-C , 14-H ) :   0.9432 B(  2-C ,  3-P ) :   0.9670 B(  2-C , 15-H ) :   0.9417 
B(  2-C , 16-H ) :   0.9280 B(  3-P ,  4-C ) :   0.9668 B(  3-P ,  7-C ) :   0.9669 
B(  4-C ,  5-C ) :   1.0624 B(  4-C , 17-H ) :   0.9280 B(  4-C , 18-H ) :   0.9416 
B(  5-C ,  6-C ) :   1.1066 B(  5-C , 19-H ) :   0.9435 B(  5-C , 20-H ) :   0.9432 
B(  6-C , 21-H ) :   0.9662 B(  6-C , 22-H ) :   0.9699 B(  6-C , 23-H ) :   0.9706 
B(  7-C ,  8-C ) :   1.0623 B(  7-C , 24-H ) :   0.9280 B(  7-C , 25-H ) :   0.9417 
B(  8-C ,  9-C ) :   1.1067 B(  8-C , 26-H ) :   0.9431 B(  8-C , 27-H ) :   0.9436 
B(  9-C , 28-H ) :   0.9707 B(  9-C , 29-H ) :   0.9661 B(  9-C , 30-H ) :   0.9698 


-------
TIMINGS
-------

Total SCF time: 0 days 0 hours 0 min 5 sec 

Total time                  ....       5.219 sec
Sum of individual times     ....       5.172 sec  ( 99.1%)

SCF preparation             ....       0.088 sec  (  1.7%)
Fock matrix formation       ....       4.898 sec  ( 93.8%)
  Startup                   ....       0.011 sec  (  0.2% of F)
  Exchange formation        ....       3.416 sec  ( 69.7% of F)
  Split-RI-J                ....       0.427 sec  (  8.7% of F)
  XC integration            ....       1.004 sec  ( 20.5% of F)
    Basis function eval.    ....       0.301 sec  ( 30.0% of XC)
    Density eval.           ....       0.248 sec  ( 24.7% of XC)
    XC-Functional eval.     ....       0.036 sec  (  3.6% of XC)
    XC-Potential eval.      ....       0.218 sec  ( 21.7% of XC)
Diagonalization             ....       0.000 sec  (  0.0%)
Density matrix formation    ....       0.020 sec  (  0.4%)
Total Energy calculation    ....       0.009 sec  (  0.2%)
Population analysis         ....       0.054 sec  (  1.0%)
Orbital Transformation      ....       0.017 sec  (  0.3%)
Orbital Orthonormalization  ....       0.000 sec  (  0.0%)
DIIS solution               ....       0.023 sec  (  0.4%)
SOSCF solution              ....       0.063 sec  (  1.2%)
Finished LeanSCF after   5.3 sec

Maximum memory used throughout the entire LEANSCF-calculation: 25.7 MB


-------------------------------------------------------------------------------
                          DFT DISPERSION CORRECTION                            
                                                                               
                              DFTD3 V3.1  Rev 1                                
                          USING Becke-Johnson damping                          
-------------------------------------------------------------------------------
The B3LYP functional is recognized
Active option DFTDOPT                   ...         4   

molecular C6(AA) [au] = 7637.345977 


            DFT-D V3
 parameters
 s6 scaling factor         :     1.0000 
 a1 scaling factor         :     0.3981 
 s8 scaling factor         :     1.9889 
 a2 scaling factor         :     4.4211 
 ad hoc parameters k1-k3   :    16.0000     1.3333    -4.0000 

 Edisp/kcal,au: -31.041052642978  -0.049467060841 
 E6   /kcal   : -14.861438971 
 E8   /kcal   : -16.179613672 
 % E8         :  52.123276418 

-------------------------   ----------------
Dispersion correction           -0.049467061
-------------------------   ----------------


-------------------------   --------------------
FINAL SINGLE POINT ENERGY      -696.347140553779
-------------------------   --------------------

                                *** OPTIMIZATION RUN DONE ***



           ************************************************************
           *        Program running with 6 parallel MPI-processes     *
           *              working on a common directory               *
           ************************************************************

------------------------------------------------------------------------------
                              ORCA PROPERTY CALCULATIONS
------------------------------------------------------------------------------

GBWName                                 ... data/geom_opt/75226/75226.gbw
Number of atoms                         ...     31
Number of basis functions               ...    249
Max core memory                         ...   1024 MB

Electric properties:
Dipole moment                           ... YES
Quadrupole moment                       ...  NO
Static polarizability (Dipole/Dipole)   ...  NO
Static polarizability (Dipole/Quad.)    ...  NO
Static polarizability (Quad./Quad.)     ...  NO
Static polarizability (Velocity)        ...  NO

Atomic electric properties:
Dipole moment                           ...  NO
Quadrupole moment                       ...  NO
Static polarizability                   ...  NO

Choice of electric origin               ... Center of mass
Position of electric origin             ...    -0.132663     0.005101     0.302879

General magnetic properties:
Magnetizability                         ...  NO

EPR properties:
g-Tensor (aka g-matrix)                 ...  NO
Zero-Field splitting spin-orbit         ...  NO
Zero-field splitting spin-spin          ...  NO
Hyperfine couplings                     ...  NO (   0 nuclei)
Quadrupole couplings                    ...  NO (   0 nuclei)
Contact density                         ...  NO (   0 nuclei)

NMR properties:
Chemical shifts                         ...  NO (   0 nuclei)
Spin-rotation constants                 ...  NO (   0 nuclei)
Spin-spin couplings                     ...  NO (   0 nuclei,    0 pairs)

Choice of magnetic origin               ... GIAO
Position of magnetic origin             ...     0.000000     0.000000     0.000000

Properties with geometric perturbations:
SCF Hessian                             ...  NO
IR spectrum                             ...  NO
VCD spectrum                            ...  NO
X-ray spectroscopy properties:
SCF XES/XAS/RIXS spectra                ...  NO


-------------
DIPOLE MOMENT
-------------

Method             : SCF
Type of density    : Electron Density
Multiplicity       :   1
Irrep              :   0
Energy             :  -696.2976734929379745 Eh
Relativity type    : 
Basis              : AO
                                X                 Y                 Z
Electronic contribution:     -1.911472462       0.073212688       4.926514705
Nuclear contribution   :      2.056394741      -0.079122629      -5.297578892
                        -----------------------------------------
Total Dipole Moment    :      0.144922280      -0.005909942      -0.371064187
                        -----------------------------------------
Magnitude (a.u.)       :      0.398404349
Magnitude (Debye)      :      1.012663378



--------------------
Rotational spectrum 
--------------------
 
Rotational constants in cm-1:             0.025204             0.025163             0.013456 
Rotational constants in MHz :           755.608279           754.382138           403.392672 

Dipole components along the rotational axes: 
x,y,z [a.u.] :     0.000878     0.000132    -0.398403 
x,y,z [Debye]:     0.002231     0.000337    -1.012661 

 

Dipole moment calculation done in   0.0 sec 

Maximum memory used throughout the entire PROP-calculation: 12.2 MB

--------------------------------
SUGGESTED CITATIONS FOR THIS RUN
--------------------------------

Below you find a list of papers that are relevant to this ORCA run
We neither can nor want to force you to cite these papers, but we appreciate if you do
You receive ORCA, which is the product of decades of hard work by many enthusiastic individuals, for free
The only thing we kindly ask in return is that you cite our papers,
We deeply appreciate it, if you show your appreciation for ORCA by not just citing the generic ORCA reference.

Please note that relegating all ORCA citations to the supporting information does *not* help us.
SI sections are not indexed - citations you put there will not count into any citation statistics
But we need these citations in order to attract the funding resources that allow us to do what we are doing

Therefore, if you are a happy ORCA user, please consider citing a few of the papers listed below in the main body of your paper

In addition to the list printed below, the program has created the file data/geom_opt/75226/75226.bibtex that contains the list in bibtex format
You can import this file easily into all common literature databanks and citation aid programs


List of essential papers. We consider these as the minimum necessary citations

  1. Neese,F.
     Software update: the ORCA program system, version 5.0
     WIRES Comput. Molec. Sci., 2022 12(1)e1606
     doi.org/10.1002/wcms.1606

List of papers to cite with high priority. The work reported in these papers was absolutely
necessary for this run to complete.
Our perspective: the developers of density functionals and basis sets usually get cited in chemistry papers
Good! But without the algorithms to do something with them, the functionals or basis sets would not do anything.
Hence, in our opinion, the algorithm design and method developments papers are equally worthy of getting cited

  1. Neese,F.
     An improvement of the resolution of the identity approximation for the formation of the Coulomb matrix
     J. Comp. Chem., 2003 24(14)1740-1747
     doi.org/10.1002/jcc.10318
  2. Neese,F.
     The SHARK Integral Generation and Digestion System
     J. Comp. Chem., 2022  1-16
     doi.org/10.1002/jcc.26942
  3. Grimme,S.; Antony,J.; Ehrlich,S.; Krieg,H.
     A consistent and accurate ab initio parametrization of density functional dispersion correction (DFT-D) for the 94 elements H-Pu
     J. Chem. Phys., 2010 132 154104-XXXX
     doi.org/10.1063/1.3382344
  4. Grimme,S.; Ehrlich,S.; Goerigk,L.
     Effect of the damping function in dispersion corrected density functional theory
     J. Comput. Chem., 2011 32(7)1456-1465
     doi.org/10.1002/jcc.21759

List of suggested additional citations. These are papers that are important in the 'surrounding' of 
of this run, or papers that preceded the highly important papers. If you like your results we are grateful for a citation.

  1. Neese,F.
     The ORCA program system
     WIRES Comput. Molec. Sci., 2012 2(1)73-78
     doi.org/10.1002/wcms.81
  2. Neese,F.
     Software update: the ORCA program system, version 4.0
     WIRES Comput. Molec. Sci., 2018 8(1)1-6
     doi.org/10.1002/wcms.1327
  3. Neese,F.; Wennmohs,F.; Becker,U.; Riplinger,C.
     The ORCA quantum chemistry program package
     J. Chem. Phys., 2020 152 Art. No. L224108
     doi.org/10.1063/5.0004608

List of optional additional citations

  1. Neese,F.
     Approximate second-order SCF convergence for spin unrestricted wavefunctions
     Chem. Phys. Lett., 2000 325(1-3)93-98
     doi.org/10.1016/s0009-2614(00)00662-x

Timings for individual modules:

Sum of individual times          ...      106.380 sec (=   1.773 min)
Startup calculation              ...        5.786 sec (=   0.096 min)   5.4 %
SCF iterations                   ...       61.184 sec (=   1.020 min)  57.5 %
Property calculations            ...        0.143 sec (=   0.002 min)   0.1 %
SCF Gradient evaluation          ...       39.195 sec (=   0.653 min)  36.8 %
Geometry relaxation              ...        0.072 sec (=   0.001 min)   0.1 %
                             ****ORCA TERMINATED NORMALLY****
TOTAL RUN TIME: 0 days 0 hours 1 minutes 47 seconds 650 msec
