
                                 *****************
                                 * O   R   C   A *
                                 *****************

                                            #,                                       
                                            ###                                      
                                            ####                                     
                                            #####                                    
                                            ######                                   
                                           ########,                                 
                                     ,,################,,,,,                         
                               ,,#################################,,                 
                          ,,##########################################,,             
                       ,#########################################, ''#####,          
                    ,#############################################,,   '####,        
                  ,##################################################,,,,####,       
                ,###########''''           ''''###############################       
              ,#####''   ,,,,##########,,,,          '''####'''          '####       
            ,##' ,,,,###########################,,,                        '##       
           ' ,,###''''                  '''############,,,                           
         ,,##''                                '''############,,,,        ,,,,,,###''
      ,#''                                            '''#######################'''  
     '                                                          ''''####''''         
             ,#######,   #######,   ,#######,      ##                                
            ,#'     '#,  ##    ##  ,#'     '#,    #''#        ,####,   ,####,        
            ##       ##  ##   ,#'  ##            #'  '#       #'       #'  '#        
            ##       ##  #######   ##           ,######,      #####,   #    #        
            '#,     ,#'  ##    ##  '#,     ,#' ,#      #,     #,   #   #,  ,#        
             '#######'   ##     ##  '#######'  #'      '#     '####' # '####'        



                #########################################################
                #                        -***-                          #
                #          Department of theory and spectroscopy        #
                #                                                       #
                #                      Frank Neese                      #
                #                                                       #
                #     Directorship, Architecture, Infrastructure        #
                #                    SHARK, DRIVERS                     #
                #        Core code/Algorithms in most modules           #
                #                                                       #
                #        Max Planck Institute fuer Kohlenforschung      #
                #                Kaiser Wilhelm Platz 1                 #
                #                 D-45470 Muelheim/Ruhr                 #
                #                      Germany                          #
                #                                                       #
                #                  All rights reserved                  #
                #                        -***-                          #
                #########################################################


                         Program Version 6.0.0  -   RELEASE   -


 With contributions from (in alphabetic order):
   Daniel Aravena         : Magnetic Suceptibility
   Michael Atanasov       : Ab Initio Ligand Field Theory (pilot matlab implementation)
   Alexander A. Auer      : GIAO ZORA, VPT2 properties, NMR spectrum
   Ute Becker             : All parallelization in ORCA, NUMFREQ, NUMCALC
   Giovanni Bistoni       : ED, misc. LED, open-shell LED, HFLD
   Martin Brehm           : Molecular dynamics
   Dmytro Bykov           : pre 5.0 version of the SCF Hessian
   Marcos Casanova-Páez   : Triplet and SCS-CIS(D). UHF-(DLPNO)-IP/EA/STEOM-CCSD. UHF-CVS-IP/STEOM-CCSD
   Vijay G. Chilkuri      : MRCI spin determinant printing, contributions to CSF-ICE
   Pauline Colinet        : FMM embedding
   Dipayan Datta          : RHF DLPNO-CCSD density
   Achintya Kumar Dutta   : EOM-CC, STEOM-CC
   Nicolas Foglia         : Exact transition moments, OPA infrastructure, MCD improvements
   Dmitry Ganyushin       : Spin-Orbit,Spin-Spin,Magnetic field MRCI
   Miquel Garcia          : C-PCM and meta-GGA Hessian, CCSD/C-PCM, Gaussian charge scheme
   Tiago L. C. Gouveia    : GS-ROHF, GS-ROCIS
   Yang Guo               : DLPNO-NEVPT2, F12-NEVPT2, CIM, IAO-localization
   Andreas Hansen         : Spin unrestricted coupled pair/coupled cluster methods
   Ingolf Harden          : AUTO-CI MPn and infrastructure 
   Benjamin Helmich-Paris : MC-RPA, TRAH-(SCF,CASSCF), AVAS, COSX integrals, SCF dyn. polar.
   Lee Huntington         : MR-EOM, pCC
   Robert Izsak           : Overlap fitted RIJCOSX, COSX-SCS-MP3, EOM
   Riya Kayal             : Wick's Theorem for AUTO-CI, AUTO-CI UHF-CCSDT
   Emily Kempfer          : AUTO-CI, RHF CISDT and CCSDT
   Christian Kollmar      : KDIIS, OOCD, Brueckner-CCSD(T), CCSD density, CASPT2, CASPT2-K, improved NEVPT2
   Axel Koslowski         : Symmetry handling
   Simone Kossmann        : Meta GGA functionals, TD-DFT gradient, OOMP2, (MP2 Hessian; deprecated post 5.0)
   Lucas Lang             : DCDCAS
   Marvin Lechner         : AUTO-CI (C++ implementation), FIC-MRCC
   Spencer Leger          : CASSCF response
   Dagmar Lenk            : GEPOL surface, SMD, ORCA-2-JSON
   Dimitrios Liakos       : Extrapolation schemes; Compound Job, initial MDCI parallelization
   Dimitrios Manganas     : Further ROCIS development; embedding schemes. LFT, Crystal Embedding
   Dimitrios Pantazis     : SARC Basis sets
   Anastasios Papadopoulos: AUTO-CI, single reference methods and gradients
   Taras Petrenko         : pre 6.0 DFT Hessian and TD-DFT gradient, (ASA, deprecated), ECA, 1-Electron XAS/XES, NRVS
   Peter Pinski           : DLPNO-MP2, DLPNO-MP2 Gradient
   Christoph Reimann      : Effective Core Potentials
   Marius Retegan         : Local ZFS, SOC
   Christoph Riplinger    : Optimizer, TS searches, QM/MM, DLPNO-CCSD(T), (RO)-DLPNO pert. Triples
   Michael Roemelt        : Original ROCIS implementation
   Masaaki Saitow         : Open-shell DLPNO-CCSD energy and density
   Barbara Sandhoefer     : DKH picture change effects
   Kantharuban Sivalingam : CASSCF convergence/infrastructure, NEVPT2 and variants, FIC-MRCI
   Bernardo de Souza      : ESD, SOC TD-DFT
   Georgi Stoychev        : AutoAux, RI-MP2 NMR, DLPNO-MP2 response, X2C
   Van Anh Tran           : RI-MP2 g-tensors
   Willem Van den Heuvel  : Paramagnetic NMR
   Zikuan Wang            : NOTCH, Electric field optimization 
   Frank Wennmohs         : Technical directorship and infrastructure
   Hang Xu                : AUTO-CI-Response properties 


 We gratefully acknowledge several colleagues who have allowed us to
 interface, adapt or use parts of their codes:
   Stefan Grimme, W. Hujo, H. Kruse, P. Pracht,  : VdW corrections, initial TS optimization,
                  C. Bannwarth, S. Ehlert,         DFT functionals, gCP, sTDA/sTD-DF
                  L. Wittmann, M. Mueller
   Ed Valeev, F. Pavosevic, A. Kumar             : LibInt (2-el integral package), F12 methods
   Garnet Chan, S. Sharma, J. Yang, R. Olivares  : DMRG
   Ulf Ekstrom                                   : XCFun DFT Library
   Mihaly Kallay                                 : mrcc  (arbitrary order and MRCC methods)
   Frank Weinhold                                : gennbo (NPA and NBO analysis)
   Simon Mueller                                 : openCOSMO-RS
   Christopher J. Cramer and Donald G. Truhlar   : smd solvation model
   Lars Goerigk                                  : TD-DFT with DH, B97 family of functionals
   V. Asgeirsson, H. Jonsson                     : NEB implementation
   FAccTs GmbH                                   : IRC, NEB, NEB-TS, DLPNO-Multilevel, CI-OPT
                                                   MM, QMMM, 2- and 3-layer-ONIOM, Crystal-QMMM,
                                                   LR-CPCM, SF, NACMEs, symmetry and pop. for TD-DFT,
                                                   nearIR, NL-DFT gradient (VV10), updates on ESD,
                                                   ML-optimized integration grids, MBIS, APM,
                                                   GOAT, DOCKER, SOLVATOR, interface openCOSMO-RS
   S Lehtola, MJT Oliveira, MAL Marques          : LibXC Library
   Liviu Ungur et al                             : ANISO software


 Your calculation uses the libint2 library for the computation of 2-el integrals
 For citations please refer to: http://libint.valeyev.net

 Your ORCA version has been built with support for libXC version: 6.2.2
 For citations please refer to: https://libxc.gitlab.io

 This ORCA versions uses:
   CBLAS   interface :  Fast vector & matrix operations
   LAPACKE interface :  Fast linear algebra routines
   Shared memory     :  Shared parallel matrices


Your calculation utilizes the atom-pairwise dispersion correction
with the zero-damping scheme (D30)


XCFun DFT library Copyright 2009-2010 Ulf Ekstrom and contributors.
See http://admol.org/xcfun for more information.
This is free software; see the source code for copying conditions.
There is ABSOLUTELY NO WARRANTY; not even for MERCHANTABILITY or FITNESS FOR A PARTICULAR PURPOSE.
For details see the documentation.
Scientific users of this library should cite U. Ekstrom, L. Visscher, R. Bast, A. J. Thorvaldsen and K. Ruud;
J.Chem.Theor.Comp. 2010, DOI: 10.1021/ct100117s
XCFun Version 0.99 

Warning: RI is on but no J-basis has been assigned. Assigning Def2/J (nothing to worry about!)
================================================================================

----- Orbital basis set information -----
Your calculation utilizes the basis: def2-TZVP
   F. Weigend and R. Ahlrichs, Phys. Chem. Chem. Phys. 7, 3297 (2005).

----- AuxJ basis set information -----
Your calculation utilizes the auxiliary basis: def2/J
   F. Weigend, Phys. Chem. Chem. Phys. 8, 1057 (2006).

================================================================================
                                        WARNINGS
                       Please study these warnings very carefully!
================================================================================

WARNING: Functional chosen is sensitive to the integration grid.
         DEFGRID3 seems to be a minimum grid for robust results!

================================================================================
                                       INPUT FILE
================================================================================
NAME = data/single_point_P_M06-2x/292611/292611.inp
|  1> ! RIJCOSX M062X def2-TZVP D3ZERO NormalSCF
|  2> %pal
|  3> nprocs 6
|  4> end
|  5> 
|  6> * xyz 0 1
|  7>   C           4.16588684023777     -0.74426763964965     -0.32061390219128
|  8>   C           2.80455837937735     -0.32262905375391     -0.88286597712301
|  9>   C           1.64702345913888     -1.18541174956664     -0.36440825966875
| 10>   P          -0.00413036770089     -0.70486736939536     -1.11884144233298
| 11>   C          -1.13974677547767     -1.72566843748608     -0.02558677904558
| 12>   C          -2.61807950992465     -1.35600867456511     -0.20280228495002
| 13>   C          -3.55700407961639     -2.21263416644798      0.65261282345587
| 14>   C          -0.23105153663783      0.97002310006832     -0.33902441203685
| 15>   C          -0.50393342405662      2.06483564179726     -1.18507000191157
| 16>   C          -0.68169529085966      3.35570952712380     -0.65787167109559
| 17>   C          -0.58947320875051      3.56707135364069      0.72689507713825
| 18>   C          -0.31866013598666      2.48352707260003      1.58192253232440
| 19>   C          -0.14091275127940      1.19686117523159      1.05175226348017
| 20>   H           4.98336727300596     -0.10206985318231     -0.70769873921220
| 21>   H           4.40759844171521     -1.79410231750432     -0.59005039092704
| 22>   H           4.18255363461422     -0.67551024680715      0.78757547514811
| 23>   H           2.82342044427830     -0.36547926960754     -1.99427801407978
| 24>   H           2.60601839903618      0.74100032269785     -0.62599660756954
| 25>   H           1.59378093638106     -1.14036335265927      0.74683620151055
| 26>   H           1.81222294596711     -2.25380292719051     -0.62880880048867
| 27>   H          -0.83969396136634     -1.63070664682272      1.04245071429685
| 28>   H          -0.97033638400348     -2.78930121765763     -0.30550661428644
| 29>   H          -2.89241871547284     -1.44802057890955     -1.27684004978125
| 30>   H          -2.75495140422642     -0.28234554440418      0.05234245370746
| 31>   H          -3.32420741708512     -2.10732168155834      1.73327281760552
| 32>   H          -3.46709508441218     -3.28997224838211      0.39880404731261
| 33>   H          -4.61788740911049     -1.92187389866290      0.50937604827838
| 34>   H          -0.57686016598437      1.89507700511446     -2.27133382558332
| 35>   H          -0.89377349937457      4.19965448983786     -1.33250759798411
| 36>   H          -0.72870294302449      4.57678021745768      1.14299503663137
| 37>   H          -0.24560714490474      2.64400824290209      2.66898585574441
| 38>   H           0.06978745550328      0.35780872574162      1.73428602363403
| 39> **                         ****END OF INPUT****
================================================================================

                       ****************************
                       * Single Point Calculation *
                       ****************************

---------------------------------
CARTESIAN COORDINATES (ANGSTROEM)
---------------------------------
  C      4.165887   -0.744268   -0.320614
  C      2.804558   -0.322629   -0.882866
  C      1.647023   -1.185412   -0.364408
  P     -0.004130   -0.704867   -1.118841
  C     -1.139747   -1.725668   -0.025587
  C     -2.618080   -1.356009   -0.202802
  C     -3.557004   -2.212634    0.652613
  C     -0.231052    0.970023   -0.339024
  C     -0.503933    2.064836   -1.185070
  C     -0.681695    3.355710   -0.657872
  C     -0.589473    3.567071    0.726895
  C     -0.318660    2.483527    1.581923
  C     -0.140913    1.196861    1.051752
  H      4.983367   -0.102070   -0.707699
  H      4.407598   -1.794102   -0.590050
  H      4.182554   -0.675510    0.787575
  H      2.823420   -0.365479   -1.994278
  H      2.606018    0.741000   -0.625997
  H      1.593781   -1.140363    0.746836
  H      1.812223   -2.253803   -0.628809
  H     -0.839694   -1.630707    1.042451
  H     -0.970336   -2.789301   -0.305507
  H     -2.892419   -1.448021   -1.276840
  H     -2.754951   -0.282346    0.052342
  H     -3.324207   -2.107322    1.733273
  H     -3.467095   -3.289972    0.398804
  H     -4.617887   -1.921874    0.509376
  H     -0.576860    1.895077   -2.271334
  H     -0.893773    4.199654   -1.332508
  H     -0.728703    4.576780    1.142995
  H     -0.245607    2.644008    2.668986
  H      0.069787    0.357809    1.734286

----------------------------
CARTESIAN COORDINATES (A.U.)
----------------------------
  NO LB      ZA    FRAG     MASS         X           Y           Z
   0 C     6.0000    0    12.011    7.872385   -1.406462   -0.605872
   1 C     6.0000    0    12.011    5.299847   -0.609681   -1.668375
   2 C     6.0000    0    12.011    3.112423   -2.240104   -0.688632
   3 P    15.0000    0    30.974   -0.007805   -1.332006   -2.114304
   4 C     6.0000    0    12.011   -2.153809   -3.261041   -0.048352
   5 C     6.0000    0    12.011   -4.947453   -2.562485   -0.383241
   6 C     6.0000    0    12.011   -6.721764   -4.181273    1.233260
   7 C     6.0000    0    12.011   -0.436624    1.833078   -0.640663
   8 C     6.0000    0    12.011   -0.952296    3.901974   -2.239458
   9 C     6.0000    0    12.011   -1.288217    6.341372   -1.243197
  10 C     6.0000    0    12.011   -1.113943    6.740788    1.373633
  11 C     6.0000    0    12.011   -0.602180    4.693186    2.989400
  12 C     6.0000    0    12.011   -0.266287    2.261740    1.987524
  13 H     1.0000    0     1.008    9.417199   -0.192884   -1.337357
  14 H     1.0000    0     1.008    8.329154   -3.390362   -1.115034
  15 H     1.0000    0     1.008    7.903881   -1.276529    1.488302
  16 H     1.0000    0     1.008    5.335491   -0.690656   -3.768639
  17 H     1.0000    0     1.008    4.924661    1.400288   -1.182962
  18 H     1.0000    0     1.008    3.011809   -2.154974    1.411316
  19 H     1.0000    0     1.008    3.424605   -4.259070   -1.188276
  20 H     1.0000    0     1.008   -1.586792   -3.081589    1.969946
  21 H     1.0000    0     1.008   -1.833670   -5.271015   -0.577324
  22 H     1.0000    0     1.008   -5.465879   -2.736362   -2.412878
  23 H     1.0000    0     1.008   -5.206104   -0.533556    0.098913
  24 H     1.0000    0     1.008   -6.281842   -3.982261    3.275411
  25 H     1.0000    0     1.008   -6.551860   -6.217147    0.753630
  26 H     1.0000    0     1.008   -8.726543   -3.631815    0.962581
  27 H     1.0000    0     1.008   -1.090108    3.581177   -4.292199
  28 H     1.0000    0     1.008   -1.688987    7.936197   -2.518074
  29 H     1.0000    0     1.008   -1.377049    8.648861    2.159948
  30 H     1.0000    0     1.008   -0.464130    4.996451    5.043652
  31 H     1.0000    0     1.008    0.131879    0.676160    3.277326

--------------------------------
INTERNAL COORDINATES (ANGSTROEM)
--------------------------------
 C      0   0   0     0.000000000000     0.00000000     0.00000000
 C      1   0   0     1.532031876702     0.00000000     0.00000000
 C      2   1   0     1.533975057344   113.05939697     0.00000000
 P      3   2   1     1.877871478112   112.56805198   182.48182046
 C      4   3   2     1.877994996007    99.13264673   190.00046150
 C      5   4   3     1.534119079339   112.61178805   168.88707267
 C      6   5   4     1.532031849735   113.03833240   178.21991927
 C      4   3   2     1.861415026895    99.73769674   291.76104978
 C      8   4   3     1.410273791203   118.08509231   127.56970895
 C      9   8   4     1.405664522254   120.82287479   180.18210810
 C     10   9   8     1.403836771548   119.99439575   359.94043487
 C     11  10   9     1.406584472571   119.75441443     0.00000000
 C     12  11  10     1.402919733337   120.07791687     0.03000604
 H      1   2   3     1.109291181771   111.55752114   180.25155561
 H      1   2   3     1.110483395003   111.37992861    60.00956476
 H      1   2   3     1.110445431866   111.25674664   300.33997108
 H      2   1   3     1.112397696143   109.93805998   237.68502984
 H      2   1   3     1.112073490045   109.69999947   121.85617924
 H      3   2   1     1.113430903467   110.52689280    58.51807078
 H      3   2   1     1.112950234673   110.34233896   301.05695006
 H      5   4   3     1.113442194336   110.43149640    44.85328817
 H      5   4   3     1.112820599179   106.32260210   289.86624003
 H      6   5   4     1.112333273136   109.22462725    55.42925597
 H      6   5   4     1.112018556581   108.95054530   300.38937654
 H      7   6   5     1.110455324862   111.21467266    59.67119005
 H      7   6   5     1.110477314064   111.42118549   299.99825855
 H      7   6   5     1.109293354296   111.55911224   179.72909093
 H      9   8   4     1.101864510289   118.98797310     0.19789556
 H     10   9   8     1.101069434898   119.89711558   179.97672299
 H     11  10   9     1.100925104113   120.17204928   180.03157093
 H     12  11  10     1.101270908838   120.03626581   180.01775740
 H     13  12  11     1.101932812781   119.24156919   180.05307459

---------------------------
INTERNAL COORDINATES (A.U.)
---------------------------
 C      0   0   0     0.000000000000     0.00000000     0.00000000
 C      1   0   0     2.895120675403     0.00000000     0.00000000
 C      2   1   0     2.898792754646   113.05939697     0.00000000
 P      3   2   1     3.548662808334   112.56805198   182.48182046
 C      4   3   2     3.548896223327    99.13264673   190.00046150
 C      5   4   3     2.899064916775   112.61178805   168.88707267
 C      6   5   4     2.895120624445   113.03833240   178.21991927
 C      4   3   2     3.517564622398    99.73769674   291.76104978
 C      8   4   3     2.665031239221   118.08509231   127.56970895
 C      9   8   4     2.656320983229   120.82287479   180.18210810
 C     10   9   8     2.652867034955   119.99439575   359.94043487
 C     11  10   9     2.658059437385   119.75441443     0.00000000
 C     12  11  10     2.651134083882   120.07791687     0.03000604
 H      1   2   3     2.096256536320   111.55752114   180.25155561
 H      1   2   3     2.098509492823   111.37992861    60.00956476
 H      1   2   3     2.098437752892   111.25674664   300.33997108
 H      2   1   3     2.102126997715   109.93805998   237.68502984
 H      2   1   3     2.101514336978   109.69999947   121.85617924
 H      3   2   1     2.104079476597   110.52689280    58.51807078
 H      3   2   1     2.103171144215   110.34233896   301.05695006
 H      5   4   3     2.104100813247   110.43149640    44.85328817
 H      5   4   3     2.102926168634   106.32260210   289.86624003
 H      6   5   4     2.102005255875   109.22462725    55.42925597
 H      6   5   4     2.101410527777   108.95054530   300.38937654
 H      7   6   5     2.098456447944   111.21467266    59.67119005
 H      7   6   5     2.098498001514   111.42118549   299.99825855
 H      7   6   5     2.096260641797   111.55911224   179.72909093
 H      9   8   4     2.082222161134   118.98797310     0.19789556
 H     10   9   8     2.080719686388   119.89711558   179.97672299
 H     11  10   9     2.080446940733   120.17204928   180.03157093
 H     12  11  10     2.081100416958   120.03626581   180.01775740
 H     13  12  11     2.082351234137   119.24156919   180.05307459

---------------------
BASIS SET INFORMATION
---------------------
There are 3 groups of distinct atoms

 Group   1 Type C   : 11s6p2d1f contracted to 5s3p2d1f pattern {62111/411/11/1}
 Group   2 Type P   : 14s9p3d1f contracted to 5s5p2d1f pattern {73211/51111/21/1}
 Group   3 Type H   : 5s1p contracted to 3s1p pattern {311/1}

Atom   0C    basis set group =>   1
Atom   1C    basis set group =>   1
Atom   2C    basis set group =>   1
Atom   3P    basis set group =>   2
Atom   4C    basis set group =>   1
Atom   5C    basis set group =>   1
Atom   6C    basis set group =>   1
Atom   7C    basis set group =>   1
Atom   8C    basis set group =>   1
Atom   9C    basis set group =>   1
Atom  10C    basis set group =>   1
Atom  11C    basis set group =>   1
Atom  12C    basis set group =>   1
Atom  13H    basis set group =>   3
Atom  14H    basis set group =>   3
Atom  15H    basis set group =>   3
Atom  16H    basis set group =>   3
Atom  17H    basis set group =>   3
Atom  18H    basis set group =>   3
Atom  19H    basis set group =>   3
Atom  20H    basis set group =>   3
Atom  21H    basis set group =>   3
Atom  22H    basis set group =>   3
Atom  23H    basis set group =>   3
Atom  24H    basis set group =>   3
Atom  25H    basis set group =>   3
Atom  26H    basis set group =>   3
Atom  27H    basis set group =>   3
Atom  28H    basis set group =>   3
Atom  29H    basis set group =>   3
Atom  30H    basis set group =>   3
Atom  31H    basis set group =>   3
---------------------------------
AUXILIARY/J BASIS SET INFORMATION
---------------------------------
There are 3 groups of distinct atoms

 Group   1 Type C   : 12s5p4d2f1g contracted to 6s4p3d1f1g pattern {711111/2111/211/2/1}
 Group   2 Type P   : 14s5p5d2f1g contracted to 8s4p3d1f1g pattern {71111111/2111/311/2/1}
 Group   3 Type H   : 5s2p1d contracted to 3s1p1d pattern {311/2/1}

Atom   0C    basis set group =>   1
Atom   1C    basis set group =>   1
Atom   2C    basis set group =>   1
Atom   3P    basis set group =>   2
Atom   4C    basis set group =>   1
Atom   5C    basis set group =>   1
Atom   6C    basis set group =>   1
Atom   7C    basis set group =>   1
Atom   8C    basis set group =>   1
Atom   9C    basis set group =>   1
Atom  10C    basis set group =>   1
Atom  11C    basis set group =>   1
Atom  12C    basis set group =>   1
Atom  13H    basis set group =>   3
Atom  14H    basis set group =>   3
Atom  15H    basis set group =>   3
Atom  16H    basis set group =>   3
Atom  17H    basis set group =>   3
Atom  18H    basis set group =>   3
Atom  19H    basis set group =>   3
Atom  20H    basis set group =>   3
Atom  21H    basis set group =>   3
Atom  22H    basis set group =>   3
Atom  23H    basis set group =>   3
Atom  24H    basis set group =>   3
Atom  25H    basis set group =>   3
Atom  26H    basis set group =>   3
Atom  27H    basis set group =>   3
Atom  28H    basis set group =>   3
Atom  29H    basis set group =>   3
Atom  30H    basis set group =>   3
Atom  31H    basis set group =>   3


           ************************************************************
           *        Program running with 6 parallel MPI-processes     *
           *              working on a common directory               *
           ************************************************************
------------------------------------------------------------------------------
                             ORCA STARTUP CALCULATIONS
                           -- RI-GTO INTEGRALS CHOSEN --
------------------------------------------------------------------------------
------------------------------------------------------------------------------
                   ___                                                        
                  /   \      - P O W E R E D   B Y -                         
                 /     \                                                     
                 |  |  |   _    _      __       _____    __    __             
                 |  |  |  | |  | |    /  \     |  _  \  |  |  /  |          
                  \  \/   | |  | |   /    \    | | | |  |  | /  /          
                 / \  \   | |__| |  /  /\  \   | |_| |  |  |/  /          
                |  |  |   |  __  | /  /__\  \  |    /   |      \           
                |  |  |   | |  | | |   __   |  |    \   |  |\   \          
                \     /   | |  | | |  |  |  |  | |\  \  |  | \   \       
                 \___/    |_|  |_| |__|  |__|  |_| \__\ |__|  \__/        
                                                                              
                      - O R C A' S   B I G   F R I E N D -                    
                                      &                                       
                       - I N T E G R A L  F E E D E R -                       
                                                                              
 v1 FN, 2020, v2 2021, v3 2022-2024                                           
------------------------------------------------------------------------------


----------------------
SHARK INTEGRAL PACKAGE
----------------------

Number of atoms                             ...     32
Number of basis functions                   ...    523
Number of shells                            ...    221
Maximum angular momentum                    ...      3
Integral batch strategy                     ... SHARK/LIBINT Hybrid
RI-J (if used) integral strategy            ... SPLIT-RIJ (Revised 2003 algorithm where possible)
Printlevel                                  ...      1
Contraction scheme used                     ... SEGMENTED contraction
Prescreening option                         ... SCHWARTZ
   Thresh                                   ... 1.000e-10
   Tcut                                     ... 1.000e-11
   Tpresel                                  ... 1.000e-11 
Coulomb Range Separation                    ... NOT USED
Exchange Range Separation                   ... NOT USED
Multipole approximations                    ... NOT USED
Finite Nucleus Model                        ... NOT USED
CABS basis                                  ... NOT available
Auxiliary Coulomb fitting basis             ... AVAILABLE
   # of basis functions in Aux-J            ...    848
   # of shells in Aux-J                     ...    292
   Maximum angular momentum in Aux-J        ...      4
Auxiliary J/K fitting basis                 ... NOT available
Auxiliary Correlation fitting basis         ... NOT available
Auxiliary 'external' fitting basis          ... NOT available

Checking pre-screening integrals            ... done (  0.0 sec) Dimension = 221
Check shell pair data                       ... done (  0.0 sec)
Shell pair information
Shell pair cut-off parameter TPreSel        ...   1.0e-11
Total number of shell pairs                 ...     24531
Shell pairs after pre-screening             ...     19152
Total number of primitive shell pairs       ...     73128
Primitive shell pairs kept                  ...     39718
          la=0 lb=0:   5741 shell pairs
          la=1 lb=0:   5748 shell pairs
          la=1 lb=1:   1484 shell pairs
          la=2 lb=0:   2476 shell pairs
          la=2 lb=1:   1277 shell pairs
          la=2 lb=2:    301 shell pairs
          la=3 lb=0:   1187 shell pairs
          la=3 lb=1:    603 shell pairs
          la=3 lb=2:    266 shell pairs
          la=3 lb=3:     69 shell pairs

Calculating one electron integrals          ... done (  0.0 sec)
Calculating RI/J V-Matrix + Cholesky decomp.... done (  0.0 sec)
Calculating Nuclear repulsion               ... done (  0.0 sec) ENN=    879.692729719707 Eh

Diagonalization of the overlap matrix:
Smallest eigenvalue                        ... 8.437e-06
Time for diagonalization                   ...    0.049 sec
Threshold for overlap eigenvalues          ... 1.000e-07
Number of eigenvalues below threshold      ... 0
Time for construction of square roots      ...    0.029 sec
Total time needed                          ...    0.081 sec

-------------------
DFT GRID GENERATION
-------------------

General Integration Accuracy     IntAcc      ... 4.388
Radial Grid Type                 RadialGrid  ... OptM3 with GC (2021)
Angular Grid (max. ang.)         AngularGrid ... 4 (Lebedev-302)
Angular grid pruning method      GridPruning ... 4 (adaptive)
Weight generation scheme         WeightScheme... mBecke (2022)
Basis function cutoff            BFCut       ... 1.0000e-10
Integration weight cutoff        WCut        ... 1.0000e-14
Partially contracted basis set               ... off
Rotationally invariant grid construction     ... off
Angular grids for H and He will be reduced by one unit

Total number of grid points                  ...   139601
Total number of batches                      ...     2196
Average number of points per batch           ...       63
Average number of grid points per atom       ...     4363

--------------------
COSX GRID GENERATION
--------------------

GRIDX 1
-------
General Integration Accuracy     IntAcc      ... 3.816
Radial Grid Type                 RadialGrid  ... OptM3 with GC (2021)
Angular Grid (max. ang.)         AngularGrid ... 1 (Lebedev-50)
Angular grid pruning method      GridPruning ... 4 (adaptive)
Weight generation scheme         WeightScheme... mBecke (2022)
Basis function cutoff            BFCut       ... 1.0000e-10
Integration weight cutoff        WCut        ... 1.0000e-14
Partially contracted basis set               ... on
Rotationally invariant grid construction     ... off
Angular grids for H and He will be reduced by one unit

Total number of grid points                  ...    18814
Total number of batches                      ...      165
Average number of points per batch           ...      114
Average number of grid points per atom       ...      588
UseSFitting                                  ... on

GRIDX 2
-------
General Integration Accuracy     IntAcc      ... 4.020
Radial Grid Type                 RadialGrid  ... OptM3 with GC (2021)
Angular Grid (max. ang.)         AngularGrid ... 2 (Lebedev-110)
Angular grid pruning method      GridPruning ... 4 (adaptive)
Weight generation scheme         WeightScheme... mBecke (2022)
Basis function cutoff            BFCut       ... 1.0000e-10
Integration weight cutoff        WCut        ... 1.0000e-14
Partially contracted basis set               ... on
Rotationally invariant grid construction     ... off
Angular grids for H and He will be reduced by one unit

Total number of grid points                  ...    37224
Total number of batches                      ...      310
Average number of points per batch           ...      120
Average number of grid points per atom       ...     1163
UseSFitting                                  ... on

GRIDX 3
-------
General Integration Accuracy     IntAcc      ... 4.338
Radial Grid Type                 RadialGrid  ... OptM3 with GC (2021)
Angular Grid (max. ang.)         AngularGrid ... 3 (Lebedev-194)
Angular grid pruning method      GridPruning ... 4 (adaptive)
Weight generation scheme         WeightScheme... mBecke (2022)
Basis function cutoff            BFCut       ... 1.0000e-10
Integration weight cutoff        WCut        ... 1.0000e-14
Partially contracted basis set               ... on
Rotationally invariant grid construction     ... off
Angular grids for H and He will be reduced by one unit

Total number of grid points                  ...    81589
Total number of batches                      ...      653
Average number of points per batch           ...      124
Average number of grid points per atom       ...     2550
UseSFitting                                  ... on
Initializing property integral containers    ... done (  0.0 sec)

SHARK setup successfully completed in   2.4 seconds

Maximum memory used throughout the entire STARTUP-calculation: 51.1 MB


           ************************************************************
           *        Program running with 6 parallel MPI-processes     *
           *              working on a common directory               *
           ************************************************************
-------------------------------------------------------------------------------
                                 ORCA GUESS
                   Start orbitals & Density for SCF / CASSCF
-------------------------------------------------------------------------------

------------
SCF SETTINGS
------------
Hamiltonian:
 Density Functional     Method          .... DFT(GTOs)
 Exchange Functional    Exchange        .... M062X
 Correlation Functional Correlation     .... M062X
 Gradients option       PostSCFGGA      .... off
 Hybrid DFT is turned on
   Fraction HF Exchange ScalHFX         ....  0.540000
   Scaling of DF-GGA-X  ScalDFX         ....  0.460000
   Scaling of DF-GGA-C  ScalDFC         ....  1.000000
   Scaling of DF-LDA-C  ScalLDAC        ....  1.000000
   Perturbative correction              ....  0.000000
 RI-approximation to the Coulomb term is turned on
   Number of AuxJ basis functions       .... 848
   RIJ-COSX (HFX calculated with COS-X)).... on


General Settings:
 Integral files         IntName         .... data/single_point_P_M06-2x/292611/292611
 Hartree-Fock type      HFTyp           .... RHF
 Total Charge           Charge          ....    0
 Multiplicity           Mult            ....    1
 Number of Electrons    NEL             ....  106
 Basis Dimension        Dim             ....  523
 Nuclear Repulsion      ENuc            ....    879.6927297197 Eh

Convergence Acceleration:
 AO-DIIS                CNVDIIS         .... on
   Start iteration      DIISMaxIt       ....    12
   Startup error        DIISStart       ....  0.200000
   # of expansion vecs  DIISMaxEq       ....     5
   Bias factor          DIISBfac        ....   1.050
   Max. coefficient     DIISMaxC        ....  10.000
 MO-DIIS                CNVKDIIS        .... off
 Trust-Rad. Augm. Hess. CNVTRAH         .... auto
   Auto Start mean grad. ratio tolernc. ....  1.125000
   Auto Start start iteration           ....    50
   Auto Start num. interpolation iter.  ....    10
   Max. Number of Micro iterations      ....    24
   Max. Number of Macro iterations      .... Maxiter - #DIIS iter
   Number of Davidson start vectors     ....     2
   Converg. threshold    (grad. norm)   ....   5.000e-05
   Grad. Scal. Fac. for Micro threshold ....   0.100
   Minimum threshold for Micro iter.    ....   1.000e-02
   NR start threshold (gradient norm)   ....   1.000e-04
   Initial trust radius                 ....   0.400
   Minimum AH scaling param. (alpha)    ....   1.000
   Maximum AH scaling param. (alpha)    .... 1000.000
   Quad. conv. algorithm                .... NR
   White noise on init. David. guess    .... on
   Maximum white noise                  ....   0.010
   Pseudo random numbers                .... off
   Inactive MOs                         .... canonical
   Orbital update algorithm             .... Taylor
   Preconditioner                       .... Diag
   Full preconditioner red. dimension   ....   250
 SOSCF                  CNVSOSCF        .... on
   Start iteration      SOSCFMaxIt      ....   150
   Startup grad/error   SOSCFStart      ....  0.003300
   Hessian update       SOSCFHessUp     .... L-BFGS
 Level Shifting         CNVShift        .... on
   Level shift para.    LevelShift      ....    0.2500
   Turn off err/grad.   ShiftErr        ....    0.0010
 Zerner damping         CNVZerner       .... off
 Static damping         CNVDamp         .... on
   Fraction old density DampFac         ....    0.7000
   Max. Damping (<1)    DampMax         ....    0.9800
   Min. Damping (>=0)   DampMin         ....    0.0000
   Turn off err/grad.   DampErr         ....    0.1000

SCF Procedure:
 Maximum # iterations   MaxIter         ....   125
 SCF integral mode      SCFMode         .... Direct
   Integral package                     .... SHARK and LIBINT hybrid scheme
 Reset frequency        DirectResetFreq ....    20
 Integral Threshold     Thresh          ....  1.000e-10 Eh
 Primitive CutOff       TCut            ....  1.000e-11 Eh

Convergence Tolerance:
 Convergence Check Mode ConvCheckMode   .... Total+1el-Energy
 Convergence forced     ConvForced      .... 0
 Energy Change          TolE            ....  1.000e-06 Eh
 1-El. energy change                    ....  1.000e-03 Eh
 Orbital Gradient       TolG            ....  5.000e-05
 Orbital Rotation angle TolX            ....  5.000e-05
 DIIS Error             TolErr          ....  1.000e-05

------------------------------
INITIAL GUESS: MODEL POTENTIAL
------------------------------
Loading Hartree-Fock densities                     ... done
Calculating cut-offs                               ... done
Initializing the effective Hamiltonian             ... done
Setting up the integral package (SHARK)            ... done
Starting the Coulomb interaction                   ... done (   0.2 sec)
Making the grid                                    ... done (   0.2 sec)
Mapping shells                                     ... done
Starting the XC term evaluation                    ... done (   0.2 sec)
  promolecular density results
     # of electrons  =    105.997060053
     EX              =    -89.407363817
     EC              =     -3.542951181
     EX+EC           =    -92.950314997
Transforming the Hamiltonian                       ... done (   0.0 sec)
Diagonalizing the Hamiltonian                      ... done (   0.0 sec)
Back transforming the eigenvectors                 ... done (   0.0 sec)
Now organizing SCF variables                       ... done
                      ------------------
                      INITIAL GUESS DONE (   0.8 sec)
                      ------------------
             **** ENERGY FILE WAS UPDATED (data/single_point_P_M06-2x/292611/292611.en.tmp) ****
Finished Guess after   0.9 sec
Maximum memory used throughout the entire GUESS-calculation: 35.0 MB


           ************************************************************
           *        Program running with 6 parallel MPI-processes     *
           *              working on a common directory               *
           ************************************************************

-------------------------------------------------------------------------------------------
                                      ORCA LEAN-SCF
                              memory conserving SCF solver
-------------------------------------------------------------------------------------------

----------------------------------------D-I-I-S--------------------------------------------
Iteration    Energy (Eh)           Delta-E    RMSDP     MaxDP     DIISErr   Damp  Time(sec)
-------------------------------------------------------------------------------------------
               ***  Starting incremental Fock matrix formation  ***
    1    -809.6013377083532987     0.00e+00  1.20e-03  3.34e-02  1.83e-01  0.700   7.7
    2    -809.7770212834240056    -1.76e-01  9.62e-04  2.98e-02  1.03e-01  0.700   4.6
                               ***Turning on AO-DIIS***
    3    -809.8604232596925385    -8.34e-02  6.31e-04  2.14e-02  4.66e-02  0.700   4.5
    4    -809.9087602475907488    -4.83e-02  1.44e-03  4.85e-02  2.72e-02  0.000   4.2
    5    -810.0113073101668988    -1.03e-01  1.27e-04  1.23e-02  3.48e-03  0.000   4.7
                              *** Initializing SOSCF ***
---------------------------------------S-O-S-C-F--------------------------------------
Iteration    Energy (Eh)           Delta-E    RMSDP     MaxDP     MaxGrad    Time(sec)
--------------------------------------------------------------------------------------
    6    -810.0115126944004942    -2.05e-04  5.04e-05  4.34e-03  7.72e-04     4.0
               *** Restarting incremental Fock matrix formation ***
    7    -810.0115145618841552    -1.87e-06  6.75e-05  4.43e-03  1.65e-04     7.4
    8    -810.0115167929210429    -2.23e-06  2.89e-05  2.13e-03  2.59e-04     5.3
    9    -810.0115178531401625    -1.06e-06  1.81e-05  1.25e-03  7.52e-05     4.9
   10    -810.0115180384424320    -1.85e-07  3.42e-06  2.22e-04  2.13e-05     4.7
                 **** Energy Check signals convergence ****

               *****************************************************
               *                     SUCCESS                       *
               *           SCF CONVERGED AFTER  10 CYCLES          *
               *****************************************************

Recomputing exchange energy using gridx3       ... done (   10.486 sec)
Old exchange energy                            :    -49.403136540 Eh
New exchange energy                            :    -49.403142039 Eh
Exchange energy change after final integration :     -0.000005499 Eh
Total energy after final integration           :   -810.011523537 Eh
             **** ENERGY FILE WAS UPDATED (data/single_point_P_M06-2x/292611/292611.en.tmp) ****

----------------
TOTAL SCF ENERGY
----------------

Total Energy       :       -810.01152353714883 Eh          -22041.53413 eV

Components:
Nuclear Repulsion  :        879.69272971970656 Eh           23937.65614 eV
Electronic Energy  :      -1689.70424775814899 Eh          -45979.19012 eV
One Electron Energy:      -2850.15232538887585 Eh          -77556.58767 eV
Two Electron Energy:       1160.44807763072686 Eh           31577.39756 eV

Virial components:
Potential Energy   :      -1616.15956111782589 Eh          -43977.93745 eV
Kinetic Energy     :        806.14803758067717 Eh           21936.40333 eV
Virial Ratio       :          2.00479252665313

DFT components:
N(Alpha)           :       52.999849039566 electrons
N(Beta)            :       52.999849039566 electrons
N(Total)           :      105.999698079131 electrons
E(XC)              :      -45.768565337115 Eh       

---------------
SCF CONVERGENCE
---------------

  Last Energy change         ...    1.8530e-07  Tolerance :   1.0000e-06
  Last MAX-Density change    ...    2.2238e-04  Tolerance :   1.0000e-05
  Last RMS-Density change    ...    3.4237e-06  Tolerance :   1.0000e-06
  Last DIIS Error            ...    7.7198e-04  Tolerance :   1.0000e-05
  Last Orbital Gradient      ...    2.1319e-05  Tolerance :   5.0000e-05
  Last Orbital Rotation      ...    3.9690e-05  Tolerance :   5.0000e-05


----------------
ORBITAL ENERGIES
----------------

  NO   OCC          E(Eh)            E(eV) 
   0   2.0000     -78.017699     -2122.9695 
   1   2.0000     -10.552274      -287.1420 
   2   2.0000     -10.551943      -287.1330 
   3   2.0000     -10.551066      -287.1091 
   4   2.0000     -10.550332      -287.0891 
   5   2.0000     -10.549882      -287.0769 
   6   2.0000     -10.549335      -287.0620 
   7   2.0000     -10.538172      -286.7582 
   8   2.0000     -10.538017      -286.7540 
   9   2.0000     -10.535851      -286.6951 
  10   2.0000     -10.535731      -286.6918 
  11   2.0000     -10.527569      -286.4697 
  12   2.0000     -10.527421      -286.4657 
  13   2.0000      -6.833693      -185.9542 
  14   2.0000      -4.948166      -134.6464 
  15   2.0000      -4.947897      -134.6391 
  16   2.0000      -4.947707      -134.6339 
  17   2.0000      -0.955575       -26.0025 
  18   2.0000      -0.889170       -24.1956 
  19   2.0000      -0.875427       -23.8216 
  20   2.0000      -0.843115       -22.9423 
  21   2.0000      -0.840540       -22.8723 
  22   2.0000      -0.791918       -21.5492 
  23   2.0000      -0.760026       -20.6814 
  24   2.0000      -0.693532       -18.8720 
  25   2.0000      -0.686185       -18.6720 
  26   2.0000      -0.673439       -18.3252 
  27   2.0000      -0.655762       -17.8442 
  28   2.0000      -0.617583       -16.8053 
  29   2.0000      -0.576526       -15.6881 
  30   2.0000      -0.534295       -14.5389 
  31   2.0000      -0.526246       -14.3199 
  32   2.0000      -0.518921       -14.1206 
  33   2.0000      -0.513741       -13.9796 
  34   2.0000      -0.487687       -13.2706 
  35   2.0000      -0.487023       -13.2526 
  36   2.0000      -0.484717       -13.1898 
  37   2.0000      -0.466194       -12.6858 
  38   2.0000      -0.465183       -12.6583 
  39   2.0000      -0.444792       -12.1034 
  40   2.0000      -0.443436       -12.0665 
  41   2.0000      -0.432836       -11.7781 
  42   2.0000      -0.429717       -11.6932 
  43   2.0000      -0.405402       -11.0315 
  44   2.0000      -0.403575       -10.9818 
  45   2.0000      -0.394169       -10.7259 
  46   2.0000      -0.389499       -10.5988 
  47   2.0000      -0.383339       -10.4312 
  48   2.0000      -0.360929        -9.8214 
  49   2.0000      -0.353823        -9.6280 
  50   2.0000      -0.309897        -8.4327 
  51   2.0000      -0.303454        -8.2574 
  52   2.0000      -0.279702        -7.6111 
  53   0.0000       0.001836         0.0500 
  54   0.0000       0.015167         0.4127 
  55   0.0000       0.060836         1.6554 
  56   0.0000       0.065015         1.7692 
  57   0.0000       0.073030         1.9872 
  58   0.0000       0.085281         2.3206 
  59   0.0000       0.094405         2.5689 
  60   0.0000       0.099631         2.7111 
  61   0.0000       0.101590         2.7644 
  62   0.0000       0.106728         2.9042 
  63   0.0000       0.116371         3.1666 
*Only the first 10 virtual orbitals were printed.

                    ********************************
                    * MULLIKEN POPULATION ANALYSIS *
                    ********************************

-----------------------
MULLIKEN ATOMIC CHARGES
-----------------------
   0 C :   -0.422531
   1 C :   -0.251993
   2 C :   -0.407796
   3 P :    0.188336
   4 C :   -0.413580
   5 C :   -0.251681
   6 C :   -0.422073
   7 C :   -0.119527
   8 C :   -0.087730
   9 C :   -0.155863
  10 C :   -0.131155
  11 C :   -0.170621
  12 C :   -0.152428
  13 H :    0.142663
  14 H :    0.135651
  15 H :    0.135757
  16 H :    0.143330
  17 H :    0.154431
  18 H :    0.158618
  19 H :    0.157380
  20 H :    0.159373
  21 H :    0.159037
  22 H :    0.143894
  23 H :    0.155315
  24 H :    0.135409
  25 H :    0.135730
  26 H :    0.142797
  27 H :    0.153260
  28 H :    0.145078
  29 H :    0.145527
  30 H :    0.144394
  31 H :    0.150998
Sum of atomic charges:   -0.0000000

--------------------------------
MULLIKEN REDUCED ORBITAL CHARGES
--------------------------------
  0 C s       :     3.311956  s :     3.311956
      pz      :     1.044568  p :     3.052618
      px      :     0.953547
      py      :     1.054503
      dz2     :     0.018746  d :     0.054702
      dxz     :     0.008058
      dyz     :     0.001842
      dx2y2   :     0.011292
      dxy     :     0.014765
      f0      :     0.000695  f :     0.003256
      f+1     :     0.000509
      f-1     :     0.000125
      f+2     :     0.000356
      f-2     :     0.000335
      f+3     :     0.000569
      f-3     :     0.000668

  1 C s       :     3.263927  s :     3.263927
      pz      :     1.013279  p :     2.890454
      px      :     0.883422
      py      :     0.993753
      dz2     :     0.029155  d :     0.092490
      dxz     :     0.014021
      dyz     :     0.003503
      dx2y2   :     0.028685
      dxy     :     0.017127
      f0      :     0.000748  f :     0.005122
      f+1     :     0.000909
      f-1     :     0.000290
      f+2     :     0.000525
      f-2     :     0.000596
      f+3     :     0.001147
      f-3     :     0.000908

  2 C s       :     3.271185  s :     3.271185
      pz      :     1.032746  p :     3.059794
      px      :     0.981307
      py      :     1.045742
      dz2     :     0.024024  d :     0.073103
      dxz     :     0.012358
      dyz     :     0.004384
      dx2y2   :     0.023173
      dxy     :     0.009165
      f0      :     0.000706  f :     0.003714
      f+1     :     0.000626
      f-1     :     0.000266
      f+2     :     0.000325
      f-2     :     0.000333
      f+3     :     0.000779
      f-3     :     0.000680

  3 P s       :     5.702268  s :     5.702268
      pz      :     3.363403  p :     8.844675
      px      :     2.770020
      py      :     2.711251
      dz2     :     0.027821  d :     0.238983
      dxz     :     0.047620
      dyz     :     0.045217
      dx2y2   :     0.063700
      dxy     :     0.054625
      f0      :     0.002820  f :     0.025739
      f+1     :     0.003221
      f-1     :     0.002485
      f+2     :     0.005409
      f-2     :     0.004332
      f+3     :     0.004220
      f-3     :     0.003250

  4 C s       :     3.274061  s :     3.274061
      pz      :     1.037482  p :     3.062922
      px      :     0.958252
      py      :     1.067188
      dz2     :     0.019186  d :     0.072888
      dxz     :     0.017983
      dyz     :     0.004037
      dx2y2   :     0.015842
      dxy     :     0.015840
      f0      :     0.000694  f :     0.003709
      f+1     :     0.000540
      f-1     :     0.000222
      f+2     :     0.000453
      f-2     :     0.000255
      f+3     :     0.000717
      f-3     :     0.000828

  5 C s       :     3.264198  s :     3.264198
      pz      :     1.017252  p :     2.890234
      px      :     0.867361
      py      :     1.005621
      dz2     :     0.026328  d :     0.092142
      dxz     :     0.018039
      dyz     :     0.004029
      dx2y2   :     0.028704
      dxy     :     0.015043
      f0      :     0.000786  f :     0.005107
      f+1     :     0.000734
      f-1     :     0.000421
      f+2     :     0.000829
      f-2     :     0.000409
      f+3     :     0.000900
      f-3     :     0.001027

  6 C s       :     3.311832  s :     3.311832
      pz      :     1.016119  p :     3.052262
      px      :     1.022219
      py      :     1.013924
      dz2     :     0.022509  d :     0.054725
      dxz     :     0.003747
      dyz     :     0.003244
      dx2y2   :     0.020967
      dxy     :     0.004258
      f0      :     0.000539  f :     0.003253
      f+1     :     0.000564
      f-1     :     0.000378
      f+2     :     0.000440
      f-2     :     0.000305
      f+3     :     0.000426
      f-3     :     0.000601

  7 C s       :     3.284228  s :     3.284228
      pz      :     0.874279  p :     2.755860
      px      :     0.965345
      py      :     0.916236
      dz2     :     0.014453  d :     0.072556
      dxz     :     0.018670
      dyz     :     0.017881
      dx2y2   :     0.009371
      dxy     :     0.012182
      f0      :     0.000989  f :     0.006882
      f+1     :     0.001200
      f-1     :     0.001801
      f+2     :     0.000744
      f-2     :     0.000526
      f+3     :     0.000835
      f-3     :     0.000786

  8 C s       :     3.179900  s :     3.179900
      pz      :     0.997962  p :     2.837093
      px      :     0.943941
      py      :     0.895190
      dz2     :     0.015959  d :     0.064261
      dxz     :     0.004788
      dyz     :     0.015796
      dx2y2   :     0.008431
      dxy     :     0.019287
      f0      :     0.000800  f :     0.006476
      f+1     :     0.000194
      f-1     :     0.001536
      f+2     :     0.000932
      f-2     :     0.000778
      f+3     :     0.001227
      f-3     :     0.001011

  9 C s       :     3.231482  s :     3.231482
      pz      :     0.926278  p :     2.857184
      px      :     0.966463
      py      :     0.964442
      dz2     :     0.012001  d :     0.060902
      dxz     :     0.015072
      dyz     :     0.015116
      dx2y2   :     0.007756
      dxy     :     0.010958
      f0      :     0.000899  f :     0.006296
      f+1     :     0.001105
      f-1     :     0.001501
      f+2     :     0.000769
      f-2     :     0.000343
      f+3     :     0.000953
      f-3     :     0.000725

 10 C s       :     3.220641  s :     3.220641
      pz      :     0.899405  p :     2.842976
      px      :     0.959562
      py      :     0.984009
      dz2     :     0.012288  d :     0.061231
      dxz     :     0.018369
      dyz     :     0.015728
      dx2y2   :     0.007957
      dxy     :     0.006890
      f0      :     0.000992  f :     0.006306
      f+1     :     0.001128
      f-1     :     0.001500
      f+2     :     0.000758
      f-2     :     0.000544
      f+3     :     0.000612
      f-3     :     0.000770

 11 C s       :     3.235317  s :     3.235317
      pz      :     1.006749  p :     2.868090
      px      :     0.961941
      py      :     0.899400
      dz2     :     0.013410  d :     0.060938
      dxz     :     0.005180
      dyz     :     0.014780
      dx2y2   :     0.008702
      dxy     :     0.018867
      f0      :     0.000844  f :     0.006276
      f+1     :     0.000218
      f-1     :     0.001384
      f+2     :     0.000937
      f-2     :     0.000811
      f+3     :     0.001170
      f-3     :     0.000912

 12 C s       :     3.187700  s :     3.187700
      pz      :     0.883465  p :     2.891242
      px      :     0.966026
      py      :     1.041751
      dz2     :     0.011878  d :     0.066946
      dxz     :     0.014577
      dyz     :     0.021394
      dx2y2   :     0.007109
      dxy     :     0.011988
      f0      :     0.000894  f :     0.006539
      f+1     :     0.001042
      f-1     :     0.001678
      f+2     :     0.000806
      f-2     :     0.000383
      f+3     :     0.000984
      f-3     :     0.000752

 13 H s       :     0.838823  s :     0.838823
      pz      :     0.004364  p :     0.018514
      px      :     0.008230
      py      :     0.005921

 14 H s       :     0.846138  s :     0.846138
      pz      :     0.003884  p :     0.018211
      px      :     0.003952
      py      :     0.010374

 15 H s       :     0.846010  s :     0.846010
      pz      :     0.011223  p :     0.018233
      px      :     0.003475
      py      :     0.003536

 16 H s       :     0.838020  s :     0.838020
      pz      :     0.011933  p :     0.018650
      px      :     0.003288
      py      :     0.003429

 17 H s       :     0.826958  s :     0.826958
      pz      :     0.003719  p :     0.018610
      px      :     0.003651
      py      :     0.011240

 18 H s       :     0.822073  s :     0.822073
      pz      :     0.011753  p :     0.019309
      px      :     0.004021
      py      :     0.003535

 19 H s       :     0.823472  s :     0.823472
      pz      :     0.003896  p :     0.019148
      px      :     0.004163
      py      :     0.011089

 20 H s       :     0.821277  s :     0.821277
      pz      :     0.011229  p :     0.019350
      px      :     0.004323
      py      :     0.003798

 21 H s       :     0.821811  s :     0.821811
      pz      :     0.004075  p :     0.019153
      px      :     0.003919
      py      :     0.011159

 22 H s       :     0.837463  s :     0.837463
      pz      :     0.011393  p :     0.018643
      px      :     0.003822
      py      :     0.003428

 23 H s       :     0.826006  s :     0.826006
      pz      :     0.003682  p :     0.018679
      px      :     0.003379
      py      :     0.011619

 24 H s       :     0.846359  s :     0.846359
      pz      :     0.010992  p :     0.018233
      px      :     0.003704
      py      :     0.003536

 25 H s       :     0.846036  s :     0.846036
      pz      :     0.003795  p :     0.018234
      px      :     0.003480
      py      :     0.010959

 26 H s       :     0.838695  s :     0.838695
      pz      :     0.003619  p :     0.018508
      px      :     0.010968
      py      :     0.003921

 27 H s       :     0.826754  s :     0.826754
      pz      :     0.013157  p :     0.019986
      px      :     0.003734
      py      :     0.003095

 28 H s       :     0.835279  s :     0.835279
      pz      :     0.006619  p :     0.019643
      px      :     0.004160
      py      :     0.008865

 29 H s       :     0.834867  s :     0.834867
      pz      :     0.004150  p :     0.019606
      px      :     0.003919
      py      :     0.011538

 30 H s       :     0.835973  s :     0.835973
      pz      :     0.012871  p :     0.019633
      px      :     0.003823
      py      :     0.002939

 31 H s       :     0.829053  s :     0.829053
      pz      :     0.006711  p :     0.019949
      px      :     0.004212
      py      :     0.009026



                     *******************************
                     * LOEWDIN POPULATION ANALYSIS *
                     *******************************

----------------------
LOEWDIN ATOMIC CHARGES
----------------------
   0 C :   -0.325785
   1 C :   -0.329838
   2 C :   -0.417589
   3 P :    0.599928
   4 C :   -0.418067
   5 C :   -0.329609
   6 C :   -0.325745
   7 C :   -0.285062
   8 C :   -0.146812
   9 C :   -0.142942
  10 C :   -0.140871
  11 C :   -0.144707
  12 C :   -0.142209
  13 H :    0.122382
  14 H :    0.121325
  15 H :    0.121514
  16 H :    0.138032
  17 H :    0.141612
  18 H :    0.126821
  19 H :    0.135241
  20 H :    0.126326
  21 H :    0.135327
  22 H :    0.138164
  23 H :    0.141766
  24 H :    0.121449
  25 H :    0.121313
  26 H :    0.122430
  27 H :    0.148325
  28 H :    0.147337
  29 H :    0.146998
  30 H :    0.146980
  31 H :    0.145966

-------------------------------
LOEWDIN REDUCED ORBITAL CHARGES
-------------------------------
  0 C s       :     2.846159  s :     2.846159
      pz      :     1.072227  p :     3.192970
      px      :     1.048060
      py      :     1.072683
      dz2     :     0.078019  d :     0.262509
      dxz     :     0.044512
      dyz     :     0.012473
      dx2y2   :     0.058550
      dxy     :     0.068956
      f0      :     0.003492  f :     0.024147
      f+1     :     0.003359
      f-1     :     0.001180
      f+2     :     0.003955
      f-2     :     0.004330
      f+3     :     0.003471
      f-3     :     0.004361

  1 C s       :     2.793202  s :     2.793202
      pz      :     1.034466  p :     3.093547
      px      :     1.026378
      py      :     1.032702
      dz2     :     0.110208  d :     0.404839
      dxz     :     0.068575
      dyz     :     0.023058
      dx2y2   :     0.119626
      dxy     :     0.083372
      f0      :     0.004385  f :     0.038250
      f+1     :     0.005691
      f-1     :     0.002306
      f+2     :     0.005698
      f-2     :     0.006518
      f+3     :     0.007294
      f-3     :     0.006358

  2 C s       :     2.852223  s :     2.852223
      pz      :     1.066411  p :     3.194181
      px      :     1.074696
      py      :     1.053073
      dz2     :     0.094737  d :     0.343433
      dxz     :     0.070343
      dyz     :     0.023466
      dx2y2   :     0.101975
      dxy     :     0.052911
      f0      :     0.004126  f :     0.027752
      f+1     :     0.003713
      f-1     :     0.002065
      f+2     :     0.004257
      f-2     :     0.004353
      f+3     :     0.005070
      f-3     :     0.004168

  3 P s       :     4.968360  s :     4.968360
      pz      :     3.333639  p :     8.850432
      px      :     2.769896
      py      :     2.746898
      dz2     :     0.076953  d :     0.484586
      dxz     :     0.085882
      dyz     :     0.084807
      dx2y2   :     0.124484
      dxy     :     0.112460
      f0      :     0.008446  f :     0.096694
      f+1     :     0.011387
      f-1     :     0.009982
      f+2     :     0.020519
      f-2     :     0.016596
      f+3     :     0.015150
      f-3     :     0.014615

  4 C s       :     2.852027  s :     2.852027
      pz      :     1.075160  p :     3.195079
      px      :     1.056784
      py      :     1.063135
      dz2     :     0.082949  d :     0.343207
      dxz     :     0.082970
      dyz     :     0.027362
      dx2y2   :     0.081708
      dxy     :     0.068218
      f0      :     0.004146  f :     0.027754
      f+1     :     0.004035
      f-1     :     0.001973
      f+2     :     0.004027
      f-2     :     0.003320
      f+3     :     0.004337
      f-3     :     0.005916

  5 C s       :     2.793096  s :     2.793096
      pz      :     1.036904  p :     3.093568
      px      :     1.020688
      py      :     1.035975
      dz2     :     0.101841  d :     0.404696
      dxz     :     0.081090
      dyz     :     0.027752
      dx2y2   :     0.118280
      dxy     :     0.075734
      f0      :     0.004605  f :     0.038249
      f+1     :     0.005422
      f-1     :     0.003233
      f+2     :     0.006704
      f-2     :     0.004970
      f+3     :     0.005994
      f-3     :     0.007320

  6 C s       :     2.846145  s :     2.846145
      pz      :     1.067647  p :     3.192896
      px      :     1.058293
      py      :     1.066956
      dz2     :     0.090852  d :     0.262562
      dxz     :     0.027269
      dyz     :     0.025658
      dx2y2   :     0.089636
      dxy     :     0.029146
      f0      :     0.002594  f :     0.024143
      f+1     :     0.004090
      f-1     :     0.002981
      f+2     :     0.004254
      f-2     :     0.003702
      f+3     :     0.002728
      f-3     :     0.003795

  7 C s       :     2.783477  s :     2.783477
      pz      :     1.080571  p :     3.003970
      px      :     0.875686
      py      :     1.047713
      dz2     :     0.120719  d :     0.452902
      dxz     :     0.071261
      dyz     :     0.162769
      dx2y2   :     0.055964
      dxy     :     0.042189
      f0      :     0.007847  f :     0.044713
      f+1     :     0.005320
      f-1     :     0.015046
      f+2     :     0.005508
      f-2     :     0.004519
      f+3     :     0.003126
      f-3     :     0.003347

  8 C s       :     2.779968  s :     2.779968
      pz      :     0.996065  p :     2.943250
      px      :     0.883175
      py      :     1.064011
      dz2     :     0.119141  d :     0.383132
      dxz     :     0.015611
      dyz     :     0.102764
      dx2y2   :     0.070955
      dxy     :     0.074661
      f0      :     0.004623  f :     0.040462
      f+1     :     0.000937
      f-1     :     0.012207
      f+2     :     0.006788
      f-2     :     0.006394
      f+3     :     0.004491
      f-3     :     0.005023

  9 C s       :     2.778676  s :     2.778676
      pz      :     1.039771  p :     2.949757
      px      :     0.891175
      py      :     1.018811
      dz2     :     0.086055  d :     0.374076
      dxz     :     0.053810
      dyz     :     0.154877
      dx2y2   :     0.040568
      dxy     :     0.038767
      f0      :     0.007390  f :     0.040433
      f+1     :     0.005779
      f-1     :     0.012579
      f+2     :     0.004728
      f-2     :     0.001957
      f+3     :     0.004012
      f-3     :     0.003988

 10 C s       :     2.779025  s :     2.779025
      pz      :     1.058242  p :     2.946589
      px      :     0.888773
      py      :     0.999574
      dz2     :     0.110115  d :     0.374685
      dxz     :     0.068608
      dyz     :     0.127877
      dx2y2   :     0.045255
      dxy     :     0.022830
      f0      :     0.007624  f :     0.040572
      f+1     :     0.005261
      f-1     :     0.012867
      f+2     :     0.004832
      f-2     :     0.004359
      f+3     :     0.002319
      f-3     :     0.003311

 11 C s       :     2.778603  s :     2.778603
      pz      :     0.993273  p :     2.949597
      px      :     0.894923
      py      :     1.061402
      dz2     :     0.115190  d :     0.375917
      dxz     :     0.015960
      dyz     :     0.102778
      dx2y2   :     0.067719
      dxy     :     0.074270
      f0      :     0.004694  f :     0.040590
      f+1     :     0.000990
      f-1     :     0.012150
      f+2     :     0.006806
      f-2     :     0.006480
      f+3     :     0.004454
      f-3     :     0.005015

 12 C s       :     2.775739  s :     2.775739
      pz      :     1.033665  p :     2.942087
      px      :     0.888329
      py      :     1.020093
      dz2     :     0.085662  d :     0.383726
      dxz     :     0.054112
      dyz     :     0.163137
      dx2y2   :     0.041470
      dxy     :     0.039345
      f0      :     0.007239  f :     0.040657
      f+1     :     0.005664
      f-1     :     0.012838
      f+2     :     0.004831
      f-2     :     0.002004
      f+3     :     0.004092
      f-3     :     0.003990

 13 H s       :     0.819915  s :     0.819915
      pz      :     0.014836  p :     0.057703
      px      :     0.023293
      py      :     0.019573

 14 H s       :     0.821250  s :     0.821250
      pz      :     0.013397  p :     0.057424
      px      :     0.012466
      py      :     0.031562

 15 H s       :     0.821009  s :     0.821009
      pz      :     0.033680  p :     0.057477
      px      :     0.011591
      py      :     0.012205

 16 H s       :     0.806440  s :     0.806440
      pz      :     0.032411  p :     0.055528
      px      :     0.011159
      py      :     0.011958

 17 H s       :     0.802204  s :     0.802204
      pz      :     0.013203  p :     0.056184
      px      :     0.012040
      py      :     0.030942

 18 H s       :     0.813977  s :     0.813977
      pz      :     0.034230  p :     0.059202
      px      :     0.012934
      py      :     0.012038

 19 H s       :     0.806067  s :     0.806067
      pz      :     0.013365  p :     0.058692
      px      :     0.013742
      py      :     0.031585

 20 H s       :     0.814427  s :     0.814427
      pz      :     0.033083  p :     0.059247
      px      :     0.013407
      py      :     0.012758

 21 H s       :     0.805953  s :     0.805953
      pz      :     0.013703  p :     0.058720
      px      :     0.012847
      py      :     0.032169

 22 H s       :     0.806292  s :     0.806292
      pz      :     0.031087  p :     0.055545
      px      :     0.012287
      py      :     0.012170

 23 H s       :     0.801982  s :     0.801982
      pz      :     0.013138  p :     0.056252
      px      :     0.011457
      py      :     0.031657

 24 H s       :     0.821081  s :     0.821081
      pz      :     0.032355  p :     0.057470
      px      :     0.012922
      py      :     0.012192

 25 H s       :     0.821246  s :     0.821246
      pz      :     0.013161  p :     0.057442
      px      :     0.012015
      py      :     0.032266

 26 H s       :     0.819866  s :     0.819866
      pz      :     0.012378  p :     0.057703
      px      :     0.031780
      py      :     0.013546

 27 H s       :     0.795359  s :     0.795359
      pz      :     0.034119  p :     0.056315
      px      :     0.011847
      py      :     0.010350

 28 H s       :     0.796874  s :     0.796874
      pz      :     0.018922  p :     0.055789
      px      :     0.012799
      py      :     0.024068

 29 H s       :     0.797238  s :     0.797238
      pz      :     0.013322  p :     0.055764
      px      :     0.012224
      py      :     0.030218

 30 H s       :     0.797284  s :     0.797284
      pz      :     0.033263  p :     0.055737
      px      :     0.012031
      py      :     0.010443

 31 H s       :     0.797874  s :     0.797874
      pz      :     0.018888  p :     0.056161
      px      :     0.013004
      py      :     0.024269



                      *****************************
                      * MAYER POPULATION ANALYSIS *
                      *****************************

  NA   - Mulliken gross atomic population
  ZA   - Total nuclear charge
  QA   - Mulliken gross atomic charge
  VA   - Mayer's total valence
  BVA  - Mayer's bonded valence
  FA   - Mayer's free valence

  ATOM       NA         ZA         QA         VA         BVA        FA
  0 C      6.4225     6.0000    -0.4225     3.8509     3.8509    -0.0000
  1 C      6.2520     6.0000    -0.2520     3.7544     3.7544     0.0000
  2 C      6.4078     6.0000    -0.4078     3.7638     3.7638     0.0000
  3 P     14.8117    15.0000     0.1883     3.0395     3.0395    -0.0000
  4 C      6.4136     6.0000    -0.4136     3.7612     3.7612    -0.0000
  5 C      6.2517     6.0000    -0.2517     3.7482     3.7482    -0.0000
  6 C      6.4221     6.0000    -0.4221     3.8493     3.8493    -0.0000
  7 C      6.1195     6.0000    -0.1195     3.7278     3.7278    -0.0000
  8 C      6.0877     6.0000    -0.0877     3.8674     3.8674     0.0000
  9 C      6.1559     6.0000    -0.1559     3.9602     3.9602    -0.0000
 10 C      6.1312     6.0000    -0.1312     3.9269     3.9269    -0.0000
 11 C      6.1706     6.0000    -0.1706     4.0234     4.0234    -0.0000
 12 C      6.1524     6.0000    -0.1524     3.8449     3.8449    -0.0000
 13 H      0.8573     1.0000     0.1427     0.9589     0.9589     0.0000
 14 H      0.8643     1.0000     0.1357     0.9560     0.9560     0.0000
 15 H      0.8642     1.0000     0.1358     0.9559     0.9559    -0.0000
 16 H      0.8567     1.0000     0.1433     0.9545     0.9545    -0.0000
 17 H      0.8456     1.0000     0.1544     0.9500     0.9500    -0.0000
 18 H      0.8414     1.0000     0.1586     0.9466     0.9466    -0.0000
 19 H      0.8426     1.0000     0.1574     0.9547     0.9547     0.0000
 20 H      0.8406     1.0000     0.1594     0.9460     0.9460     0.0000
 21 H      0.8410     1.0000     0.1590     0.9553     0.9553    -0.0000
 22 H      0.8561     1.0000     0.1439     0.9542     0.9542    -0.0000
 23 H      0.8447     1.0000     0.1553     0.9502     0.9502     0.0000
 24 H      0.8646     1.0000     0.1354     0.9560     0.9560     0.0000
 25 H      0.8643     1.0000     0.1357     0.9561     0.9561    -0.0000
 26 H      0.8572     1.0000     0.1428     0.9590     0.9590    -0.0000
 27 H      0.8467     1.0000     0.1533     0.9781     0.9781     0.0000
 28 H      0.8549     1.0000     0.1451     0.9653     0.9653    -0.0000
 29 H      0.8545     1.0000     0.1455     0.9635     0.9635    -0.0000
 30 H      0.8556     1.0000     0.1444     0.9659     0.9659    -0.0000
 31 H      0.8490     1.0000     0.1510     0.9664     0.9664     0.0000

  Mayer bond orders larger than 0.100000
B(  0-C ,  1-C ) :   0.9444 B(  0-C , 13-H ) :   0.9788 B(  0-C , 14-H ) :   0.9739 
B(  0-C , 15-H ) :   0.9735 B(  1-C ,  2-C ) :   0.9155 B(  1-C , 16-H ) :   0.9701 
B(  1-C , 17-H ) :   0.9703 B(  2-C ,  3-P ) :   0.9695 B(  2-C , 18-H ) :   0.9624 
B(  2-C , 19-H ) :   0.9480 B(  3-P ,  4-C ) :   0.9691 B(  3-P ,  7-C ) :   0.9413 
B(  4-C ,  5-C ) :   0.9116 B(  4-C , 20-H ) :   0.9637 B(  4-C , 21-H ) :   0.9483 
B(  5-C ,  6-C ) :   0.9436 B(  5-C , 22-H ) :   0.9693 B(  5-C , 23-H ) :   0.9718 
B(  6-C , 24-H ) :   0.9734 B(  6-C , 25-H ) :   0.9739 B(  6-C , 26-H ) :   0.9789 
B(  7-C ,  8-C ) :   1.3964 B(  7-C , 12-C ) :   1.2913 B(  8-C ,  9-C ) :   1.4471 
B(  8-C , 27-H ) :   0.9270 B(  9-C , 10-C ) :   1.4495 B(  9-C , 28-H ) :   0.9478 
B( 10-C , 11-C ) :   1.4289 B( 10-C , 29-H ) :   0.9463 B( 11-C , 12-C ) :   1.4923 
B( 11-C , 30-H ) :   0.9429 B( 12-C , 31-H ) :   0.9330 

-------
TIMINGS
-------

Total SCF time: 0 days 0 hours 1 min 2 sec 

Total time                  ....      62.914 sec
Sum of individual times     ....      62.919 sec  (100.0%)

SCF preparation             ....       0.192 sec  (  0.3%)
Fock matrix formation       ....      60.891 sec  ( 96.8%)
  Startup                   ....       0.063 sec  (  0.1% of F)
  Split-RI-J                ....       3.936 sec  (  6.5% of F)
  Chain of spheres X        ....      42.112 sec  ( 69.2% of F)
  XC integration            ....      14.577 sec  ( 23.9% of F)
    Basis function eval.    ....       2.074 sec  ( 14.2% of XC)
    Density eval.           ....       5.743 sec  ( 39.4% of XC)
    XC-Functional eval.     ....       0.333 sec  (  2.3% of XC)
    XC-Potential eval.      ....       5.343 sec  ( 36.7% of XC)
Diagonalization             ....       0.000 sec  (  0.0%)
Density matrix formation    ....       0.169 sec  (  0.3%)
Total Energy calculation    ....       0.063 sec  (  0.1%)
Population analysis         ....       0.107 sec  (  0.2%)
Orbital Transformation      ....       0.214 sec  (  0.3%)
Orbital Orthonormalization  ....       0.000 sec  (  0.0%)
DIIS solution               ....       0.871 sec  (  1.4%)
SOSCF solution              ....       0.412 sec  (  0.7%)
Finished LeanSCF after  62.9 sec

Maximum memory used throughout the entire LEANSCF-calculation: 66.0 MB


-------------------------------------------------------------------------------
                          DFT DISPERSION CORRECTION                            
                                                                               
                              DFTD3 V3.1  Rev 1                                
                              USING zero damping                               
-------------------------------------------------------------------------------
The M062X functional is recognized
Active option DFTDOPT                   ...         3   

molecular C6(AA) [au] = 10246.941021 


            DFT-D V3
 parameters
 s6 scaling factor         :     1.0000 
 rs6 scaling factor        :     1.6190 
 s8 scaling factor         :     0.0000 
 rs8 scaling factor        :     1.0000 
 Damping factor alpha6     :    14.0000 
 Damping factor alpha8     :    16.0000 
 ad hoc parameters k1-k3   :    16.0000     1.3333    -4.0000 

 Edisp/kcal,au: -0.983531666541  -0.001567357311 
 E6   /kcal   :  -0.983531667 
 E8   /kcal   :  -0.000000000 
 % E8         :   0.000000000 

-------------------------   ----------------
Dispersion correction           -0.001567357
-------------------------   ----------------


-------------------------   --------------------
FINAL SINGLE POINT ENERGY      -810.013090894459
-------------------------   --------------------



           ************************************************************
           *        Program running with 6 parallel MPI-processes     *
           *              working on a common directory               *
           ************************************************************

------------------------------------------------------------------------------
                              ORCA PROPERTY CALCULATIONS
------------------------------------------------------------------------------

GBWName                                 ... data/single_point_P_M06-2x/292611/292611.gbw
Number of atoms                         ...     32
Number of basis functions               ...    523
Max core memory                         ...   1024 MB

Electric properties:
Dipole moment                           ... YES
Quadrupole moment                       ...  NO
Static polarizability (Dipole/Dipole)   ...  NO
Static polarizability (Dipole/Quad.)    ...  NO
Static polarizability (Quad./Quad.)     ...  NO
Static polarizability (Velocity)        ...  NO

Atomic electric properties:
Dipole moment                           ...  NO
Quadrupole moment                       ...  NO
Static polarizability                   ...  NO

Choice of electric origin               ... Center of mass
Position of electric origin             ...    -0.125697     0.446528    -0.322410

General magnetic properties:
Magnetizability                         ...  NO

EPR properties:
g-Tensor (aka g-matrix)                 ...  NO
Zero-Field splitting spin-orbit         ...  NO
Zero-field splitting spin-spin          ...  NO
Hyperfine couplings                     ...  NO (   0 nuclei)
Quadrupole couplings                    ...  NO (   0 nuclei)
Contact density                         ...  NO (   0 nuclei)

NMR properties:
Chemical shifts                         ...  NO (   0 nuclei)
Spin-rotation constants                 ...  NO (   0 nuclei)
Spin-spin couplings                     ...  NO (   0 nuclei,    0 pairs)

Choice of magnetic origin               ... GIAO
Position of magnetic origin             ...     0.000000     0.000000     0.000000

Properties with geometric perturbations:
SCF Hessian                             ...  NO
IR spectrum                             ...  NO
VCD spectrum                            ...  NO
X-ray spectroscopy properties:
SCF XES/XAS/RIXS spectra                ...  NO


-------------
DIPOLE MOMENT
-------------

Method             : SCF
Type of density    : Electron Density
Multiplicity       :   1
Irrep              :   0
Energy             :  -810.0115235371488325 Eh
Relativity type    : 
Basis              : AO
                                X                 Y                 Z
Electronic contribution:     -2.188973546       8.520670959      -4.462618236
Nuclear contribution   :      2.224980939      -8.424601913       4.905350757
                        -----------------------------------------
Total Dipole Moment    :      0.036007393       0.096069046       0.442732521
                        -----------------------------------------
Magnitude (a.u.)       :      0.454464387
Magnitude (Debye)      :      1.155156669



--------------------
Rotational spectrum 
--------------------
 
Rotational constants in cm-1:             0.020574             0.018790             0.011636 
Rotational constants in MHz :           616.798040           563.307803           348.852908 

Dipole components along the rotational axes: 
x,y,z [a.u.] :    -0.002902     0.152026     0.428273 
x,y,z [Debye]:    -0.007376     0.386419     1.088583 

 

Dipole moment calculation done in   0.0 sec 

Maximum memory used throughout the entire PROP-calculation: 33.7 MB

--------------------------------
SUGGESTED CITATIONS FOR THIS RUN
--------------------------------

Below you find a list of papers that are relevant to this ORCA run
We neither can nor want to force you to cite these papers, but we appreciate if you do
You receive ORCA, which is the product of decades of hard work by many enthusiastic individuals, for free
The only thing we kindly ask in return is that you cite our papers,
We deeply appreciate it, if you show your appreciation for ORCA by not just citing the generic ORCA reference.

Please note that relegating all ORCA citations to the supporting information does *not* help us.
SI sections are not indexed - citations you put there will not count into any citation statistics
But we need these citations in order to attract the funding resources that allow us to do what we are doing

Therefore, if you are a happy ORCA user, please consider citing a few of the papers listed below in the main body of your paper

In addition to the list printed below, the program has created the file data/single_point_P_M06-2x/292611/292611.bibtex that contains the list in bibtex format
You can import this file easily into all common literature databanks and citation aid programs


List of essential papers. We consider these as the minimum necessary citations

  1. Neese,F.
     Software update: the ORCA program system, version 5.0
     WIRES Comput. Molec. Sci., 2022 12(1)e1606
     doi.org/10.1002/wcms.1606

List of papers to cite with high priority. The work reported in these papers was absolutely
necessary for this run to complete.
Our perspective: the developers of density functionals and basis sets usually get cited in chemistry papers
Good! But without the algorithms to do something with them, the functionals or basis sets would not do anything.
Hence, in our opinion, the algorithm design and method developments papers are equally worthy of getting cited

  1. Neese,F.
     An improvement of the resolution of the identity approximation for the formation of the Coulomb matrix
     J. Comp. Chem., 2003 24(14)1740-1747
     doi.org/10.1002/jcc.10318
  2. Neese,F.; Wennmohs,F.; Hansen,A.; Becker,U.
     Efficient, approximate and parallel Hartree-Fock and hybrid DFT calculations. A 'chain-of-spheres' algorithm for the Hartree-Fock exchange
     Chem. Phys., 2009 356(1-3)98-109
     doi.org/10.1016/j.chemphys.2008.10.036
  3. Helmich-Paris,B.; de Souza,B.; Neese,F.; Izsák,R.
     An improved chain of spheres for exchange algorithm
     J. Chem. Phys., 2021 155 104109
     doi.org/doi: 10.1063/5.0058766.
  4. Neese,F.
     The SHARK Integral Generation and Digestion System
     J. Comp. Chem., 2022  1-16
     doi.org/10.1002/jcc.26942
  5. Grimme,S.; Antony,J.; Ehrlich,S.; Krieg,H.
     A consistent and accurate ab initio parametrization of density functional dispersion correction (DFT-D) for the 94 elements H-Pu
     J. Chem. Phys., 2010 132 154104-XXXX
     doi.org/10.1063/1.3382344

List of suggested additional citations. These are papers that are important in the 'surrounding' of 
of this run, or papers that preceded the highly important papers. If you like your results we are grateful for a citation.

  1. Izsak,R.; Neese,F.
     An overlap fitted chain of spheres exchange method
     J. Chem. Phys., 2011 135 144105
     doi.org/10.1063/1.3646921
  2. Izsak,R.; Hansen,A.; Neese,F.
     The resolution of identity and chain of spheres approximations for the LPNO-CCSD singles Fock term
     Molec. Phys., 2012 110 2413-2417
     doi.org/10.1080/00268976.2012.687466
  3. Neese,F.
     The ORCA program system
     WIRES Comput. Molec. Sci., 2012 2(1)73-78
     doi.org/10.1002/wcms.81
  4. Izsak,R.; Neese,F.; Klopper,W.
     Robust fitting techniques in the chain of spheres approximation to the Fock exchange: The role of the complementary space
     J. Chem. Phys., 2013 139 
     doi.org/10.1063/1.4819264
  5. Neese,F.
     Software update: the ORCA program system, version 4.0
     WIRES Comput. Molec. Sci., 2018 8(1)1-6
     doi.org/10.1002/wcms.1327
  6. Neese,F.; Wennmohs,F.; Becker,U.; Riplinger,C.
     The ORCA quantum chemistry program package
     J. Chem. Phys., 2020 152 Art. No. L224108
     doi.org/10.1063/5.0004608

List of optional additional citations

  1. Neese,F.
     Approximate second-order SCF convergence for spin unrestricted wavefunctions
     Chem. Phys. Lett., 2000 325(1-3)93-98
     doi.org/10.1016/s0009-2614(00)00662-x

Timings for individual modules:

Sum of individual times          ...       66.829 sec (=   1.114 min)
Startup calculation              ...        2.558 sec (=   0.043 min)   3.8 %
SCF iterations                   ...       64.064 sec (=   1.068 min)  95.9 %
Property calculations            ...        0.207 sec (=   0.003 min)   0.3 %
                             ****ORCA TERMINATED NORMALLY****
TOTAL RUN TIME: 0 days 0 hours 1 minutes 7 seconds 45 msec
