
                                 *****************
                                 * O   R   C   A *
                                 *****************

                                            #,                                       
                                            ###                                      
                                            ####                                     
                                            #####                                    
                                            ######                                   
                                           ########,                                 
                                     ,,################,,,,,                         
                               ,,#################################,,                 
                          ,,##########################################,,             
                       ,#########################################, ''#####,          
                    ,#############################################,,   '####,        
                  ,##################################################,,,,####,       
                ,###########''''           ''''###############################       
              ,#####''   ,,,,##########,,,,          '''####'''          '####       
            ,##' ,,,,###########################,,,                        '##       
           ' ,,###''''                  '''############,,,                           
         ,,##''                                '''############,,,,        ,,,,,,###''
      ,#''                                            '''#######################'''  
     '                                                          ''''####''''         
             ,#######,   #######,   ,#######,      ##                                
            ,#'     '#,  ##    ##  ,#'     '#,    #''#        ,####,   ,####,        
            ##       ##  ##   ,#'  ##            #'  '#       #'       #'  '#        
            ##       ##  #######   ##           ,######,      #####,   #    #        
            '#,     ,#'  ##    ##  '#,     ,#' ,#      #,     #,   #   #,  ,#        
             '#######'   ##     ##  '#######'  #'      '#     '####' # '####'        



                #########################################################
                #                        -***-                          #
                #          Department of theory and spectroscopy        #
                #                                                       #
                #                      Frank Neese                      #
                #                                                       #
                #     Directorship, Architecture, Infrastructure        #
                #                    SHARK, DRIVERS                     #
                #        Core code/Algorithms in most modules           #
                #                                                       #
                #        Max Planck Institute fuer Kohlenforschung      #
                #                Kaiser Wilhelm Platz 1                 #
                #                 D-45470 Muelheim/Ruhr                 #
                #                      Germany                          #
                #                                                       #
                #                  All rights reserved                  #
                #                        -***-                          #
                #########################################################


                         Program Version 6.0.0  -   RELEASE   -


 With contributions from (in alphabetic order):
   Daniel Aravena         : Magnetic Suceptibility
   Michael Atanasov       : Ab Initio Ligand Field Theory (pilot matlab implementation)
   Alexander A. Auer      : GIAO ZORA, VPT2 properties, NMR spectrum
   Ute Becker             : All parallelization in ORCA, NUMFREQ, NUMCALC
   Giovanni Bistoni       : ED, misc. LED, open-shell LED, HFLD
   Martin Brehm           : Molecular dynamics
   Dmytro Bykov           : pre 5.0 version of the SCF Hessian
   Marcos Casanova-Páez   : Triplet and SCS-CIS(D). UHF-(DLPNO)-IP/EA/STEOM-CCSD. UHF-CVS-IP/STEOM-CCSD
   Vijay G. Chilkuri      : MRCI spin determinant printing, contributions to CSF-ICE
   Pauline Colinet        : FMM embedding
   Dipayan Datta          : RHF DLPNO-CCSD density
   Achintya Kumar Dutta   : EOM-CC, STEOM-CC
   Nicolas Foglia         : Exact transition moments, OPA infrastructure, MCD improvements
   Dmitry Ganyushin       : Spin-Orbit,Spin-Spin,Magnetic field MRCI
   Miquel Garcia          : C-PCM and meta-GGA Hessian, CCSD/C-PCM, Gaussian charge scheme
   Tiago L. C. Gouveia    : GS-ROHF, GS-ROCIS
   Yang Guo               : DLPNO-NEVPT2, F12-NEVPT2, CIM, IAO-localization
   Andreas Hansen         : Spin unrestricted coupled pair/coupled cluster methods
   Ingolf Harden          : AUTO-CI MPn and infrastructure 
   Benjamin Helmich-Paris : MC-RPA, TRAH-(SCF,CASSCF), AVAS, COSX integrals, SCF dyn. polar.
   Lee Huntington         : MR-EOM, pCC
   Robert Izsak           : Overlap fitted RIJCOSX, COSX-SCS-MP3, EOM
   Riya Kayal             : Wick's Theorem for AUTO-CI, AUTO-CI UHF-CCSDT
   Emily Kempfer          : AUTO-CI, RHF CISDT and CCSDT
   Christian Kollmar      : KDIIS, OOCD, Brueckner-CCSD(T), CCSD density, CASPT2, CASPT2-K, improved NEVPT2
   Axel Koslowski         : Symmetry handling
   Simone Kossmann        : Meta GGA functionals, TD-DFT gradient, OOMP2, (MP2 Hessian; deprecated post 5.0)
   Lucas Lang             : DCDCAS
   Marvin Lechner         : AUTO-CI (C++ implementation), FIC-MRCC
   Spencer Leger          : CASSCF response
   Dagmar Lenk            : GEPOL surface, SMD, ORCA-2-JSON
   Dimitrios Liakos       : Extrapolation schemes; Compound Job, initial MDCI parallelization
   Dimitrios Manganas     : Further ROCIS development; embedding schemes. LFT, Crystal Embedding
   Dimitrios Pantazis     : SARC Basis sets
   Anastasios Papadopoulos: AUTO-CI, single reference methods and gradients
   Taras Petrenko         : pre 6.0 DFT Hessian and TD-DFT gradient, (ASA, deprecated), ECA, 1-Electron XAS/XES, NRVS
   Peter Pinski           : DLPNO-MP2, DLPNO-MP2 Gradient
   Christoph Reimann      : Effective Core Potentials
   Marius Retegan         : Local ZFS, SOC
   Christoph Riplinger    : Optimizer, TS searches, QM/MM, DLPNO-CCSD(T), (RO)-DLPNO pert. Triples
   Michael Roemelt        : Original ROCIS implementation
   Masaaki Saitow         : Open-shell DLPNO-CCSD energy and density
   Barbara Sandhoefer     : DKH picture change effects
   Kantharuban Sivalingam : CASSCF convergence/infrastructure, NEVPT2 and variants, FIC-MRCI
   Bernardo de Souza      : ESD, SOC TD-DFT
   Georgi Stoychev        : AutoAux, RI-MP2 NMR, DLPNO-MP2 response, X2C
   Van Anh Tran           : RI-MP2 g-tensors
   Willem Van den Heuvel  : Paramagnetic NMR
   Zikuan Wang            : NOTCH, Electric field optimization 
   Frank Wennmohs         : Technical directorship and infrastructure
   Hang Xu                : AUTO-CI-Response properties 


 We gratefully acknowledge several colleagues who have allowed us to
 interface, adapt or use parts of their codes:
   Stefan Grimme, W. Hujo, H. Kruse, P. Pracht,  : VdW corrections, initial TS optimization,
                  C. Bannwarth, S. Ehlert,         DFT functionals, gCP, sTDA/sTD-DF
                  L. Wittmann, M. Mueller
   Ed Valeev, F. Pavosevic, A. Kumar             : LibInt (2-el integral package), F12 methods
   Garnet Chan, S. Sharma, J. Yang, R. Olivares  : DMRG
   Ulf Ekstrom                                   : XCFun DFT Library
   Mihaly Kallay                                 : mrcc  (arbitrary order and MRCC methods)
   Frank Weinhold                                : gennbo (NPA and NBO analysis)
   Simon Mueller                                 : openCOSMO-RS
   Christopher J. Cramer and Donald G. Truhlar   : smd solvation model
   Lars Goerigk                                  : TD-DFT with DH, B97 family of functionals
   V. Asgeirsson, H. Jonsson                     : NEB implementation
   FAccTs GmbH                                   : IRC, NEB, NEB-TS, DLPNO-Multilevel, CI-OPT
                                                   MM, QMMM, 2- and 3-layer-ONIOM, Crystal-QMMM,
                                                   LR-CPCM, SF, NACMEs, symmetry and pop. for TD-DFT,
                                                   nearIR, NL-DFT gradient (VV10), updates on ESD,
                                                   ML-optimized integration grids, MBIS, APM,
                                                   GOAT, DOCKER, SOLVATOR, interface openCOSMO-RS
   S Lehtola, MJT Oliveira, MAL Marques          : LibXC Library
   Liviu Ungur et al                             : ANISO software


 Your calculation uses the libint2 library for the computation of 2-el integrals
 For citations please refer to: http://libint.valeyev.net

 Your ORCA version has been built with support for libXC version: 6.2.2
 For citations please refer to: https://libxc.gitlab.io

 This ORCA versions uses:
   CBLAS   interface :  Fast vector & matrix operations
   LAPACKE interface :  Fast linear algebra routines
   Shared memory     :  Shared parallel matrices


Your calculation utilizes the atom-pairwise dispersion correction
with the Becke-Johnson damping scheme (D3BJ)


Warning: RI is on but no J-basis has been assigned. Assigning Def2/J (nothing to worry about!)
================================================================================

----- Orbital basis set information -----
Your calculation utilizes the basis: def2-SVP
   F. Weigend and R. Ahlrichs, Phys. Chem. Chem. Phys. 7, 3297 (2005).

----- AuxJ basis set information -----
Your calculation utilizes the auxiliary basis: def2/J
   F. Weigend, Phys. Chem. Chem. Phys. 8, 1057 (2006).

================================================================================
                                        WARNINGS
                       Please study these warnings very carefully!
================================================================================


WARNING: Geometry Optimization
  ===> : Switching off AutoStart
         For restart on a previous wavefunction, please use MOREAD

================================================================================
                                       INPUT FILE
================================================================================
NAME = data/geom_opt/3333592/3333592.inp
|  1> ! RIJONX B3LYP def2-SVP D3BJ TIGHTSCF Opt
|  2> %pal
|  3> nprocs 6
|  4> end
|  5> 
|  6> * xyz 0 1
|  7> C      4.943869   -0.721571    1.317512
|  8> N      4.410580    0.319845    0.440858
|  9> C      5.392785    0.992233   -0.407820
| 10> C      3.088677    0.212880   -0.008016
| 11> C      2.157121   -0.642555    0.602022
| 12> C      0.822963   -0.741861    0.169084
| 13> C      0.349649    0.026396   -0.895185
| 14> C      1.260687    0.893890   -1.507968
| 15> C      2.591800    0.986883   -1.068082
| 16> P     -1.354552   -0.024875   -1.530523
| 17> C     -2.083949   -1.487528   -0.723146
| 18> C     -1.874891   -2.742764   -1.322596
| 19> C     -2.402600   -3.909379   -0.762085
| 20> C     -3.151773   -3.841810    0.408361
| 21> C     -3.372142   -2.609432    1.016771
| 22> C     -2.843344   -1.442417    0.455456
| 23> C     -2.177187    1.383460   -0.715621
| 24> C     -1.616659    2.127037    0.333488
| 25> C     -2.309386    3.198015    0.907964
| 26> C     -3.574082    3.545546    0.442005
| 27> C     -4.147963    2.823463   -0.599533
| 28> C     -3.454944    1.753847   -1.173418
| 29> H      5.989206   -0.523010    1.579958
| 30> H      4.906180   -1.703132    0.832162
| 31> H      4.399391   -0.758131    2.267121
| 32> H      5.489338    0.487276   -1.375344
| 33> H      5.128381    2.043451   -0.564786
| 34> H      6.383269    1.000229    0.061124
| 35> H      2.438406   -1.264471    1.446326
| 36> H      0.171602   -1.430409    0.700984
| 37> H      0.948067    1.524804   -2.338410
| 38> H      3.226699    1.696080   -1.589810
| 39> H     -1.291019   -2.824967   -2.237938
| 40> H     -2.226982   -4.868366   -1.242307
| 41> H     -3.563868   -4.747245    0.845577
| 42> H     -3.956924   -2.550998    1.931242
| 43> H     -3.034180   -0.501890    0.965982
| 44> H     -0.633577    1.888098    0.731387
| 45> H     -1.855468    3.759584    1.720592
| 46> H     -4.110077    4.378306    0.889197
| 47> H     -5.134701    3.090033   -0.968816
| 48> H     -3.928402    1.205453   -1.986228
| 49> **                         ****END OF INPUT****
================================================================================

                       *****************************
                       * Geometry Optimization Run *
                       *****************************

Geometry optimization settings:
Update method            Update   .... BFGS
Choice of coordinates    CoordSys .... (2022) Redundant Internals
Initial Hessian          InHess   .... Almloef's Model
Max. no of cycles        MaxIter  .... 126

Convergence Tolerances:
Energy Change            TolE     ....  5.0000e-06 Eh
Max. Gradient            TolMAXG  ....  3.0000e-04 Eh/bohr
RMS Gradient             TolRMSG  ....  1.0000e-04 Eh/bohr
Max. Displacement        TolMAXD  ....  4.0000e-03 bohr
RMS Displacement         TolRMSD  ....  2.0000e-03 bohr
Strict Convergence                .... False

------------------------------------------------------------------------------
                        ORCA OPTIMIZATION COORDINATE SETUP
------------------------------------------------------------------------------

The optimization will be done in redundant internal coordinates (2022)
Making redundant internal coordinates   ...  (2022 redundants) done
Evaluating the initial hessian          ...  (Almloef) done
Evaluating the coordinates              ...  done
Calculating the B-matrix                .... done
Calculating the G-matrix                .... done
Diagonalizing the G-matrix              .... done
Small eigenvalue found = 2.814e-03
Small eigenvalue found = 4.333e-03
Small eigenvalue found = 7.048e-03
Small eigenvalue found = 1.520e-02
Small eigenvalue found = 1.740e-02
Small eigenvalue found = 2.718e-02
The first mode is                       ....   94
The number of degrees of freedom        ....  120

    -----------------------------------------------------------------
                    Redundant Internal Coordinates


    -----------------------------------------------------------------
         Definition                    Initial Value    Approx d2E/dq
    -----------------------------------------------------------------
      1. B(N   1,C   0)                  1.4620         0.429528   
      2. B(C   2,N   1)                  1.4619         0.429733   
      3. B(C   3,N   1)                  1.4001         0.539160   
      4. B(C   4,C   3)                  1.4042         0.593090   
      5. B(C   5,C   4)                  1.4062         0.588793   
      6. B(C   6,C   5)                  1.3953         0.612708   
      7. B(C   7,C   6)                  1.3993         0.603812   
      8. B(C   8,C   3)                  1.4035         0.594648   
      9. B(C   8,C   7)                  1.4050         0.591311   
     10. B(P   9,C   6)                  1.8195         0.433502   
     11. B(C  10,P   9)                  1.8230         0.428007   
     12. B(C  11,C  10)                  1.4066         0.587726   
     13. B(C  12,C  11)                  1.3977         0.607311   
     14. B(C  13,C  12)                  1.3913         0.621775   
     15. B(C  14,C  13)                  1.3919         0.620373   
     16. B(C  15,C  14)                  1.3988         0.604933   
     17. B(C  15,C  10)                  1.4028         0.596120   
     18. B(C  16,P   9)                  1.8232         0.427590   
     19. B(C  17,C  16)                  1.4028         0.596191   
     20. B(C  18,C  17)                  1.3989         0.604726   
     21. B(C  19,C  18)                  1.3919         0.620479   
     22. B(C  20,C  19)                  1.3912         0.621960   
     23. B(C  21,C  20)                  1.3977         0.607265   
     24. B(C  21,C  16)                  1.4069         0.587140   
     25. B(H  22,C   0)                  1.0959         0.352357   
     26. B(H  23,C   0)                  1.0956         0.352704   
     27. B(H  24,C   0)                  1.0952         0.353235   
     28. B(H  25,C   2)                  1.0956         0.352728   
     29. B(H  26,C   2)                  1.0953         0.353201   
     30. B(H  27,C   2)                  1.0959         0.352359   
     31. B(H  28,C   4)                  1.0857         0.365830   
     32. B(H  29,C   5)                  1.0869         0.364264   
     33. B(H  30,C   7)                  1.0888         0.361732   
     34. B(H  31,C   8)                  1.0855         0.366135   
     35. B(H  32,C  11)                  1.0888         0.361673   
     36. B(H  33,C  12)                  1.0868         0.364373   
     37. B(H  34,C  13)                  1.0866         0.364569   
     38. B(H  35,C  14)                  1.0870         0.364046   
     39. B(H  36,C  15)                  1.0870         0.364043   
     40. B(H  37,C  17)                  1.0871         0.363908   
     41. B(H  38,C  18)                  1.0871         0.363970   
     42. B(H  39,C  19)                  1.0866         0.364588   
     43. B(H  40,C  20)                  1.0868         0.364391   
     44. B(H  41,C  21)                  1.0888         0.361646   
     45. A(H  22,C   0,H  23)          107.5303         0.288908   
     46. A(N   1,C   0,H  23)          111.0989         0.328744   
     47. A(N   1,C   0,H  24)          111.2437         0.328826   
     48. A(N   1,C   0,H  22)          111.2517         0.328691   
     49. A(H  23,C   0,H  24)          109.6986         0.289020   
     50. A(H  22,C   0,H  24)          105.8191         0.288976   
     51. A(C   0,N   1,C   3)          118.8294         0.391632   
     52. A(C   0,N   1,C   2)          115.5093         0.376486   
     53. A(C   2,N   1,C   3)          118.9052         0.391664   
     54. A(H  26,C   2,H  27)          105.8133         0.288972   
     55. A(H  25,C   2,H  26)          109.6982         0.289019   
     56. A(N   1,C   2,H  25)          111.0933         0.328773   
     57. A(N   1,C   2,H  26)          111.2510         0.328846   
     58. A(H  25,C   2,H  27)          107.5528         0.288911   
     59. A(N   1,C   2,H  27)          111.2344         0.328717   
     60. A(C   4,C   3,C   8)          115.4198         0.427405   
     61. A(N   1,C   3,C   4)          122.2499         0.417261   
     62. A(N   1,C   3,C   8)          122.2949         0.417456   
     63. A(C   3,C   4,H  28)          120.9934         0.351207   
     64. A(C   3,C   4,C   5)          122.5961         0.426648   
     65. A(C   5,C   4,H  28)          116.4101         0.350776   
     66. A(C   6,C   5,H  29)          121.2515         0.352889   
     67. A(C   4,C   5,C   6)          121.1849         0.429144   
     68. A(C   4,C   5,H  29)          117.5601         0.350522   
     69. A(C   5,C   6,P   9)          124.6486         0.433335   
     70. A(C   7,C   6,P   9)          118.3180         0.432197   
     71. A(C   5,C   6,C   7)          117.0334         0.431089   
     72. A(C   8,C   7,H  30)          118.1955         0.350361   
     73. A(C   6,C   7,H  30)          120.4190         0.351602   
     74. A(C   6,C   7,C   8)          121.3830         0.428347   
     75. A(C   7,C   8,H  31)          116.5454         0.351078   
     76. A(C   3,C   8,H  31)          121.0833         0.351412   
     77. A(C   3,C   8,C   7)          122.3710         0.427175   
     78. A(C   6,P   9,C  10)          104.0470         0.433455   
     79. A(C  10,P   9,C  16)          103.9621         0.432386   
     80. A(C   6,P   9,C  16)          104.1681         0.433378   
     81. A(C  11,C  10,C  15)          117.8527         0.426899   
     82. A(P   9,C  10,C  15)          124.2571         0.430216   
     83. A(P   9,C  10,C  11)          117.8899         0.429123   
     84. A(C  12,C  11,H  32)          118.4616         0.351936   
     85. A(C  10,C  11,H  32)          120.3531         0.349992   
     86. A(C  10,C  11,C  12)          121.1849         0.428324   
     87. A(C  13,C  12,H  33)          120.1053         0.353786   
     88. A(C  11,C  12,H  33)          119.8871         0.352379   
     89. A(C  11,C  12,C  13)          120.0076         0.432677   
     90. A(C  14,C  13,H  34)          120.1204         0.353683   
     91. A(C  12,C  13,H  34)          120.1469         0.353818   
     92. A(C  12,C  13,C  14)          119.7327         0.434336   
     93. A(C  13,C  14,H  35)          120.0312         0.353597   
     94. A(C  15,C  14,H  35)          119.7426         0.352092   
     95. A(C  13,C  14,C  15)          120.2262         0.432197   
     96. A(C  14,C  15,H  36)          117.8413         0.352091   
     97. A(C  10,C  15,H  36)          121.1616         0.351219   
     98. A(C  10,C  15,C  14)          120.9957         0.429113   
     99. A(C  17,C  16,C  21)          117.8210         0.426831   
    100. A(P   9,C  16,C  21)          117.8845         0.428970   
    101. A(P   9,C  16,C  17)          124.2936         0.430150   
    102. A(C  16,C  17,H  37)          121.2364         0.351204   
    103. A(C  16,C  17,C  18)          121.0031         0.429096   
    104. A(C  18,C  17,H  37)          117.7595         0.352049   
    105. A(C  17,C  18,C  19)          120.2401         0.432183   
    106. A(C  19,C  18,H  38)          120.0439         0.353594   
    107. A(C  17,C  18,H  38)          119.7160         0.352059   
    108. A(C  18,C  19,C  20)          119.7246         0.434373   
    109. A(C  20,C  19,H  39)          120.1582         0.353839   
    110. A(C  18,C  19,H  39)          120.1171         0.353696   
    111. A(C  19,C  20,C  21)          120.0022         0.432694   
    112. A(C  21,C  20,H  40)          119.8916         0.352377   
    113. A(C  19,C  20,H  40)          120.1062         0.353807   
    114. A(C  20,C  21,H  41)          118.4452         0.351927   
    115. A(C  16,C  21,H  41)          120.3460         0.349929   
    116. A(C  16,C  21,C  20)          121.2085         0.428242   
    117. D(C   2,N   1,C   0,H  22)     28.2035         0.015730   
    118. D(C   2,N   1,C   0,H  24)    145.9141         0.015730   
    119. D(C   3,N   1,C   0,H  22)    179.1290         0.015730   
    120. D(C   3,N   1,C   0,H  23)     59.3622         0.015730   
    121. D(C   2,N   1,C   0,H  23)    -91.5634         0.015730   
    122. D(H  26,C   2,N   1,C   3)     62.5792         0.015745   
    123. D(H  27,C   2,N   1,C   0)    -28.8216         0.015745   
    124. D(H  25,C   2,N   1,C   0)     90.9584         0.015745   
    125. D(H  26,C   2,N   1,C   0)   -146.5184         0.015745   
    126. D(H  25,C   2,N   1,C   3)    -59.9440         0.015745   
    127. D(C   8,C   3,N   1,C   2)    -15.6601         0.023122   
    128. D(C   8,C   3,N   1,C   0)   -165.5948         0.023122   
    129. D(C   4,C   3,N   1,C   0)     16.6694         0.023122   
    130. D(C   4,C   3,N   1,C   2)    166.6042         0.023122   
    131. D(C   5,C   4,C   3,N   1)    179.0890         0.024220   
    132. D(H  28,C   4,C   3,C   8)   -178.5225         0.024220   
    133. D(C   5,C   4,C   3,C   8)      1.2081         0.024220   
    134. D(H  28,C   4,C   3,N   1)     -0.6415         0.024220   
    135. D(H  29,C   5,C   4,H  28)     -0.2421         0.023853   
    136. D(H  29,C   5,C   4,C   3)   -179.9843         0.023853   
    137. D(C   6,C   5,C   4,H  28)    179.0813         0.023853   
    138. D(C   6,C   5,C   4,C   3)     -0.6608         0.023853   
    139. D(P   9,C   6,C   5,H  29)     -0.6199         0.025941   
    140. D(P   9,C   6,C   5,C   4)   -179.9183         0.025941   
    141. D(C   7,C   6,C   5,H  29)    179.3587         0.025941   
    142. D(C   7,C   6,C   5,C   4)      0.0603         0.025941   
    143. D(H  30,C   7,C   6,P   9)      0.4697         0.025151   
    144. D(H  30,C   7,C   6,C   5)   -179.5103         0.025151   
    145. D(C   8,C   7,C   6,P   9)    179.8882         0.025151   
    146. D(C   8,C   7,C   6,C   5)     -0.0918         0.025151   
    147. D(C   7,C   8,C   3,N   1)   -179.1169         0.024354   
    148. D(H  31,C   8,C   7,H  30)      0.3445         0.024067   
    149. D(H  31,C   8,C   7,C   6)   -179.0866         0.024067   
    150. D(C   3,C   8,C   7,H  30)   -179.8443         0.024067   
    151. D(H  31,C   8,C   3,C   4)    178.5659         0.024354   
    152. D(H  31,C   8,C   3,N   1)      0.6860         0.024354   
    153. D(C   7,C   8,C   3,C   4)     -1.2370         0.024354   
    154. D(C   3,C   8,C   7,C   6)      0.7247         0.024067   
    155. D(C  16,P   9,C   6,C   7)    -82.9005         0.003841   
    156. D(C  16,P   9,C   6,C   5)     97.0778         0.003841   
    157. D(C  10,P   9,C   6,C   7)    168.4557         0.003841   
    158. D(C  10,P   9,C   6,C   5)    -11.5659         0.003841   
    159. D(C  15,C  10,P   9,C  16)    -13.3477         0.003780   
    160. D(C  15,C  10,P   9,C   6)     95.4483         0.003780   
    161. D(C  11,C  10,P   9,C  16)    166.4764         0.003780   
    162. D(C  11,C  10,P   9,C   6)    -84.7276         0.003780   
    163. D(H  32,C  11,C  10,C  15)   -179.9552         0.023762   
    164. D(H  32,C  11,C  10,P   9)      0.2092         0.023762   
    165. D(C  12,C  11,C  10,C  15)     -0.1699         0.023762   
    166. D(C  12,C  11,C  10,P   9)    179.9945         0.023762   
    167. D(H  33,C  12,C  11,H  32)     -0.1333         0.025460   
    168. D(H  33,C  12,C  11,C  10)   -179.9226         0.025460   
    169. D(C  13,C  12,C  11,H  32)    179.8942         0.025460   
    170. D(C  13,C  12,C  11,C  10)      0.1049         0.025460   
    171. D(H  34,C  13,C  12,H  33)     -0.0288         0.026761   
    172. D(H  34,C  13,C  12,C  11)    179.9437         0.026761   
    173. D(C  14,C  13,C  12,H  33)   -179.9868         0.026761   
    174. D(C  14,C  13,C  12,C  11)     -0.0143         0.026761   
    175. D(H  35,C  14,C  13,H  34)      0.0294         0.026633   
    176. D(H  35,C  14,C  13,C  12)    179.9874         0.026633   
    177. D(C  15,C  14,C  13,H  34)   -179.9639         0.026633   
    178. D(C  15,C  14,C  13,C  12)     -0.0059         0.026633   
    179. D(C  14,C  15,C  10,P   9)    179.9733         0.024481   
    180. D(H  36,C  15,C  14,H  35)      0.3692         0.025250   
    181. D(H  36,C  15,C  14,C  13)   -179.6375         0.025250   
    182. D(C  10,C  15,C  14,H  35)    179.9427         0.025250   
    183. D(C  10,C  15,C  14,C  13)     -0.0640         0.025250   
    184. D(H  36,C  15,C  10,C  11)    179.7084         0.024481   
    185. D(H  36,C  15,C  10,P   9)     -0.4674         0.024481   
    186. D(C  14,C  15,C  10,C  11)      0.1492         0.024481   
    187. D(C  21,C  16,P   9,C  10)    -81.8983         0.003776   
    188. D(C  21,C  16,P   9,C   6)    169.3953         0.003776   
    189. D(C  17,C  16,P   9,C  10)     98.4643         0.003776   
    190. D(C  17,C  16,P   9,C   6)    -10.2422         0.003776   
    191. D(H  37,C  17,C  16,C  21)    179.8944         0.024487   
    192. D(H  37,C  17,C  16,P   9)     -0.4680         0.024487   
    193. D(C  18,C  17,C  16,C  21)      0.2529         0.024487   
    194. D(C  18,C  17,C  16,P   9)    179.8906         0.024487   
    195. D(H  38,C  18,C  17,H  37)      0.2977         0.025232   
    196. D(H  38,C  18,C  17,C  16)    179.9512         0.025232   
    197. D(C  19,C  18,C  17,H  37)   -179.7518         0.025232   
    198. D(C  19,C  18,C  17,C  16)     -0.0983         0.025232   
    199. D(H  39,C  19,C  18,H  38)     -0.0026         0.026643   
    200. D(H  39,C  19,C  18,C  17)   -179.9530         0.026643   
    201. D(C  20,C  19,C  18,H  38)    179.9131         0.026643   
    202. D(C  20,C  19,C  18,C  17)     -0.0373         0.026643   
    203. D(H  40,C  20,C  19,H  39)     -0.0274         0.026778   
    204. D(H  40,C  20,C  19,C  18)   -179.9430         0.026778   
    205. D(C  21,C  20,C  19,H  39)    179.9254         0.026778   
    206. D(C  21,C  20,C  19,C  18)      0.0098         0.026778   
    207. D(H  41,C  21,C  20,H  40)     -0.1191         0.025456   
    208. D(H  41,C  21,C  20,C  19)    179.9280         0.025456   
    209. D(C  16,C  21,C  20,H  40)   -179.8931         0.025456   
    210. D(C  16,C  21,C  20,C  19)      0.1539         0.025456   
    211. D(H  41,C  21,C  16,C  17)    179.9489         0.023712   
    212. D(H  41,C  21,C  16,P   9)      0.2876         0.023712   
    213. D(C  20,C  21,C  16,C  17)     -0.2813         0.023712   
    214. D(C  20,C  21,C  16,P   9)   -179.9426         0.023712   
    -----------------------------------------------------------------

Number of atoms                         .... 42
Number of degrees of freedom            .... 214


         *************************************************************
         *                GEOMETRY OPTIMIZATION CYCLE   1            *
         *************************************************************
---------------------------------
CARTESIAN COORDINATES (ANGSTROEM)
---------------------------------
  C      4.943869   -0.721571    1.317512
  N      4.410580    0.319845    0.440858
  C      5.392785    0.992233   -0.407820
  C      3.088677    0.212880   -0.008016
  C      2.157121   -0.642555    0.602022
  C      0.822963   -0.741861    0.169084
  C      0.349649    0.026396   -0.895185
  C      1.260687    0.893890   -1.507968
  C      2.591800    0.986883   -1.068082
  P     -1.354552   -0.024875   -1.530523
  C     -2.083949   -1.487528   -0.723146
  C     -1.874891   -2.742764   -1.322596
  C     -2.402600   -3.909379   -0.762085
  C     -3.151773   -3.841810    0.408361
  C     -3.372142   -2.609432    1.016771
  C     -2.843344   -1.442417    0.455456
  C     -2.177187    1.383460   -0.715621
  C     -1.616659    2.127037    0.333488
  C     -2.309386    3.198015    0.907964
  C     -3.574082    3.545546    0.442005
  C     -4.147963    2.823463   -0.599533
  C     -3.454944    1.753847   -1.173418
  H      5.989206   -0.523010    1.579958
  H      4.906180   -1.703132    0.832162
  H      4.399391   -0.758131    2.267121
  H      5.489338    0.487276   -1.375344
  H      5.128381    2.043451   -0.564786
  H      6.383269    1.000229    0.061124
  H      2.438406   -1.264471    1.446326
  H      0.171602   -1.430409    0.700984
  H      0.948067    1.524804   -2.338410
  H      3.226699    1.696080   -1.589810
  H     -1.291019   -2.824967   -2.237938
  H     -2.226982   -4.868366   -1.242307
  H     -3.563868   -4.747245    0.845577
  H     -3.956924   -2.550998    1.931242
  H     -3.034180   -0.501890    0.965982
  H     -0.633577    1.888098    0.731387
  H     -1.855468    3.759584    1.720592
  H     -4.110077    4.378306    0.889197
  H     -5.134701    3.090033   -0.968816
  H     -3.928402    1.205453   -1.986228

----------------------------
CARTESIAN COORDINATES (A.U.)
----------------------------
  NO LB      ZA    FRAG     MASS         X           Y           Z
   0 C     6.0000    0    12.011    9.342558   -1.363572    2.489737
   1 N     7.0000    0    14.007    8.334788    0.604419    0.833101
   2 C     6.0000    0    12.011   10.190887    1.875049   -0.770668
   3 C     6.0000    0    12.011    5.836754    0.402285   -0.015148
   4 C     6.0000    0    12.011    4.076368   -1.214253    1.137657
   5 C     6.0000    0    12.011    1.555175   -1.401914    0.319522
   6 C     6.0000    0    12.011    0.660741    0.049881   -1.691654
   7 C     6.0000    0    12.011    2.382353    1.689207   -2.849647
   8 C     6.0000    0    12.011    4.897792    1.864939   -2.018382
   9 P    15.0000    0    30.974   -2.559732   -0.047007   -2.892269
  10 C     6.0000    0    12.011   -3.938093   -2.811021   -1.366548
  11 C     6.0000    0    12.011   -3.543031   -5.183073   -2.499344
  12 C     6.0000    0    12.011   -4.540256   -7.387656   -1.440132
  13 C     6.0000    0    12.011   -5.955988   -7.259969    0.771690
  14 C     6.0000    0    12.011   -6.372425   -4.931112    1.921419
  15 C     6.0000    0    12.011   -5.373141   -2.725773    0.860687
  16 C     6.0000    0    12.011   -4.114287    2.614361   -1.352328
  17 C     6.0000    0    12.011   -3.055043    4.019517    0.630201
  18 C     6.0000    0    12.011   -4.364107    6.043373    1.715803
  19 C     6.0000    0    12.011   -6.754036    6.700111    0.835268
  20 C     6.0000    0    12.011   -7.838514    5.335572   -1.132953
  21 C     6.0000    0    12.011   -6.528898    3.314291   -2.217439
  22 H     1.0000    0     1.008   11.317959   -0.988346    2.985688
  23 H     1.0000    0     1.008    9.271337   -3.218453    1.572558
  24 H     1.0000    0     1.008    8.313644   -1.432660    4.284238
  25 H     1.0000    0     1.008   10.373345    0.920818   -2.599023
  26 H     1.0000    0     1.008    9.691236    3.861563   -1.067291
  27 H     1.0000    0     1.008   12.062630    1.890159    0.115508
  28 H     1.0000    0     1.008    4.607920   -2.389504    2.733160
  29 H     1.0000    0     1.008    0.324281   -2.703081    1.324668
  30 H     1.0000    0     1.008    1.791587    2.881462   -4.418954
  31 H     1.0000    0     1.008    6.097577    3.205127   -3.004306
  32 H     1.0000    0     1.008   -2.439672   -5.338414   -4.229090
  33 H     1.0000    0     1.008   -4.208386   -9.199878   -2.347620
  34 H     1.0000    0     1.008   -6.734734   -8.970993    1.597909
  35 H     1.0000    0     1.008   -7.477503   -4.820688    3.649518
  36 H     1.0000    0     1.008   -5.733769   -0.948435    1.825441
  37 H     1.0000    0     1.008   -1.197287    3.567988    1.382121
  38 H     1.0000    0     1.008   -3.506326    7.104584    3.251448
  39 H     1.0000    0     1.008   -7.766920    8.273799    1.680339
  40 H     1.0000    0     1.008   -9.703179    5.839316   -1.830797
  41 H     1.0000    0     1.008   -7.423604    2.277976   -3.753427

--------------------------------
INTERNAL COORDINATES (ANGSTROEM)
--------------------------------
 C      0   0   0     0.000000000000     0.00000000     0.00000000
 N      1   0   0     1.462007755894     0.00000000     0.00000000
 C      2   1   0     1.461877776099   115.50927156     0.00000000
 C      2   1   3     1.400127465808   118.82939072   150.92557759
 C      4   2   1     1.404176620588   122.24992871    16.66942383
 C      5   4   2     1.406155952391   122.59606828   179.08903719
 C      6   5   4     1.395318409900   121.18492323   359.33915159
 C      7   6   5     1.399299497095   117.03343951     0.06026605
 C      4   2   1     1.403462618488   122.29487663   194.40517194
 P      7   6   5     1.819501068449   124.64857544   180.08167958
 C     10   7   6     1.822973231330   104.04704549   348.43407083
 C     11  10   7     1.406649553215   117.88991579   275.27244479
 C     12  11  10     1.397726700048   121.18494621   179.99453461
 C     13  12  11     1.391319371175   120.00762320     0.10487309
 C     14  13  12     1.391934179171   119.73265048     0.00000000
 C     15  14  13     1.398794432450   120.22616806     0.00000000
 C     10   7   6     1.823239173848   104.16813426    97.07778337
 C     17  10   7     1.402757316001   124.29359286   349.75784594
 C     18  17  10     1.398887860977   121.00307813   179.89061569
 C     19  18  17     1.391887767766   120.24009164   359.90173266
 C     20  19  18     1.391238536878   119.72462653   359.96267833
 C     21  20  19     1.397747371681   120.00218167     0.00000000
 H      1   2   3     1.095916884260   111.25169215    28.20346446
 H      1   2   3     1.095649159148   111.09885637   268.43664235
 H      1   2   3     1.095239781493   111.24366551   145.91411325
 H      3   2   1     1.095630751775   111.09329351    90.95835346
 H      3   2   1     1.095265759483   111.25097118   213.48156165
 H      3   2   1     1.095915583158   111.23435497   331.17843198
 H      5   4   2     1.085702540615   120.99336324   359.35845185
 H      6   5   4     1.086870328340   117.56007812   180.01572030
 H      8   7   6     1.088768871322   120.41904566   180.48971249
 H      9   4   2     1.085475578258   121.08333416     0.68600049
 H     12  11  10     1.088813493008   120.35309693     0.20919720
 H     13  12  11     1.086789269995   119.88710850   180.07744935
 H     14  13  12     1.086642838704   120.14693339   179.94368852
 H     15  14  13     1.087033453819   120.03124178   179.98737448
 H     16  15  14     1.087035516118   117.84134216   180.36253058
 H     18  17  10     1.087136458153   121.23644532   359.53201859
 H     19  18  17     1.087090409703   119.71602253   179.95119247
 H     20  19  18     1.086628060787   120.11709689   180.04700257
 H     21  20  19     1.086775680457   120.10615508   180.05695348
 H     22  21  20     1.088833574565   118.44519593   179.92799841

---------------------------
INTERNAL COORDINATES (A.U.)
---------------------------
 C      0   0   0     0.000000000000     0.00000000     0.00000000
 N      1   0   0     2.762794264308     0.00000000     0.00000000
 C      2   1   0     2.762548638094   115.50927156     0.00000000
 C      2   1   3     2.645857462958   118.82939072   150.92557759
 C      4   2   1     2.653509256566   122.24992871    16.66942383
 C      5   4   2     2.657249651602   122.59606828   179.08903719
 C      6   5   4     2.636769664330   121.18492323   359.33915159
 C      7   6   5     2.644292828842   117.03343951     0.06026605
 C      4   2   1     2.652159988139   122.29487663   194.40517194
 P      7   6   5     3.438358719745   124.64857544   180.08167958
 C     10   7   6     3.444920156684   104.04704549   348.43407083
 C     11  10   7     2.658182421979   117.88991579   275.27244479
 C     12  11  10     2.641320673160   121.18494621   179.99453461
 C     13  12  11     2.629212576340   120.00762320     0.10487309
 C     14  13  12     2.630374395078   119.73265048     0.00000000
 C     15  14  13     2.643338394985   120.22616806     0.00000000
 C     10   7   6     3.445422715210   104.16813426    97.07778337
 C     17  10   7     2.650827159596   124.29359286   349.75784594
 C     18  17  10     2.643514949314   121.00307813   179.89061569
 C     19  18  17     2.630286690234   120.24009164   359.90173266
 C     20  19  18     2.629059821656   119.72462653   359.96267833
 C     21  20  19     2.641359736886   120.00218167     0.00000000
 H      1   2   3     2.070982776792   111.25169215    28.20346446
 H      1   2   3     2.070476849651   111.09885637   268.43664235
 H      1   2   3     2.069703237998   111.24366551   145.91411325
 H      3   2   1     2.070442064756   111.09329351    90.95835346
 H      3   2   1     2.069752329284   111.25097118   213.48156165
 H      3   2   1     2.070980318065   111.23435497   331.17843198
 H      5   4   2     2.051680464664   120.99336324   359.35845185
 H      6   5   4     2.053887263647   117.56007812   180.01572030
 H      8   7   6     2.057474989937   120.41904566   180.48971249
 H      9   4   2     2.051251567967   121.08333416     0.68600049
 H     12  11  10     2.057559312704   120.35309693     0.20919720
 H     13  12  11     2.053734085575   119.88710850   180.07744935
 H     14  13  12     2.053457370537   120.14693339   179.94368852
 H     15  14  13     2.054195526128   120.03124178   179.98737448
 H     16  15  14     2.054199423308   117.84134216   180.36253058
 H     18  17  10     2.054390176111   121.23644532   359.53201859
 H     19  18  17     2.054303157152   119.71602253   179.95119247
 H     20  19  18     2.053429444321   120.11709689   180.04700257
 H     21  20  19     2.053708405070   120.10615508   180.05695348
 H     22  21  20     2.057597261346   118.44519593   179.92799841

---------------------
BASIS SET INFORMATION
---------------------
There are 4 groups of distinct atoms

 Group   1 Type C   : 7s4p1d contracted to 3s2p1d pattern {511/31/1}
 Group   2 Type N   : 7s4p1d contracted to 3s2p1d pattern {511/31/1}
 Group   3 Type P   : 10s7p1d contracted to 4s3p1d pattern {5311/511/1}
 Group   4 Type H   : 4s1p contracted to 2s1p pattern {31/1}

Atom   0C    basis set group =>   1
Atom   1N    basis set group =>   2
Atom   2C    basis set group =>   1
Atom   3C    basis set group =>   1
Atom   4C    basis set group =>   1
Atom   5C    basis set group =>   1
Atom   6C    basis set group =>   1
Atom   7C    basis set group =>   1
Atom   8C    basis set group =>   1
Atom   9P    basis set group =>   3
Atom  10C    basis set group =>   1
Atom  11C    basis set group =>   1
Atom  12C    basis set group =>   1
Atom  13C    basis set group =>   1
Atom  14C    basis set group =>   1
Atom  15C    basis set group =>   1
Atom  16C    basis set group =>   1
Atom  17C    basis set group =>   1
Atom  18C    basis set group =>   1
Atom  19C    basis set group =>   1
Atom  20C    basis set group =>   1
Atom  21C    basis set group =>   1
Atom  22H    basis set group =>   4
Atom  23H    basis set group =>   4
Atom  24H    basis set group =>   4
Atom  25H    basis set group =>   4
Atom  26H    basis set group =>   4
Atom  27H    basis set group =>   4
Atom  28H    basis set group =>   4
Atom  29H    basis set group =>   4
Atom  30H    basis set group =>   4
Atom  31H    basis set group =>   4
Atom  32H    basis set group =>   4
Atom  33H    basis set group =>   4
Atom  34H    basis set group =>   4
Atom  35H    basis set group =>   4
Atom  36H    basis set group =>   4
Atom  37H    basis set group =>   4
Atom  38H    basis set group =>   4
Atom  39H    basis set group =>   4
Atom  40H    basis set group =>   4
Atom  41H    basis set group =>   4
---------------------------------
AUXILIARY/J BASIS SET INFORMATION
---------------------------------
There are 4 groups of distinct atoms

 Group   1 Type C   : 12s5p4d2f1g contracted to 6s4p3d1f1g pattern {711111/2111/211/2/1}
 Group   2 Type N   : 12s5p4d2f1g contracted to 6s4p3d1f1g pattern {711111/2111/211/2/1}
 Group   3 Type P   : 14s5p5d2f1g contracted to 8s4p3d1f1g pattern {71111111/2111/311/2/1}
 Group   4 Type H   : 5s2p1d contracted to 3s1p1d pattern {311/2/1}

Atom   0C    basis set group =>   1
Atom   1N    basis set group =>   2
Atom   2C    basis set group =>   1
Atom   3C    basis set group =>   1
Atom   4C    basis set group =>   1
Atom   5C    basis set group =>   1
Atom   6C    basis set group =>   1
Atom   7C    basis set group =>   1
Atom   8C    basis set group =>   1
Atom   9P    basis set group =>   3
Atom  10C    basis set group =>   1
Atom  11C    basis set group =>   1
Atom  12C    basis set group =>   1
Atom  13C    basis set group =>   1
Atom  14C    basis set group =>   1
Atom  15C    basis set group =>   1
Atom  16C    basis set group =>   1
Atom  17C    basis set group =>   1
Atom  18C    basis set group =>   1
Atom  19C    basis set group =>   1
Atom  20C    basis set group =>   1
Atom  21C    basis set group =>   1
Atom  22H    basis set group =>   4
Atom  23H    basis set group =>   4
Atom  24H    basis set group =>   4
Atom  25H    basis set group =>   4
Atom  26H    basis set group =>   4
Atom  27H    basis set group =>   4
Atom  28H    basis set group =>   4
Atom  29H    basis set group =>   4
Atom  30H    basis set group =>   4
Atom  31H    basis set group =>   4
Atom  32H    basis set group =>   4
Atom  33H    basis set group =>   4
Atom  34H    basis set group =>   4
Atom  35H    basis set group =>   4
Atom  36H    basis set group =>   4
Atom  37H    basis set group =>   4
Atom  38H    basis set group =>   4
Atom  39H    basis set group =>   4
Atom  40H    basis set group =>   4
Atom  41H    basis set group =>   4


           ************************************************************
           *        Program running with 6 parallel MPI-processes     *
           *              working on a common directory               *
           ************************************************************
------------------------------------------------------------------------------
                             ORCA STARTUP CALCULATIONS
                           -- RI-GTO INTEGRALS CHOSEN --
------------------------------------------------------------------------------
------------------------------------------------------------------------------
                   ___                                                        
                  /   \      - P O W E R E D   B Y -                         
                 /     \                                                     
                 |  |  |   _    _      __       _____    __    __             
                 |  |  |  | |  | |    /  \     |  _  \  |  |  /  |          
                  \  \/   | |  | |   /    \    | | | |  |  | /  /          
                 / \  \   | |__| |  /  /\  \   | |_| |  |  |/  /          
                |  |  |   |  __  | /  /__\  \  |    /   |      \           
                |  |  |   | |  | | |   __   |  |    \   |  |\   \          
                \     /   | |  | | |  |  |  |  | |\  \  |  | \   \       
                 \___/    |_|  |_| |__|  |__|  |_| \__\ |__|  \__/        
                                                                              
                      - O R C A' S   B I G   F R I E N D -                    
                                      &                                       
                       - I N T E G R A L  F E E D E R -                       
                                                                              
 v1 FN, 2020, v2 2021, v3 2022-2024                                           
------------------------------------------------------------------------------


----------------------
SHARK INTEGRAL PACKAGE
----------------------

Number of atoms                             ...     42
Number of basis functions                   ...    412
Number of shells                            ...    194
Maximum angular momentum                    ...      2
Integral batch strategy                     ... SHARK/LIBINT Hybrid
RI-J (if used) integral strategy            ... SPLIT-RIJ (Revised 2003 algorithm where possible)
Printlevel                                  ...      1
Contraction scheme used                     ... SEGMENTED contraction
Prescreening option                         ... SCHWARTZ
   Thresh                                   ... 2.500e-11
   Tcut                                     ... 2.500e-12
   Tpresel                                  ... 2.500e-12 
Coulomb Range Separation                    ... NOT USED
Exchange Range Separation                   ... NOT USED
Multipole approximations                    ... NOT USED
Finite Nucleus Model                        ... NOT USED
CABS basis                                  ... NOT available
Auxiliary Coulomb fitting basis             ... AVAILABLE
   # of basis functions in Aux-J            ...   1300
   # of shells in Aux-J                     ...    432
   Maximum angular momentum in Aux-J        ...      4
Auxiliary J/K fitting basis                 ... NOT available
Auxiliary Correlation fitting basis         ... NOT available
Auxiliary 'external' fitting basis          ... NOT available

Checking pre-screening integrals            ... done (  0.0 sec) Dimension = 194
Check shell pair data                       ... done (  0.0 sec)
Shell pair information
Shell pair cut-off parameter TPreSel        ...   2.5e-12
Total number of shell pairs                 ...     18915
Shell pairs after pre-screening             ...     13263
Total number of primitive shell pairs       ...     68991
Primitive shell pairs kept                  ...     30693
          la=0 lb=0:   4168 shell pairs
          la=1 lb=0:   4986 shell pairs
          la=1 lb=1:   1524 shell pairs
          la=2 lb=0:   1528 shell pairs
          la=2 lb=1:    919 shell pairs
          la=2 lb=2:    138 shell pairs

Calculating one electron integrals          ... done (  0.0 sec)
Calculating RI/J V-Matrix + Cholesky decomp.... done (  0.1 sec)
Calculating Nuclear repulsion               ... done (  0.0 sec) ENN=   1779.440679611656 Eh

Diagonalization of the overlap matrix:
Smallest eigenvalue                        ... 2.389e-04
Time for diagonalization                   ...    0.022 sec
Threshold for overlap eigenvalues          ... 1.000e-07
Number of eigenvalues below threshold      ... 0
Time for construction of square roots      ...    0.012 sec
Total time needed                          ...    0.035 sec

-------------------
DFT GRID GENERATION
-------------------

General Integration Accuracy     IntAcc      ... 4.388
Radial Grid Type                 RadialGrid  ... OptM3 with GC (2021)
Angular Grid (max. ang.)         AngularGrid ... 4 (Lebedev-302)
Angular grid pruning method      GridPruning ... 4 (adaptive)
Weight generation scheme         WeightScheme... mBecke (2022)
Basis function cutoff            BFCut       ... 1.0000e-11
Integration weight cutoff        WCut        ... 1.0000e-14
Partially contracted basis set               ... off
Rotationally invariant grid construction     ... off
Angular grids for H and He will be reduced by one unit

Total number of grid points                  ...   196436
Total number of batches                      ...     3091
Average number of points per batch           ...       63
Average number of grid points per atom       ...     4677
Initializing property integral containers    ... done (  0.0 sec)

SHARK setup successfully completed in   1.4 seconds

Maximum memory used throughout the entire STARTUP-calculation: 52.5 MB


           ************************************************************
           *        Program running with 6 parallel MPI-processes     *
           *              working on a common directory               *
           ************************************************************
-------------------------------------------------------------------------------
                                 ORCA GUESS
                   Start orbitals & Density for SCF / CASSCF
-------------------------------------------------------------------------------

------------
SCF SETTINGS
------------
Hamiltonian:
 Density Functional     Method          .... DFT(GTOs)
 Exchange Functional    Exchange        .... B88
   X-Alpha parameter    XAlpha          ....  0.666667
   Becke's b parameter  XBeta           ....  0.004200
 Correlation Functional Correlation     .... LYP
 LDA part of GGA corr.  LDAOpt          .... VWN-5
 Gradients option       PostSCFGGA      .... off
 Hybrid DFT is turned on
   Fraction HF Exchange ScalHFX         ....  0.200000
   Scaling of DF-GGA-X  ScalDFX         ....  0.720000
   Scaling of DF-GGA-C  ScalDFC         ....  0.810000
   Scaling of DF-LDA-C  ScalLDAC        ....  1.000000
   Perturbative correction              ....  0.000000
   NL short-range parameter             ....  4.800000
 RI-approximation to the Coulomb term is turned on
   Number of AuxJ basis functions       .... 1300
   RIJ-ON(X) (HFX calculated with O(N)) .... on


General Settings:
 Integral files         IntName         .... data/geom_opt/3333592/3333592
 Hartree-Fock type      HFTyp           .... RHF
 Total Charge           Charge          ....    0
 Multiplicity           Mult            ....    1
 Number of Electrons    NEL             ....  162
 Basis Dimension        Dim             ....  412
 Nuclear Repulsion      ENuc            ....   1779.4406796117 Eh

Convergence Acceleration:
 AO-DIIS                CNVDIIS         .... on
   Start iteration      DIISMaxIt       ....    12
   Startup error        DIISStart       ....  0.200000
   # of expansion vecs  DIISMaxEq       ....     5
   Bias factor          DIISBfac        ....   1.050
   Max. coefficient     DIISMaxC        ....  10.000
 MO-DIIS                CNVKDIIS        .... off
 Trust-Rad. Augm. Hess. CNVTRAH         .... auto
   Auto Start mean grad. ratio tolernc. ....  1.125000
   Auto Start start iteration           ....    50
   Auto Start num. interpolation iter.  ....    10
   Max. Number of Micro iterations      ....    24
   Max. Number of Macro iterations      .... Maxiter - #DIIS iter
   Number of Davidson start vectors     ....     2
   Converg. threshold    (grad. norm)   ....   1.000e-05
   Grad. Scal. Fac. for Micro threshold ....   0.100
   Minimum threshold for Micro iter.    ....   1.000e-02
   NR start threshold (gradient norm)   ....   1.000e-04
   Initial trust radius                 ....   0.400
   Minimum AH scaling param. (alpha)    ....   1.000
   Maximum AH scaling param. (alpha)    .... 1000.000
   Quad. conv. algorithm                .... NR
   White noise on init. David. guess    .... on
   Maximum white noise                  ....   0.010
   Pseudo random numbers                .... off
   Inactive MOs                         .... canonical
   Orbital update algorithm             .... Taylor
   Preconditioner                       .... Diag
   Full preconditioner red. dimension   ....   250
   COSX micro iterations for RIJONX calc.... off
 SOSCF                  CNVSOSCF        .... on
   Start iteration      SOSCFMaxIt      ....   150
   Startup grad/error   SOSCFStart      ....  0.003300
   Hessian update       SOSCFHessUp     .... L-BFGS
 Level Shifting         CNVShift        .... on
   Level shift para.    LevelShift      ....    0.2500
   Turn off err/grad.   ShiftErr        ....    0.0010
 Zerner damping         CNVZerner       .... off
 Static damping         CNVDamp         .... on
   Fraction old density DampFac         ....    0.7000
   Max. Damping (<1)    DampMax         ....    0.9800
   Min. Damping (>=0)   DampMin         ....    0.0000
   Turn off err/grad.   DampErr         ....    0.1000

SCF Procedure:
 Maximum # iterations   MaxIter         ....   125
 SCF integral mode      SCFMode         .... Direct
   Integral package                     .... SHARK and LIBINT hybrid scheme
 Reset frequency        DirectResetFreq ....    20
 Integral Threshold     Thresh          ....  2.500e-11 Eh
 Primitive CutOff       TCut            ....  2.500e-12 Eh

Convergence Tolerance:
 Convergence Check Mode ConvCheckMode   .... Total+1el-Energy
 Convergence forced     ConvForced      .... 0
 Energy Change          TolE            ....  1.000e-08 Eh
 1-El. energy change                    ....  1.000e-05 Eh
 Orbital Gradient       TolG            ....  1.000e-05
 Orbital Rotation angle TolX            ....  1.000e-05
 DIIS Error             TolErr          ....  5.000e-07

------------------------------
INITIAL GUESS: MODEL POTENTIAL
------------------------------
Loading Hartree-Fock densities                     ... done
Calculating cut-offs                               ... done
Initializing the effective Hamiltonian             ... done
Setting up the integral package (SHARK)            ... done
Starting the Coulomb interaction                   ... done (   0.2 sec)
Making the grid                                    ... done (   0.3 sec)
Mapping shells                                     ... done
Starting the XC term evaluation                    ... done (   0.2 sec)
  promolecular density results
     # of electrons  =    161.988268427
     EX              =   -137.986811279
     EC              =     -5.513460299
     EX+EC           =   -143.500271578
Transforming the Hamiltonian                       ... done (   0.0 sec)
Diagonalizing the Hamiltonian                      ... done (   0.0 sec)
Back transforming the eigenvectors                 ... done (   0.0 sec)
Now organizing SCF variables                       ... done
                      ------------------
                      INITIAL GUESS DONE (   0.8 sec)
                      ------------------
             **** ENERGY FILE WAS UPDATED (data/geom_opt/3333592/3333592.en.tmp) ****
Finished Guess after   0.9 sec
Maximum memory used throughout the entire GUESS-calculation: 29.6 MB


           ************************************************************
           *        Program running with 6 parallel MPI-processes     *
           *              working on a common directory               *
           ************************************************************

-------------------------------------------------------------------------------------------
                                      ORCA LEAN-SCF
                              memory conserving SCF solver
-------------------------------------------------------------------------------------------

----------------------------------------D-I-I-S--------------------------------------------
Iteration    Energy (Eh)           Delta-E    RMSDP     MaxDP     DIISErr   Damp  Time(sec)
-------------------------------------------------------------------------------------------
               ***  Starting incremental Fock matrix formation  ***
    1    -1168.5268214646189335     0.00e+00  2.30e-03  6.00e-02  1.22e-01  0.700   6.0
    2    -1168.7311214638302772    -2.04e-01  1.65e-03  5.73e-02  6.67e-02  0.700   5.2
                               ***Turning on AO-DIIS***
    3    -1168.8210205861109898    -8.99e-02  7.70e-04  3.56e-02  2.88e-02  0.700   5.1
    4    -1168.8729601856362024    -5.19e-02  1.46e-03  7.89e-02  1.57e-02  0.000   4.9
    5    -1168.9837880073191627    -1.11e-01  1.95e-04  1.29e-02  4.53e-03  0.000   5.1
                              *** Initializing SOSCF ***
---------------------------------------S-O-S-C-F--------------------------------------
Iteration    Energy (Eh)           Delta-E    RMSDP     MaxDP     MaxGrad    Time(sec)
--------------------------------------------------------------------------------------
    6    -1168.9843818774747888    -5.94e-04  7.17e-05  3.95e-03  1.19e-03     4.6
               *** Restarting incremental Fock matrix formation ***
    7    -1168.9844236253543386    -4.17e-05  4.71e-05  1.52e-03  1.93e-04     6.0
    8    -1168.9844223326927022     1.29e-06  1.91e-05  5.62e-04  3.45e-04     4.0
    9    -1168.9844286634811397    -6.33e-06  1.22e-05  8.55e-04  8.93e-05     3.6
   10    -1168.9844284668065484     1.97e-07  5.69e-06  1.83e-04  8.23e-05     3.5
   11    -1168.9844291669569429    -7.00e-07  3.74e-06  2.62e-04  2.50e-05     3.2
   12    -1168.9844291183803762     4.86e-08  2.28e-06  1.39e-04  3.59e-05     3.2
   13    -1168.9844291912645531    -7.29e-08  5.91e-07  4.71e-05  4.24e-06     3.0
   14    -1168.9844291832596355     8.00e-09  3.29e-07  2.15e-05  5.97e-06     2.6
                 **** Energy Check signals convergence ****

               *****************************************************
               *                     SUCCESS                       *
               *           SCF CONVERGED AFTER  14 CYCLES          *
               *****************************************************

             **** ENERGY FILE WAS UPDATED (data/geom_opt/3333592/3333592.en.tmp) ****

----------------
TOTAL SCF ENERGY
----------------

Total Energy       :      -1168.98442918325964 Eh          -31809.68349 eV

Components:
Nuclear Repulsion  :       1779.44067961165592 Eh           48421.04257 eV
Electronic Energy  :      -2948.42510879491556 Eh          -80230.72606 eV
One Electron Energy:      -5127.50444182360934 Eh         -139526.48925 eV
Two Electron Energy:       2179.07933302869378 Eh           59295.76319 eV

Virial components:
Potential Energy   :      -2328.15931812637336 Eh          -63352.43582 eV
Kinetic Energy     :       1159.17488894311350 Eh           31542.75233 eV
Virial Ratio       :          2.00846251961953

DFT components:
N(Alpha)           :       80.999999344694 electrons
N(Beta)            :       80.999999344694 electrons
N(Total)           :      161.999998689388 electrons
E(X)               :     -111.026976994895 Eh       
E(C)               :       -6.498024245636 Eh       
E(XC)              :     -117.525001240530 Eh       

---------------
SCF CONVERGENCE
---------------

  Last Energy change         ...   -8.0049e-09  Tolerance :   1.0000e-08
  Last MAX-Density change    ...    2.1516e-05  Tolerance :   1.0000e-07
  Last RMS-Density change    ...    3.2908e-07  Tolerance :   5.0000e-09
  Last DIIS Error            ...    1.1886e-03  Tolerance :   5.0000e-07
  Last Orbital Gradient      ...    5.9655e-06  Tolerance :   1.0000e-05
  Last Orbital Rotation      ...    7.6354e-06  Tolerance :   1.0000e-05


----------------
ORBITAL ENERGIES
----------------

  NO   OCC          E(Eh)            E(eV) 
   0   2.0000     -77.038088     -2096.3129 
   1   2.0000     -14.342624      -390.2827 
   2   2.0000     -10.222301      -278.1629 
   3   2.0000     -10.218025      -278.0466 
   4   2.0000     -10.217937      -278.0442 
   5   2.0000     -10.185927      -277.1732 
   6   2.0000     -10.185567      -277.1634 
   7   2.0000     -10.184817      -277.1430 
   8   2.0000     -10.184376      -277.1310 
   9   2.0000     -10.184168      -277.1253 
  10   2.0000     -10.184064      -277.1225 
  11   2.0000     -10.183921      -277.1186 
  12   2.0000     -10.183531      -277.1080 
  13   2.0000     -10.183473      -277.1064 
  14   2.0000     -10.183385      -277.1040 
  15   2.0000     -10.183116      -277.0967 
  16   2.0000     -10.182801      -277.0881 
  17   2.0000     -10.182495      -277.0798 
  18   2.0000     -10.181540      -277.0538 
  19   2.0000     -10.177024      -276.9309 
  20   2.0000     -10.176080      -276.9052 
  21   2.0000     -10.173379      -276.8317 
  22   2.0000      -6.534691      -177.8180 
  23   2.0000      -4.700185      -127.8985 
  24   2.0000      -4.700086      -127.8958 
  25   2.0000      -4.697161      -127.8163 
  26   2.0000      -0.933537       -25.4028 
  27   2.0000      -0.845878       -23.0175 
  28   2.0000      -0.839415       -22.8417 
  29   2.0000      -0.831610       -22.6293 
  30   2.0000      -0.760038       -20.6817 
  31   2.0000      -0.734840       -19.9960 
  32   2.0000      -0.733979       -19.9726 
  33   2.0000      -0.732239       -19.9252 
  34   2.0000      -0.730010       -19.8646 
  35   2.0000      -0.728860       -19.8333 
  36   2.0000      -0.709144       -19.2968 
  37   2.0000      -0.661404       -17.9977 
  38   2.0000      -0.625394       -17.0178 
  39   2.0000      -0.595800       -16.2125 
  40   2.0000      -0.593934       -16.1618 
  41   2.0000      -0.592682       -16.1277 
  42   2.0000      -0.584926       -15.9167 
  43   2.0000      -0.571082       -15.5399 
  44   2.0000      -0.548034       -14.9128 
  45   2.0000      -0.520123       -14.1533 
  46   2.0000      -0.510931       -13.9031 
  47   2.0000      -0.493946       -13.4410 
  48   2.0000      -0.479125       -13.0377 
  49   2.0000      -0.466191       -12.6857 
  50   2.0000      -0.453489       -12.3401 
  51   2.0000      -0.449634       -12.2352 
  52   2.0000      -0.443382       -12.0650 
  53   2.0000      -0.441715       -12.0197 
  54   2.0000      -0.441176       -12.0050 
  55   2.0000      -0.428588       -11.6625 
  56   2.0000      -0.423256       -11.5174 
  57   2.0000      -0.415132       -11.2963 
  58   2.0000      -0.413817       -11.2605 
  59   2.0000      -0.411238       -11.1904 
  60   2.0000      -0.409031       -11.1303 
  61   2.0000      -0.401263       -10.9189 
  62   2.0000      -0.397058       -10.8045 
  63   2.0000      -0.376320       -10.2402 
  64   2.0000      -0.370454       -10.0806 
  65   2.0000      -0.364313        -9.9135 
  66   2.0000      -0.363308        -9.8861 
  67   2.0000      -0.360660        -9.8141 
  68   2.0000      -0.341324        -9.2879 
  69   2.0000      -0.340544        -9.2667 
  70   2.0000      -0.334195        -9.0939 
  71   2.0000      -0.321861        -8.7583 
  72   2.0000      -0.319449        -8.6927 
  73   2.0000      -0.289743        -7.8843 
  74   2.0000      -0.265295        -7.2190 
  75   2.0000      -0.255512        -6.9528 
  76   2.0000      -0.252418        -6.8687 
  77   2.0000      -0.247849        -6.7443 
  78   2.0000      -0.243366        -6.6223 
  79   2.0000      -0.214033        -5.8241 
  80   2.0000      -0.186745        -5.0816 
  81   0.0000      -0.018849        -0.5129 
  82   0.0000      -0.014527        -0.3953 
  83   0.0000      -0.011054        -0.3008 
  84   0.0000       0.001867         0.0508 
  85   0.0000       0.002652         0.0722 
  86   0.0000       0.008500         0.2313 
  87   0.0000       0.054681         1.4879 
  88   0.0000       0.068654         1.8682 
  89   0.0000       0.070077         1.9069 
  90   0.0000       0.081111         2.2071 
  91   0.0000       0.088435         2.4064 
*Only the first 10 virtual orbitals were printed.

                    ********************************
                    * MULLIKEN POPULATION ANALYSIS *
                    ********************************

-----------------------
MULLIKEN ATOMIC CHARGES
-----------------------
   0 C :    0.140565
   1 N :   -0.325058
   2 C :    0.139740
   3 C :    0.250777
   4 C :   -0.074285
   5 C :    0.013551
   6 C :   -0.136228
   7 C :    0.018599
   8 C :   -0.080680
   9 P :    0.334554
  10 C :   -0.137340
  11 C :    0.021077
  12 C :    0.023836
  13 C :    0.024903
  14 C :    0.026986
  15 C :    0.012888
  16 C :   -0.136556
  17 C :    0.010409
  18 C :    0.027104
  19 C :    0.024857
  20 C :    0.023860
  21 C :    0.019637
  22 H :    0.013875
  23 H :    0.008496
  24 H :    0.027800
  25 H :    0.008602
  26 H :    0.027790
  27 H :    0.014148
  28 H :   -0.049061
  29 H :   -0.013883
  30 H :   -0.024886
  31 H :   -0.045969
  32 H :   -0.019818
  33 H :   -0.021536
  34 H :   -0.022212
  35 H :   -0.023618
  36 H :   -0.007996
  37 H :   -0.005822
  38 H :   -0.024326
  39 H :   -0.022664
  40 H :   -0.021694
  41 H :   -0.020426
Sum of atomic charges:   -0.0000000

--------------------------------
MULLIKEN REDUCED ORBITAL CHARGES
--------------------------------
  0 C s       :     2.965950  s :     2.965950
      pz      :     0.948664  p :     2.851564
      px      :     0.987853
      py      :     0.915047
      dz2     :     0.009330  d :     0.041922
      dxz     :     0.006971
      dyz     :     0.010130
      dx2y2   :     0.010924
      dxy     :     0.004567

  1 N s       :     3.439906  s :     3.439906
      pz      :     1.372107  p :     3.858578
      px      :     1.083130
      py      :     1.403341
      dz2     :     0.004048  d :     0.026573
      dxz     :     0.007063
      dyz     :     0.003795
      dx2y2   :     0.006212
      dxy     :     0.005456

  2 C s       :     2.966204  s :     2.966204
      pz      :     0.952414  p :     2.852120
      px      :     0.916657
      py      :     0.983048
      dz2     :     0.009159  d :     0.041936
      dxz     :     0.009840
      dyz     :     0.007268
      dx2y2   :     0.009547
      dxy     :     0.006121

  3 C s       :     2.937281  s :     2.937281
      pz      :     0.940001  p :     2.752725
      px      :     0.852284
      py      :     0.960441
      dz2     :     0.010166  d :     0.059218
      dxz     :     0.014760
      dyz     :     0.006949
      dx2y2   :     0.013634
      dxy     :     0.013708

  4 C s       :     3.255457  s :     3.255457
      pz      :     0.891468  p :     2.786126
      px      :     0.930183
      py      :     0.964475
      dz2     :     0.004820  d :     0.032702
      dxz     :     0.008050
      dyz     :     0.004674
      dx2y2   :     0.007052
      dxy     :     0.008105

  5 C s       :     3.232176  s :     3.232176
      pz      :     0.933327  p :     2.718153
      px      :     0.857558
      py      :     0.927268
      dz2     :     0.006853  d :     0.036120
      dxz     :     0.009110
      dyz     :     0.005285
      dx2y2   :     0.006405
      dxy     :     0.008467

  6 C s       :     3.058848  s :     3.058848
      pz      :     1.003259  p :     3.040608
      px      :     0.991084
      py      :     1.046265
      dz2     :     0.007642  d :     0.036772
      dxz     :     0.009257
      dyz     :     0.005698
      dx2y2   :     0.007846
      dxy     :     0.006329

  7 C s       :     3.219610  s :     3.219610
      pz      :     0.890477  p :     2.725848
      px      :     0.906681
      py      :     0.928690
      dz2     :     0.005031  d :     0.035943
      dxz     :     0.008768
      dyz     :     0.005195
      dx2y2   :     0.008478
      dxy     :     0.008471

  8 C s       :     3.256240  s :     3.256240
      pz      :     0.972419  p :     2.791710
      px      :     0.875545
      py      :     0.943746
      dz2     :     0.006016  d :     0.032729
      dxz     :     0.008205
      dyz     :     0.004926
      dx2y2   :     0.005645
      dxy     :     0.007938

  9 P s       :     5.641446  s :     5.641446
      pz      :     3.341880  p :     8.842099
      px      :     2.756330
      py      :     2.743889
      dz2     :     0.014858  d :     0.181901
      dxz     :     0.034215
      dyz     :     0.039346
      dx2y2   :     0.048517
      dxy     :     0.044964

 10 C s       :     3.081657  s :     3.081657
      pz      :     0.986380  p :     3.019035
      px      :     1.018475
      py      :     1.014180
      dz2     :     0.008421  d :     0.036648
      dxz     :     0.005254
      dyz     :     0.010390
      dx2y2   :     0.006109
      dxy     :     0.006473

 11 C s       :     3.212206  s :     3.212206
      pz      :     0.877461  p :     2.731849
      px      :     0.927938
      py      :     0.926450
      dz2     :     0.006219  d :     0.034868
      dxz     :     0.004379
      dyz     :     0.009242
      dx2y2   :     0.007439
      dxy     :     0.007589

 12 C s       :     3.157928  s :     3.157928
      pz      :     0.943509  p :     2.783029
      px      :     0.979564
      py      :     0.859955
      dz2     :     0.007597  d :     0.035207
      dxz     :     0.005209
      dyz     :     0.009806
      dx2y2   :     0.006922
      dxy     :     0.005674

 13 C s       :     3.157600  s :     3.157600
      pz      :     0.945350  p :     2.782016
      px      :     0.958673
      py      :     0.877992
      dz2     :     0.007810  d :     0.035481
      dxz     :     0.005112
      dyz     :     0.009887
      dx2y2   :     0.006129
      dxy     :     0.006543

 14 C s       :     3.158003  s :     3.158003
      pz      :     0.872898  p :     2.779807
      px      :     0.944322
      py      :     0.962587
      dz2     :     0.006404  d :     0.035203
      dxz     :     0.004383
      dyz     :     0.009261
      dx2y2   :     0.007530
      dxy     :     0.007626

 15 C s       :     3.223896  s :     3.223896
      pz      :     0.930575  p :     2.728207
      px      :     0.969435
      py      :     0.828196
      dz2     :     0.007345  d :     0.035010
      dxz     :     0.005099
      dyz     :     0.010034
      dx2y2   :     0.006700
      dxy     :     0.005832

 16 C s       :     3.082454  s :     3.082454
      pz      :     0.985646  p :     3.017521
      px      :     1.015597
      py      :     1.016279
      dz2     :     0.007411  d :     0.036580
      dxz     :     0.007798
      dyz     :     0.006540
      dx2y2   :     0.006988
      dxy     :     0.007844

 17 C s       :     3.225879  s :     3.225879
      pz      :     0.937296  p :     2.728724
      px      :     0.862203
      py      :     0.929224
      dz2     :     0.006672  d :     0.034989
      dxz     :     0.006892
      dyz     :     0.006621
      dx2y2   :     0.008129
      dxy     :     0.006674

 18 C s       :     3.157739  s :     3.157739
      pz      :     0.897493  p :     2.779933
      px      :     0.939583
      py      :     0.942857
      dz2     :     0.004989  d :     0.035224
      dxz     :     0.007612
      dyz     :     0.005788
      dx2y2   :     0.008384
      dxy     :     0.008451

 19 C s       :     3.157538  s :     3.157538
      pz      :     0.947509  p :     2.782123
      px      :     0.939994
      py      :     0.894620
      dz2     :     0.006545  d :     0.035482
      dxz     :     0.008119
      dyz     :     0.005608
      dx2y2   :     0.006963
      dxy     :     0.008246

 20 C s       :     3.157896  s :     3.157896
      pz      :     0.957589  p :     2.783015
      px      :     0.858038
      py      :     0.967388
      dz2     :     0.006943  d :     0.035229
      dxz     :     0.006752
      dyz     :     0.006676
      dx2y2   :     0.007966
      dxy     :     0.006892

 21 C s       :     3.212226  s :     3.212226
      pz      :     0.896208  p :     2.733280
      px      :     0.932876
      py      :     0.904196
      dz2     :     0.004867  d :     0.034857
      dxz     :     0.007647
      dyz     :     0.005737
      dx2y2   :     0.008064
      dxy     :     0.008542

 22 H s       :     0.963314  s :     0.963314
      pz      :     0.005211  p :     0.022811
      px      :     0.013479
      py      :     0.004121

 23 H s       :     0.968920  s :     0.968920
      pz      :     0.005791  p :     0.022584
      px      :     0.004896
      py      :     0.011898

 24 H s       :     0.949526  s :     0.949526
      pz      :     0.011690  p :     0.022674
      px      :     0.007229
      py      :     0.003754

 25 H s       :     0.968819  s :     0.968819
      pz      :     0.012002  p :     0.022579
      px      :     0.004204
      py      :     0.006373

 26 H s       :     0.949536  s :     0.949536
      pz      :     0.004472  p :     0.022674
      px      :     0.004668
      py      :     0.013533

 27 H s       :     0.963052  s :     0.963052
      pz      :     0.005806  p :     0.022801
      px      :     0.012046
      py      :     0.004949

 28 H s       :     1.025400  s :     1.025400
      pz      :     0.011018  p :     0.023661
      px      :     0.004456
      py      :     0.008187

 29 H s       :     0.990239  s :     0.990239
      pz      :     0.006629  p :     0.023643
      px      :     0.008185
      py      :     0.008829

 30 H s       :     1.001832  s :     1.001832
      pz      :     0.010656  p :     0.023055
      px      :     0.004570
      py      :     0.007828

 31 H s       :     1.022259  s :     1.022259
      pz      :     0.006928  p :     0.023711
      px      :     0.007509
      py      :     0.009274

 32 H s       :     0.996757  s :     0.996757
      pz      :     0.011976  p :     0.023061
      px      :     0.007604
      py      :     0.003481

 33 H s       :     0.998537  s :     0.998537
      pz      :     0.006055  p :     0.022999
      px      :     0.004630
      py      :     0.012314

 34 H s       :     0.999235  s :     0.999235
      pz      :     0.005641  p :     0.022977
      px      :     0.005979
      py      :     0.011357

 35 H s       :     1.000667  s :     1.000667
      pz      :     0.011861  p :     0.022951
      px      :     0.007648
      py      :     0.003442

 36 H s       :     0.984367  s :     0.984367
      pz      :     0.006230  p :     0.023629
      px      :     0.004638
      py      :     0.012761

 37 H s       :     0.982148  s :     0.982148
      pz      :     0.005428  p :     0.023674
      px      :     0.013565
      py      :     0.004681

 38 H s       :     1.001386  s :     1.001386
      pz      :     0.010350  p :     0.022940
      px      :     0.005618
      py      :     0.006972

 39 H s       :     0.999684  s :     0.999684
      pz      :     0.005921  p :     0.022980
      px      :     0.006417
      py      :     0.010642

 40 H s       :     0.998693  s :     0.998693
      pz      :     0.005339  p :     0.023000
      px      :     0.013054
      py      :     0.004607

 41 H s       :     0.997365  s :     0.997365
      pz      :     0.010439  p :     0.023061
      px      :     0.005681
      py      :     0.006941



                     *******************************
                     * LOEWDIN POPULATION ANALYSIS *
                     *******************************

----------------------
LOEWDIN ATOMIC CHARGES
----------------------
   0 C :    0.033557
   1 N :   -0.077557
   2 C :    0.033425
   3 C :    0.030166
   4 C :   -0.064858
   5 C :   -0.020840
   6 C :   -0.208081
   7 C :   -0.017532
   8 C :   -0.064027
   9 P :    0.514590
  10 C :   -0.175605
  11 C :   -0.024507
  12 C :   -0.026492
  13 C :   -0.024226
  14 C :   -0.026113
  15 C :   -0.028760
  16 C :   -0.177723
  17 C :   -0.028880
  18 C :   -0.026369
  19 C :   -0.024781
  20 C :   -0.026496
  21 C :   -0.025422
  22 H :    0.024025
  23 H :    0.011099
  24 H :    0.021813
  25 H :    0.010931
  26 H :    0.021978
  27 H :    0.024090
  28 H :    0.020576
  29 H :    0.026821
  30 H :    0.023621
  31 H :    0.021145
  32 H :    0.023548
  33 H :    0.025458
  34 H :    0.024439
  35 H :    0.024954
  36 H :    0.026993
  37 H :    0.027632
  38 H :    0.024661
  39 H :    0.024246
  40 H :    0.025370
  41 H :    0.023131

-------------------------------
LOEWDIN REDUCED ORBITAL CHARGES
-------------------------------
  0 C s       :     2.831904  s :     2.831904
      pz      :     1.005439  p :     3.033996
      px      :     1.046142
      py      :     0.982415
      dz2     :     0.022258  d :     0.100542
      dxz     :     0.016444
      dyz     :     0.024178
      dx2y2   :     0.027777
      dxy     :     0.009885

  1 N s       :     3.081520  s :     3.081520
[...]
      dx2y2   :     0.021683
      dxy     :     0.023049

 19 C s       :     2.864075  s :     2.864075
      pz      :     1.014963  p :     3.072860
      px      :     1.050387
      py      :     1.007510
      dz2     :     0.013982  d :     0.089939
      dxz     :     0.022272
      dyz     :     0.013402
      dx2y2   :     0.019117
      dxy     :     0.021166

 20 C s       :     2.863328  s :     2.863328
      pz      :     1.022307  p :     3.073768
      px      :     1.027966
      py      :     1.023495
      dz2     :     0.017015  d :     0.090415
      dxz     :     0.017516
      dyz     :     0.017666
      dx2y2   :     0.020173
      dxy     :     0.018045

 21 C s       :     2.866762  s :     2.866762
      pz      :     1.008934  p :     3.072354
      px      :     1.049187
      py      :     1.014233
      dz2     :     0.012217  d :     0.091401
      dxz     :     0.020804
      dyz     :     0.013651
      dx2y2   :     0.020840
      dxy     :     0.023888

 22 H s       :     0.911898  s :     0.911898
      pz      :     0.011013  p :     0.063441
      px      :     0.040031
      py      :     0.012398

 23 H s       :     0.918055  s :     0.918055
      pz      :     0.009888  p :     0.063861
      px      :     0.012462
      py      :     0.041512

 24 H s       :     0.918702  s :     0.918702
      pz      :     0.030339  p :     0.063804
      px      :     0.019101
      py      :     0.014364

 25 H s       :     0.918318  s :     0.918318
      pz      :     0.038246  p :     0.063827
      px      :     0.011121
      py      :     0.014459

 26 H s       :     0.918435  s :     0.918435
      pz      :     0.011600  p :     0.063824
      px      :     0.011982
      py      :     0.040242

 27 H s       :     0.911863  s :     0.911863
      pz      :     0.017510  p :     0.063443
      px      :     0.034242
      py      :     0.011691

 28 H s       :     0.906672  s :     0.906672
      pz      :     0.034477  p :     0.071052
      px      :     0.013434
      py      :     0.023140

 29 H s       :     0.902972  s :     0.902972
      pz      :     0.020220  p :     0.068602
      px      :     0.026475
      py      :     0.021907

 30 H s       :     0.909730  s :     0.909730
      pz      :     0.033695  p :     0.066712
      px      :     0.013048
      py      :     0.019969

 31 H s       :     0.906537  s :     0.906537
      pz      :     0.022163  p :     0.071036
      px      :     0.024645
      py      :     0.024228

 32 H s       :     0.908780  s :     0.908780
      pz      :     0.034495  p :     0.067214
      px      :     0.021950
      py      :     0.010769

 33 H s       :     0.907405  s :     0.907405
      pz      :     0.017426  p :     0.066404
      px      :     0.014116
      py      :     0.034862

 34 H s       :     0.908051  s :     0.908051
      pz      :     0.017212  p :     0.066517
      px      :     0.017049
      py      :     0.032256

 35 H s       :     0.907768  s :     0.907768
      pz      :     0.033677  p :     0.066440
      px      :     0.021762
      py      :     0.011000

 36 H s       :     0.901639  s :     0.901639
      pz      :     0.017544  p :     0.069714
      px      :     0.014169
      py      :     0.038001

 37 H s       :     0.900633  s :     0.900633
      pz      :     0.014071  p :     0.070074
      px      :     0.040914
      py      :     0.015089

 38 H s       :     0.908174  s :     0.908174
      pz      :     0.028330  p :     0.066400
      px      :     0.018357
      py      :     0.019713

 39 H s       :     0.908098  s :     0.908098
      pz      :     0.019538  p :     0.066513
      px      :     0.017778
      py      :     0.029198

 40 H s       :     0.907334  s :     0.907334
      pz      :     0.014133  p :     0.066416
      px      :     0.038189
      py      :     0.014094

 41 H s       :     0.908871  s :     0.908871
      pz      :     0.029071  p :     0.067223
      px      :     0.018190
      py      :     0.019962



                      *****************************
                      * MAYER POPULATION ANALYSIS *
                      *****************************

  NA   - Mulliken gross atomic population
  ZA   - Total nuclear charge
  QA   - Mulliken gross atomic charge
  VA   - Mayer's total valence
  BVA  - Mayer's bonded valence
  FA   - Mayer's free valence

  ATOM       NA         ZA         QA         VA         BVA        FA
  0 C      5.8603     6.0000     0.1397     3.9575     3.9575    -0.0000
  1 N      7.3154     7.0000    -0.3154     3.3195     3.3195    -0.0000
  2 C      5.8615     6.0000     0.1385     3.9578     3.9578    -0.0000
  3 C      5.7820     6.0000     0.2180     3.8035     3.8035    -0.0000
  4 C      6.0643     6.0000    -0.0643     3.8292     3.8292    -0.0000
  5 C      5.9778     6.0000     0.0222     3.8751     3.8751    -0.0000
  6 C      6.1642     6.0000    -0.1642     3.7686     3.7686    -0.0000
  7 C      5.9800     6.0000     0.0200     3.8750     3.8750    -0.0000
  8 C      6.0696     6.0000    -0.0696     3.8471     3.8471    -0.0000
  9 P     14.6443    15.0000     0.3557     2.9310     2.9310    -0.0000
 10 C      6.1580     6.0000    -0.1580     3.8253     3.8253    -0.0000
 11 C      5.9730     6.0000     0.0270     3.8702     3.8702    -0.0000
 12 C      5.9802     6.0000     0.0198     3.8513     3.8513    -0.0000
 13 C      5.9786     6.0000     0.0214     3.8240     3.8240    -0.0000
 14 C      5.9767     6.0000     0.0233     3.8307     3.8307    -0.0000
 15 C      5.9858     6.0000     0.0142     3.8796     3.8796    -0.0000
 16 C      6.1618     6.0000    -0.1618     3.8066     3.8066     0.0000
 17 C      5.9867     6.0000     0.0133     3.8860     3.8860     0.0000
 18 C      5.9741     6.0000     0.0259     3.8265     3.8265    -0.0000
 19 C      5.9785     6.0000     0.0215     3.8233     3.8233    -0.0000
 20 C      5.9805     6.0000     0.0195     3.8527     3.8527    -0.0000
 21 C      5.9796     6.0000     0.0204     3.8724     3.8724    -0.0000
 22 H      0.9848     1.0000     0.0152     0.9930     0.9930    -0.0000
 23 H      0.9789     1.0000     0.0211     0.9828     0.9828    -0.0000
 24 H      0.9802     1.0000     0.0198     0.9826     0.9826     0.0000
 25 H      0.9790     1.0000     0.0210     0.9825     0.9825    -0.0000
 26 H      0.9796     1.0000     0.0204     0.9828     0.9828    -0.0000
 27 H      0.9849     1.0000     0.0151     0.9932     0.9932    -0.0000
 28 H      1.0447     1.0000    -0.0447     0.9925     0.9925    -0.0000
 29 H      1.0116     1.0000    -0.0116     0.9917     0.9917    -0.0000
 30 H      1.0239     1.0000    -0.0239     0.9891     0.9891    -0.0000
 31 H      1.0427     1.0000    -0.0427     0.9926     0.9926    -0.0000
 32 H      1.0185     1.0000    -0.0185     0.9900     0.9900    -0.0000
 33 H      1.0186     1.0000    -0.0186     0.9772     0.9772     0.0000
 34 H      1.0189     1.0000    -0.0189     0.9770     0.9770    -0.0000
 35 H      1.0208     1.0000    -0.0208     0.9771     0.9771    -0.0000
 36 H      1.0012     1.0000    -0.0012     0.9903     0.9903     0.0000
 37 H      1.0013     1.0000    -0.0013     0.9920     0.9920     0.0000
 38 H      1.0218     1.0000    -0.0218     0.9769     0.9769    -0.0000
 39 H      1.0190     1.0000    -0.0190     0.9770     0.9770    -0.0000
 40 H      1.0184     1.0000    -0.0184     0.9772     0.9772     0.0000
 41 H      1.0182     1.0000    -0.0182     0.9895     0.9895    -0.0000

  Mayer bond orders larger than 0.100000
B(  0-C ,  1-N ) :   1.0220 B(  0-C , 22-H ) :   0.9668 B(  0-C , 23-H ) :   0.9597 
B(  0-C , 24-H ) :   0.9599 B(  1-N ,  2-C ) :   1.0217 B(  1-N ,  3-C ) :   1.1524 
B(  2-C , 25-H ) :   0.9599 B(  2-C , 26-H ) :   0.9598 B(  2-C , 27-H ) :   0.9669 
B(  3-C ,  4-C ) :   1.2896 B(  3-C ,  8-C ) :   1.2963 B(  4-C ,  5-C ) :   1.3989 
B(  4-C , 28-H ) :   0.9858 B(  5-C ,  6-C ) :   1.3466 B(  5-C , 29-H ) :   0.9764 
B(  6-C ,  7-C ) :   1.3523 B(  6-C ,  9-P ) :   0.9471 B(  7-C ,  8-C ) :   1.4060 
B(  7-C , 30-H ) :   0.9783 B(  8-C , 31-H ) :   0.9864 B(  9-P , 10-C ) :   0.9281 
B(  9-P , 16-C ) :   0.9146 B( 10-C , 11-C ) :   1.3705 B( 10-C , 15-C ) :   1.3901 
B( 11-C , 12-C ) :   1.4079 B( 11-C , 32-H ) :   0.9808 B( 12-C , 13-C ) :   1.3731 
B( 12-C , 33-H ) :   0.9844 B( 13-C , 14-C ) :   1.3841 B( 13-C , 34-H ) :   0.9842 
B( 14-C , 15-C ) :   1.3803 B( 14-C , 35-H ) :   0.9835 B( 15-C , 36-H ) :   0.9782 
B( 16-C , 17-C ) :   1.3953 B( 16-C , 21-C ) :   1.3662 B( 17-C , 18-C ) :   1.3792 
B( 17-C , 37-H ) :   0.9792 B( 18-C , 19-C ) :   1.3839 B( 18-C , 38-H ) :   0.9831 
B( 19-C , 20-C ) :   1.3730 B( 19-C , 39-H ) :   0.9840 B( 20-C , 21-C ) :   1.4087 
B( 20-C , 40-H ) :   0.9845 B( 21-C , 41-H ) :   0.9814 

-------
TIMINGS
-------

Total SCF time: 0 days 0 hours 0 min 22 sec 

Total time                  ....      22.866 sec
Sum of individual times     ....      22.765 sec  ( 99.6%)

SCF preparation             ....       0.152 sec  (  0.7%)
Fock matrix formation       ....      22.093 sec  ( 96.6%)
  Startup                   ....       0.021 sec  (  0.1% of F)
  Exchange formation        ....      17.570 sec  ( 79.5% of F)
  Split-RI-J                ....       1.696 sec  (  7.7% of F)
  XC integration            ....       2.725 sec  ( 12.3% of F)
    Basis function eval.    ....       0.827 sec  ( 30.3% of XC)
    Density eval.           ....       0.844 sec  ( 31.0% of XC)
    XC-Functional eval.     ....       0.073 sec  (  2.7% of XC)
    XC-Potential eval.      ....       0.614 sec  ( 22.5% of XC)
Diagonalization             ....       0.000 sec  (  0.0%)
Density matrix formation    ....       0.052 sec  (  0.2%)
Total Energy calculation    ....       0.018 sec  (  0.1%)
Population analysis         ....       0.121 sec  (  0.5%)
Orbital Transformation      ....       0.052 sec  (  0.2%)
Orbital Orthonormalization  ....       0.000 sec  (  0.0%)
DIIS solution               ....       0.060 sec  (  0.3%)
SOSCF solution              ....       0.217 sec  (  0.9%)
Finished LeanSCF after  22.9 sec

Maximum memory used throughout the entire LEANSCF-calculation: 44.7 MB


-------------------------------------------------------------------------------
                          DFT DISPERSION CORRECTION                            
                                                                               
                              DFTD3 V3.1  Rev 1                                
                          USING Becke-Johnson damping                          
-------------------------------------------------------------------------------
The B3LYP functional is recognized
Active option DFTDOPT                   ...         4   

molecular C6(AA) [au] = 22478.583002 


            DFT-D V3
 parameters
 s6 scaling factor         :     1.0000 
 a1 scaling factor         :     0.3981 
 s8 scaling factor         :     1.9889 
 a2 scaling factor         :     4.4211 
 ad hoc parameters k1-k3   :    16.0000     1.3333    -4.0000 

 Edisp/kcal,au: -63.543543324949  -0.101263071194 
 E6   /kcal   : -29.156252683 
 E8   /kcal   : -34.387290642 
 % E8         :  54.116105025 

-------------------------   ----------------
Dispersion correction           -0.101263071
-------------------------   ----------------


-------------------------   --------------------
FINAL SINGLE POINT ENERGY     -1169.090669402123
-------------------------   --------------------

                                *** OPTIMIZATION RUN DONE ***



           ************************************************************
           *        Program running with 6 parallel MPI-processes     *
           *              working on a common directory               *
           ************************************************************

------------------------------------------------------------------------------
                              ORCA PROPERTY CALCULATIONS
------------------------------------------------------------------------------

GBWName                                 ... data/geom_opt/3333592/3333592.gbw
Number of atoms                         ...     42
Number of basis functions               ...    412
Max core memory                         ...   1024 MB

Electric properties:
Dipole moment                           ... YES
Quadrupole moment                       ...  NO
Static polarizability (Dipole/Dipole)   ...  NO
Static polarizability (Dipole/Quad.)    ...  NO
Static polarizability (Quad./Quad.)     ...  NO
Static polarizability (Velocity)        ...  NO

Atomic electric properties:
Dipole moment                           ...  NO
Quadrupole moment                       ...  NO
Static polarizability                   ...  NO

Choice of electric origin               ... Center of mass
Position of electric origin             ...    -0.730737    -0.017484    -0.571790

General magnetic properties:
Magnetizability                         ...  NO

EPR properties:
g-Tensor (aka g-matrix)                 ...  NO
Zero-Field splitting spin-orbit         ...  NO
Zero-field splitting spin-spin          ...  NO
Hyperfine couplings                     ...  NO (   0 nuclei)
Quadrupole couplings                    ...  NO (   0 nuclei)
Contact density                         ...  NO (   0 nuclei)

NMR properties:
Chemical shifts                         ...  NO (   0 nuclei)
Spin-rotation constants                 ...  NO (   0 nuclei)
Spin-spin couplings                     ...  NO (   0 nuclei,    0 pairs)

Choice of magnetic origin               ... GIAO
Position of magnetic origin             ...     0.000000     0.000000     0.000000

Properties with geometric perturbations:
SCF Hessian                             ...  NO
IR spectrum                             ...  NO
VCD spectrum                            ...  NO
X-ray spectroscopy properties:
SCF XES/XAS/RIXS spectra                ...  NO


-------------
DIPOLE MOMENT
-------------

Method             : SCF
Type of density    : Electron Density
Multiplicity       :   1
Irrep              :   0
Energy             : -1168.9894063309288867 Eh
Relativity type    : 
Basis              : AO
                                X                 Y                 Z
Electronic contribution:    -15.537468196      -0.426000206      -8.316022650
Nuclear contribution   :     16.746478002       0.445623340       9.103906979
                        -----------------------------------------
Total Dipole Moment    :      1.209009806       0.019623134       0.787884329
                        -----------------------------------------
Magnitude (a.u.)       :      1.443208749
Magnitude (Debye)      :      3.668345112



--------------------
Rotational spectrum 
--------------------
 
Rotational constants in cm-1:             0.011206             0.005821             0.004437 
Rotational constants in MHz :           335.936987           174.500684           133.023780 

Dipole components along the rotational axes: 
x,y,z [a.u.] :     1.240741     0.020782     0.736872 
x,y,z [Debye]:     3.153713     0.052824     1.872981 

 

Dipole moment calculation done in   0.0 sec 

Maximum memory used throughout the entire PROP-calculation: 22.9 MB

--------------------------------
SUGGESTED CITATIONS FOR THIS RUN
--------------------------------

Below you find a list of papers that are relevant to this ORCA run
We neither can nor want to force you to cite these papers, but we appreciate if you do
You receive ORCA, which is the product of decades of hard work by many enthusiastic individuals, for free
The only thing we kindly ask in return is that you cite our papers,
We deeply appreciate it, if you show your appreciation for ORCA by not just citing the generic ORCA reference.

Please note that relegating all ORCA citations to the supporting information does *not* help us.
SI sections are not indexed - citations you put there will not count into any citation statistics
But we need these citations in order to attract the funding resources that allow us to do what we are doing

Therefore, if you are a happy ORCA user, please consider citing a few of the papers listed below in the main body of your paper

In addition to the list printed below, the program has created the file data/geom_opt/3333592/3333592.bibtex that contains the list in bibtex format
You can import this file easily into all common literature databanks and citation aid programs


List of essential papers. We consider these as the minimum necessary citations

  1. Neese,F.
     Software update: the ORCA program system, version 5.0
     WIRES Comput. Molec. Sci., 2022 12(1)e1606
     doi.org/10.1002/wcms.1606

List of papers to cite with high priority. The work reported in these papers was absolutely
necessary for this run to complete.
Our perspective: the developers of density functionals and basis sets usually get cited in chemistry papers
Good! But without the algorithms to do something with them, the functionals or basis sets would not do anything.
Hence, in our opinion, the algorithm design and method developments papers are equally worthy of getting cited

  1. Neese,F.
     An improvement of the resolution of the identity approximation for the formation of the Coulomb matrix
     J. Comp. Chem., 2003 24(14)1740-1747
     doi.org/10.1002/jcc.10318
  2. Neese,F.
     The SHARK Integral Generation and Digestion System
     J. Comp. Chem., 2022  1-16
     doi.org/10.1002/jcc.26942
  3. Grimme,S.; Antony,J.; Ehrlich,S.; Krieg,H.
     A consistent and accurate ab initio parametrization of density functional dispersion correction (DFT-D) for the 94 elements H-Pu
     J. Chem. Phys., 2010 132 154104-XXXX
     doi.org/10.1063/1.3382344
  4. Grimme,S.; Ehrlich,S.; Goerigk,L.
     Effect of the damping function in dispersion corrected density functional theory
     J. Comput. Chem., 2011 32(7)1456-1465
     doi.org/10.1002/jcc.21759

List of suggested additional citations. These are papers that are important in the 'surrounding' of 
of this run, or papers that preceded the highly important papers. If you like your results we are grateful for a citation.

  1. Neese,F.
     The ORCA program system
     WIRES Comput. Molec. Sci., 2012 2(1)73-78
     doi.org/10.1002/wcms.81
  2. Neese,F.
     Software update: the ORCA program system, version 4.0
     WIRES Comput. Molec. Sci., 2018 8(1)1-6
     doi.org/10.1002/wcms.1327
  3. Neese,F.; Wennmohs,F.; Becker,U.; Riplinger,C.
     The ORCA quantum chemistry program package
     J. Chem. Phys., 2020 152 Art. No. L224108
     doi.org/10.1063/5.0004608

List of optional additional citations

  1. Neese,F.
     Approximate second-order SCF convergence for spin unrestricted wavefunctions
     Chem. Phys. Lett., 2000 325(1-3)93-98
     doi.org/10.1016/s0009-2614(00)00662-x

Timings for individual modules:

Sum of individual times          ...      911.015 sec (=  15.184 min)
Startup calculation              ...       22.848 sec (=   0.381 min)   2.5 %
SCF iterations                   ...      584.771 sec (=   9.746 min)  64.2 %
Property calculations            ...        0.220 sec (=   0.004 min)   0.0 %
SCF Gradient evaluation          ...      302.867 sec (=   5.048 min)  33.2 %
Geometry relaxation              ...        0.309 sec (=   0.005 min)   0.0 %
                             ****ORCA TERMINATED NORMALLY****
TOTAL RUN TIME: 0 days 0 hours 15 minutes 13 seconds 940 msec
