
                                 *****************
                                 * O   R   C   A *
                                 *****************

                                            #,                                       
                                            ###                                      
                                            ####                                     
                                            #####                                    
                                            ######                                   
                                           ########,                                 
                                     ,,################,,,,,                         
                               ,,#################################,,                 
                          ,,##########################################,,             
                       ,#########################################, ''#####,          
                    ,#############################################,,   '####,        
                  ,##################################################,,,,####,       
                ,###########''''           ''''###############################       
              ,#####''   ,,,,##########,,,,          '''####'''          '####       
            ,##' ,,,,###########################,,,                        '##       
           ' ,,###''''                  '''############,,,                           
         ,,##''                                '''############,,,,        ,,,,,,###''
      ,#''                                            '''#######################'''  
     '                                                          ''''####''''         
             ,#######,   #######,   ,#######,      ##                                
            ,#'     '#,  ##    ##  ,#'     '#,    #''#        ,####,   ,####,        
            ##       ##  ##   ,#'  ##            #'  '#       #'       #'  '#        
            ##       ##  #######   ##           ,######,      #####,   #    #        
            '#,     ,#'  ##    ##  '#,     ,#' ,#      #,     #,   #   #,  ,#        
             '#######'   ##     ##  '#######'  #'      '#     '####' # '####'        



                #########################################################
                #                        -***-                          #
                #          Department of theory and spectroscopy        #
                #                                                       #
                #                      Frank Neese                      #
                #                                                       #
                #     Directorship, Architecture, Infrastructure        #
                #                    SHARK, DRIVERS                     #
                #        Core code/Algorithms in most modules           #
                #                                                       #
                #        Max Planck Institute fuer Kohlenforschung      #
                #                Kaiser Wilhelm Platz 1                 #
                #                 D-45470 Muelheim/Ruhr                 #
                #                      Germany                          #
                #                                                       #
                #                  All rights reserved                  #
                #                        -***-                          #
                #########################################################


                         Program Version 6.0.0  -   RELEASE   -


 With contributions from (in alphabetic order):
   Daniel Aravena         : Magnetic Suceptibility
   Michael Atanasov       : Ab Initio Ligand Field Theory (pilot matlab implementation)
   Alexander A. Auer      : GIAO ZORA, VPT2 properties, NMR spectrum
   Ute Becker             : All parallelization in ORCA, NUMFREQ, NUMCALC
   Giovanni Bistoni       : ED, misc. LED, open-shell LED, HFLD
   Martin Brehm           : Molecular dynamics
   Dmytro Bykov           : pre 5.0 version of the SCF Hessian
   Marcos Casanova-Páez   : Triplet and SCS-CIS(D). UHF-(DLPNO)-IP/EA/STEOM-CCSD. UHF-CVS-IP/STEOM-CCSD
   Vijay G. Chilkuri      : MRCI spin determinant printing, contributions to CSF-ICE
   Pauline Colinet        : FMM embedding
   Dipayan Datta          : RHF DLPNO-CCSD density
   Achintya Kumar Dutta   : EOM-CC, STEOM-CC
   Nicolas Foglia         : Exact transition moments, OPA infrastructure, MCD improvements
   Dmitry Ganyushin       : Spin-Orbit,Spin-Spin,Magnetic field MRCI
   Miquel Garcia          : C-PCM and meta-GGA Hessian, CCSD/C-PCM, Gaussian charge scheme
   Tiago L. C. Gouveia    : GS-ROHF, GS-ROCIS
   Yang Guo               : DLPNO-NEVPT2, F12-NEVPT2, CIM, IAO-localization
   Andreas Hansen         : Spin unrestricted coupled pair/coupled cluster methods
   Ingolf Harden          : AUTO-CI MPn and infrastructure 
   Benjamin Helmich-Paris : MC-RPA, TRAH-(SCF,CASSCF), AVAS, COSX integrals, SCF dyn. polar.
   Lee Huntington         : MR-EOM, pCC
   Robert Izsak           : Overlap fitted RIJCOSX, COSX-SCS-MP3, EOM
   Riya Kayal             : Wick's Theorem for AUTO-CI, AUTO-CI UHF-CCSDT
   Emily Kempfer          : AUTO-CI, RHF CISDT and CCSDT
   Christian Kollmar      : KDIIS, OOCD, Brueckner-CCSD(T), CCSD density, CASPT2, CASPT2-K, improved NEVPT2
   Axel Koslowski         : Symmetry handling
   Simone Kossmann        : Meta GGA functionals, TD-DFT gradient, OOMP2, (MP2 Hessian; deprecated post 5.0)
   Lucas Lang             : DCDCAS
   Marvin Lechner         : AUTO-CI (C++ implementation), FIC-MRCC
   Spencer Leger          : CASSCF response
   Dagmar Lenk            : GEPOL surface, SMD, ORCA-2-JSON
   Dimitrios Liakos       : Extrapolation schemes; Compound Job, initial MDCI parallelization
   Dimitrios Manganas     : Further ROCIS development; embedding schemes. LFT, Crystal Embedding
   Dimitrios Pantazis     : SARC Basis sets
   Anastasios Papadopoulos: AUTO-CI, single reference methods and gradients
   Taras Petrenko         : pre 6.0 DFT Hessian and TD-DFT gradient, (ASA, deprecated), ECA, 1-Electron XAS/XES, NRVS
   Peter Pinski           : DLPNO-MP2, DLPNO-MP2 Gradient
   Christoph Reimann      : Effective Core Potentials
   Marius Retegan         : Local ZFS, SOC
   Christoph Riplinger    : Optimizer, TS searches, QM/MM, DLPNO-CCSD(T), (RO)-DLPNO pert. Triples
   Michael Roemelt        : Original ROCIS implementation
   Masaaki Saitow         : Open-shell DLPNO-CCSD energy and density
   Barbara Sandhoefer     : DKH picture change effects
   Kantharuban Sivalingam : CASSCF convergence/infrastructure, NEVPT2 and variants, FIC-MRCI
   Bernardo de Souza      : ESD, SOC TD-DFT
   Georgi Stoychev        : AutoAux, RI-MP2 NMR, DLPNO-MP2 response, X2C
   Van Anh Tran           : RI-MP2 g-tensors
   Willem Van den Heuvel  : Paramagnetic NMR
   Zikuan Wang            : NOTCH, Electric field optimization 
   Frank Wennmohs         : Technical directorship and infrastructure
   Hang Xu                : AUTO-CI-Response properties 


 We gratefully acknowledge several colleagues who have allowed us to
 interface, adapt or use parts of their codes:
   Stefan Grimme, W. Hujo, H. Kruse, P. Pracht,  : VdW corrections, initial TS optimization,
                  C. Bannwarth, S. Ehlert,         DFT functionals, gCP, sTDA/sTD-DF
                  L. Wittmann, M. Mueller
   Ed Valeev, F. Pavosevic, A. Kumar             : LibInt (2-el integral package), F12 methods
   Garnet Chan, S. Sharma, J. Yang, R. Olivares  : DMRG
   Ulf Ekstrom                                   : XCFun DFT Library
   Mihaly Kallay                                 : mrcc  (arbitrary order and MRCC methods)
   Frank Weinhold                                : gennbo (NPA and NBO analysis)
   Simon Mueller                                 : openCOSMO-RS
   Christopher J. Cramer and Donald G. Truhlar   : smd solvation model
   Lars Goerigk                                  : TD-DFT with DH, B97 family of functionals
   V. Asgeirsson, H. Jonsson                     : NEB implementation
   FAccTs GmbH                                   : IRC, NEB, NEB-TS, DLPNO-Multilevel, CI-OPT
                                                   MM, QMMM, 2- and 3-layer-ONIOM, Crystal-QMMM,
                                                   LR-CPCM, SF, NACMEs, symmetry and pop. for TD-DFT,
                                                   nearIR, NL-DFT gradient (VV10), updates on ESD,
                                                   ML-optimized integration grids, MBIS, APM,
                                                   GOAT, DOCKER, SOLVATOR, interface openCOSMO-RS
   S Lehtola, MJT Oliveira, MAL Marques          : LibXC Library
   Liviu Ungur et al                             : ANISO software


 Your calculation uses the libint2 library for the computation of 2-el integrals
 For citations please refer to: http://libint.valeyev.net

 Your ORCA version has been built with support for libXC version: 6.2.2
 For citations please refer to: https://libxc.gitlab.io

 This ORCA versions uses:
   CBLAS   interface :  Fast vector & matrix operations
   LAPACKE interface :  Fast linear algebra routines
   Shared memory     :  Shared parallel matrices


Your calculation utilizes the atom-pairwise dispersion correction
with the Becke-Johnson damping scheme (D3BJ)


Warning: RI is on but no J-basis has been assigned. Assigning Def2/J (nothing to worry about!)
================================================================================

----- Orbital basis set information -----
Your calculation utilizes the basis: def2-SVP
   F. Weigend and R. Ahlrichs, Phys. Chem. Chem. Phys. 7, 3297 (2005).

----- AuxJ basis set information -----
Your calculation utilizes the auxiliary basis: def2/J
   F. Weigend, Phys. Chem. Chem. Phys. 8, 1057 (2006).

================================================================================
                                        WARNINGS
                       Please study these warnings very carefully!
================================================================================


WARNING: Geometry Optimization
  ===> : Switching off AutoStart
         For restart on a previous wavefunction, please use MOREAD

================================================================================
                                       INPUT FILE
================================================================================
NAME = data/geom_opt/292611/292611.inp
|  1> ! RIJONX B3LYP def2-SVP D3BJ TIGHTSCF Opt
|  2> %pal
|  3> nprocs 6
|  4> end
|  5> 
|  6> * xyz 0 1
|  7> C      4.126202   -0.857016   -0.367542
|  8> C      2.793394   -0.367339   -0.914098
|  9> C      1.626420   -1.148142   -0.310123
| 10> P     -0.005576   -0.618089   -1.003922
| 11> C     -1.126551   -1.670276    0.026631
| 12> C     -2.602830   -1.390797   -0.254012
| 13> C     -3.502469   -2.303884    0.565626
| 14> C     -0.228930    1.032516   -0.270599
| 15> C     -0.536256    2.101792   -1.125069
| 16> C     -0.719604    3.392669   -0.622461
| 17> C     -0.598013    3.632456    0.743312
| 18> C     -0.293381    2.582099    1.605104
| 19> C     -0.110128    1.290954    1.101295
| 20> H      4.949443   -0.288010   -0.810782
| 21> H      4.280932   -1.915394   -0.600370
| 22> H      4.173751   -0.732729    0.719039
| 23> H      2.797724   -0.471413   -2.006180
| 24> H      2.696260    0.702983   -0.696522
| 25> H      1.635600   -1.055302    0.781070
| 26> H      1.752287   -2.213657   -0.536301
| 27> H     -0.914331   -1.538927    1.092988
| 28> H     -0.908283   -2.718266   -0.210849
| 29> H     -2.823402   -1.537528   -1.318583
| 30> H     -2.850783   -0.349080   -0.017987
| 31> H     -3.337325   -2.157292    1.637822
| 32> H     -3.314390   -3.355937    0.328720
| 33> H     -4.554470   -2.090541    0.351772
| 34> H     -0.636521    1.939362   -2.196550
| 35> H     -0.957196    4.208294   -1.300136
| 36> H     -0.740405    4.635928    1.135124
| 37> H     -0.197700    2.765742    2.672024
| 38> H      0.126528    0.494824    1.801561
| 39> **                         ****END OF INPUT****
================================================================================

                       *****************************
                       * Geometry Optimization Run *
                       *****************************

Geometry optimization settings:
Update method            Update   .... BFGS
Choice of coordinates    CoordSys .... (2022) Redundant Internals
Initial Hessian          InHess   .... Almloef's Model
Max. no of cycles        MaxIter  .... 96

Convergence Tolerances:
Energy Change            TolE     ....  5.0000e-06 Eh
Max. Gradient            TolMAXG  ....  3.0000e-04 Eh/bohr
RMS Gradient             TolRMSG  ....  1.0000e-04 Eh/bohr
Max. Displacement        TolMAXD  ....  4.0000e-03 bohr
RMS Displacement         TolRMSD  ....  2.0000e-03 bohr
Strict Convergence                .... False

------------------------------------------------------------------------------
                        ORCA OPTIMIZATION COORDINATE SETUP
------------------------------------------------------------------------------

The optimization will be done in redundant internal coordinates (2022)
Making redundant internal coordinates   ...  (2022 redundants) done
Evaluating the initial hessian          ...  (Almloef) done
Evaluating the coordinates              ...  done
Calculating the B-matrix                .... done
Calculating the G-matrix                .... done
Diagonalizing the G-matrix              .... done
Small eigenvalue found = 6.916e-03
Small eigenvalue found = 7.456e-03
Small eigenvalue found = 1.435e-02
Small eigenvalue found = 2.450e-02
The first mode is                       ....   61
The number of degrees of freedom        ....   90

    -----------------------------------------------------------------
                    Redundant Internal Coordinates


    -----------------------------------------------------------------
         Definition                    Initial Value    Approx d2E/dq
    -----------------------------------------------------------------
      1. B(C   1,C   0)                  1.5215         0.385460   
      2. B(C   2,C   1)                  1.5285         0.375659   
      3. B(P   3,C   2)                  1.8509         0.386315   
      4. B(C   4,P   3)                  1.8509         0.386316   
      5. B(C   5,C   4)                  1.5285         0.375659   
      6. B(C   6,C   5)                  1.5215         0.385460   
      7. B(C   7,P   3)                  1.8199         0.432819   
      8. B(C   8,C   7)                  1.4028         0.596041   
      9. B(C   9,C   8)                  1.3974         0.608146   
     10. B(C  10,C   9)                  1.3920         0.620260   
     11. B(C  11,C  10)                  1.3924         0.619346   
     12. B(C  12,C  11)                  1.3980         0.606656   
     13. B(C  12,C   7)                  1.4011         0.599897   
     14. B(H  13,C   0)                  1.0945         0.354181   
     15. B(H  14,C   0)                  1.0947         0.353968   
     16. B(H  15,C   0)                  1.0947         0.353937   
     17. B(H  16,C   1)                  1.0970         0.350908   
     18. B(H  17,C   1)                  1.0965         0.351573   
     19. B(H  18,C   2)                  1.0952         0.353320   
     20. B(H  19,C   2)                  1.0965         0.351598   
     21. B(H  20,C   4)                  1.0952         0.353319   
     22. B(H  21,C   4)                  1.0965         0.351598   
     23. B(H  22,C   5)                  1.0970         0.350908   
     24. B(H  23,C   5)                  1.0965         0.351573   
     25. B(H  24,C   6)                  1.0947         0.353937   
     26. B(H  25,C   6)                  1.0947         0.353968   
     27. B(H  26,C   6)                  1.0945         0.354181   
     28. B(H  27,C   8)                  1.0884         0.362288   
     29. B(H  28,C   9)                  1.0867         0.364479   
     30. B(H  29,C  10)                  1.0866         0.364596   
     31. B(H  30,C  11)                  1.0868         0.364319   
     32. B(H  31,C  12)                  1.0864         0.364933   
     33. A(C   1,C   0,H  15)          110.9819         0.325069   
     34. A(H  14,C   0,H  15)          108.3454         0.289272   
     35. A(H  13,C   0,H  14)          108.0704         0.289304   
     36. A(C   1,C   0,H  14)          111.0135         0.325073   
     37. A(H  13,C   0,H  15)          108.0754         0.289300   
     38. A(C   1,C   0,H  13)          110.2485         0.325106   
     39. A(H  16,C   1,H  17)          106.8866         0.288576   
     40. A(C   0,C   1,C   2)          111.2510         0.365651   
     41. A(C   0,C   1,H  17)          108.6915         0.324711   
     42. A(C   2,C   1,H  16)          110.3597         0.323240   
     43. A(C   2,C   1,H  17)          110.6458         0.323341   
     44. A(C   0,C   1,H  16)          108.8817         0.324610   
     45. A(P   3,C   2,H  19)          107.5886         0.344870   
     46. A(C   1,C   2,H  19)          109.1019         0.323345   
     47. A(C   1,C   2,P   3)          112.2584         0.389307   
     48. A(H  18,C   2,H  19)          106.6746         0.288889   
     49. A(P   3,C   2,H  18)          110.8916         0.345153   
     50. A(C   1,C   2,H  18)          110.1211         0.323604   
     51. A(C   2,P   3,C   4)           99.3526         0.416891   
     52. A(C   4,P   3,C   7)          102.5274         0.425436   
     53. A(C   2,P   3,C   7)          102.5274         0.425436   
     54. A(C   5,C   4,H  21)          109.1020         0.323345   
     55. A(H  20,C   4,H  21)          106.6746         0.288889   
     56. A(P   3,C   4,C   5)          112.2584         0.389307   
     57. A(P   3,C   4,H  21)          107.5887         0.344870   
     58. A(C   5,C   4,H  20)          110.1211         0.323604   
     59. A(P   3,C   4,H  20)          110.8916         0.345153   
     60. A(C   4,C   5,C   6)          111.2509         0.365651   
     61. A(H  22,C   5,H  23)          106.8867         0.288576   
     62. A(C   6,C   5,H  23)          108.6915         0.324711   
     63. A(C   4,C   5,H  23)          110.6458         0.323341   
     64. A(C   6,C   5,H  22)          108.8816         0.324610   
     65. A(C   4,C   5,H  22)          110.3597         0.323240   
     66. A(H  25,C   6,H  26)          108.0704         0.289304   
     67. A(H  24,C   6,H  26)          108.0754         0.289300   
     68. A(C   5,C   6,H  26)          110.2485         0.325106   
     69. A(H  24,C   6,H  25)          108.3455         0.289272   
     70. A(C   5,C   6,H  25)          111.0135         0.325073   
     71. A(C   5,C   6,H  24)          110.9819         0.325069   
     72. A(C   8,C   7,C  12)          118.3203         0.428460   
     73. A(P   3,C   7,C  12)          123.4658         0.431570   
     74. A(P   3,C   7,C   8)          118.2140         0.431070   
     75. A(C   9,C   8,H  27)          118.6785         0.352119   
     76. A(C   7,C   8,H  27)          120.4037         0.350924   
     77. A(C   7,C   8,C   9)          120.9178         0.429511   
     78. A(C  10,C   9,H  28)          120.1104         0.353657   
     79. A(C   8,C   9,H  28)          119.8507         0.352478   
     80. A(C   8,C   9,C  10)          120.0389         0.432594   
     81. A(C  11,C  10,H  29)          120.1410         0.353588   
     82. A(C   9,C  10,H  29)          120.0942         0.353676   
     83. A(C   9,C  10,C  11)          119.7648         0.434016   
     84. A(C  10,C  11,C  12)          120.1537         0.432289   
     85. A(C  12,C  11,H  30)          119.8866         0.352306   
     86. A(C  10,C  11,H  30)          119.9597         0.353542   
     87. A(C   7,C  12,C  11)          120.8045         0.429819   
     88. A(C  11,C  12,H  31)          118.2339         0.352406   
     89. A(C   7,C  12,H  31)          120.9616         0.351739   
     90. D(H  16,C   1,C   0,H  13)     58.1240         0.011825   
     91. D(H  16,C   1,C   0,H  15)    177.8374         0.011825   
     92. D(H  16,C   1,C   0,H  14)    -61.6034         0.011825   
     93. D(C   2,C   1,C   0,H  14)     60.2357         0.011825   
     94. D(C   2,C   1,C   0,H  15)    -60.3235         0.011825   
     95. D(C   2,C   1,C   0,H  13)    179.9632         0.011825   
     96. D(H  18,C   2,C   1,H  17)    -62.8467         0.011261   
     97. D(H  18,C   2,C   1,C   0)     58.0829         0.011261   
     98. D(P   3,C   2,C   1,H  17)     61.2302         0.011261   
     99. D(P   3,C   2,C   1,C   0)   -177.8401         0.011261   
    100. D(P   3,C   2,C   1,H  16)    -56.8640         0.011261   
    101. D(H  18,C   2,C   1,H  16)    179.0591         0.011261   
    102. D(C   4,P   3,C   2,H  19)     63.6723         0.003516   
    103. D(C   4,P   3,C   2,H  18)    -52.6351         0.003516   
    104. D(C   4,P   3,C   2,C   1)   -176.2825         0.003516   
    105. D(C   7,P   3,C   2,H  18)     52.5410         0.003516   
    106. D(C   7,P   3,C   2,C   1)    -71.1064         0.003516   
    107. D(H  21,C   4,P   3,C   2)    -63.6723         0.003516   
    108. D(H  20,C   4,P   3,C   7)    -52.5410         0.003516   
    109. D(H  20,C   4,P   3,C   2)     52.6351         0.003516   
    110. D(C   5,C   4,P   3,C   7)     71.1064         0.003516   
    111. D(C   5,C   4,P   3,C   2)    176.2825         0.003516   
    112. D(H  22,C   5,C   4,H  21)    -62.2978         0.011261   
    113. D(H  22,C   5,C   4,H  20)   -179.0590         0.011261   
    114. D(H  22,C   5,C   4,P   3)     56.8641         0.011261   
    115. D(C   6,C   5,C   4,H  21)     58.6783         0.011261   
    116. D(C   6,C   5,C   4,H  20)    -58.0829         0.011261   
    117. D(C   6,C   5,C   4,P   3)    177.8402         0.011261   
    118. D(H  24,C   6,C   5,H  22)   -177.8373         0.011825   
    119. D(H  24,C   6,C   5,C   4)     60.3236         0.011825   
    120. D(H  24,C   6,C   5,H  23)    -61.7460         0.011825   
    121. D(H  25,C   6,C   5,H  23)    177.6948         0.011825   
    122. D(H  25,C   6,C   5,H  22)     61.6034         0.011825   
    123. D(H  25,C   6,C   5,C   4)    -60.2357         0.011825   
    124. D(C  12,C   7,P   3,C   4)     51.3518         0.003834   
    125. D(C  12,C   7,P   3,C   2)    -51.3516         0.003834   
    126. D(C   8,C   7,P   3,C   4)   -128.6481         0.003834   
    127. D(C   8,C   7,P   3,C   2)    128.6484         0.003834   
    128. D(H  27,C   8,C   7,C  12)   -179.9999         0.024474   
    129. D(H  27,C   8,C   7,P   3)      0.0001         0.024474   
    130. D(C   9,C   8,C   7,C  12)      0.0001         0.024474   
    131. D(C   9,C   8,C   7,P   3)   -179.9999         0.024474   
    132. D(H  28,C   9,C   8,H  27)      0.0000         0.025534   
    133. D(H  28,C   9,C   8,C   7)   -180.0000         0.025534   
    134. D(C  10,C   9,C   8,H  27)    179.9999         0.025534   
    135. D(C  10,C   9,C   8,C   7)     -0.0001         0.025534   
    136. D(H  29,C  10,C   9,H  28)     -0.0001         0.026623   
    137. D(H  29,C  10,C   9,C   8)   -180.0000         0.026623   
    138. D(C  11,C  10,C   9,H  28)    179.9999         0.026623   
    139. D(C  11,C  10,C   9,C   8)     -0.0000         0.026623   
    140. D(H  30,C  11,C  10,H  29)      0.0000         0.026540   
    141. D(H  30,C  11,C  10,C   9)   -179.9999         0.026540   
    142. D(C  12,C  11,C  10,H  29)   -180.0000         0.026540   
    143. D(C  12,C  11,C  10,C   9)      0.0001         0.026540   
    144. D(H  31,C  12,C  11,H  30)     -0.0000         0.025402   
    145. D(H  31,C  12,C  11,C  10)   -180.0000         0.025402   
    146. D(C   7,C  12,C  11,H  30)    180.0000         0.025402   
    147. D(C   7,C  12,C  11,C  10)     -0.0000         0.025402   
    148. D(H  31,C  12,C   7,C   8)    179.9999         0.024809   
    149. D(H  31,C  12,C   7,P   3)     -0.0001         0.024809   
    150. D(C  11,C  12,C   7,C   8)     -0.0000         0.024809   
    151. D(C  11,C  12,C   7,P   3)    180.0000         0.024809   
    -----------------------------------------------------------------

Number of atoms                         .... 32
Number of degrees of freedom            .... 151


         *************************************************************
         *                GEOMETRY OPTIMIZATION CYCLE   1            *
         *************************************************************
---------------------------------
CARTESIAN COORDINATES (ANGSTROEM)
---------------------------------
  C      4.126202   -0.857016   -0.367542
  C      2.793394   -0.367339   -0.914098
  C      1.626420   -1.148142   -0.310123
  P     -0.005576   -0.618089   -1.003922
  C     -1.126551   -1.670276    0.026631
  C     -2.602830   -1.390797   -0.254012
  C     -3.502469   -2.303884    0.565626
  C     -0.228930    1.032516   -0.270599
  C     -0.536256    2.101792   -1.125069
  C     -0.719604    3.392669   -0.622461
  C     -0.598013    3.632456    0.743312
  C     -0.293381    2.582099    1.605104
  C     -0.110128    1.290954    1.101295
  H      4.949443   -0.288010   -0.810782
  H      4.280932   -1.915394   -0.600370
  H      4.173751   -0.732729    0.719039
  H      2.797724   -0.471413   -2.006180
  H      2.696260    0.702983   -0.696522
  H      1.635600   -1.055302    0.781070
  H      1.752287   -2.213657   -0.536301
  H     -0.914331   -1.538927    1.092988
  H     -0.908283   -2.718266   -0.210849
  H     -2.823402   -1.537528   -1.318583
  H     -2.850783   -0.349080   -0.017987
  H     -3.337325   -2.157292    1.637822
  H     -3.314390   -3.355937    0.328720
  H     -4.554470   -2.090541    0.351772
  H     -0.636521    1.939362   -2.196550
  H     -0.957196    4.208294   -1.300136
  H     -0.740405    4.635928    1.135124
  H     -0.197700    2.765742    2.672024
  H      0.126528    0.494824    1.801561

----------------------------
CARTESIAN COORDINATES (A.U.)
----------------------------
  NO LB      ZA    FRAG     MASS         X           Y           Z
   0 C     6.0000    0    12.011    7.797392   -1.619526   -0.694554
   1 C     6.0000    0    12.011    5.278750   -0.694170   -1.727395
   2 C     6.0000    0    12.011    3.073488   -2.169674   -0.586048
   3 P    15.0000    0    30.974   -0.010537   -1.168019   -1.897138
   4 C     6.0000    0    12.011   -2.128873   -3.156364    0.050325
   5 C     6.0000    0    12.011   -4.918636   -2.628225   -0.480013
   6 C     6.0000    0    12.011   -6.618707   -4.353710    1.068878
   7 C     6.0000    0    12.011   -0.432615    1.951172   -0.511358
   8 C     6.0000    0    12.011   -1.013377    3.971811   -2.126072
   9 C     6.0000    0    12.011   -1.359854    6.411215   -1.176281
  10 C     6.0000    0    12.011   -1.130081    6.864347    1.404656
  11 C     6.0000    0    12.011   -0.554410    4.879460    3.033207
  12 C     6.0000    0    12.011   -0.208112    2.439550    2.081146
  13 H     1.0000    0     1.008    9.353092   -0.544260   -1.532156
  14 H     1.0000    0     1.008    8.089789   -3.619570   -1.134535
  15 H     1.0000    0     1.008    7.887246   -1.384657    1.358787
  16 H     1.0000    0     1.008    5.286932   -0.890841   -3.791131
  17 H     1.0000    0     1.008    5.095193    1.328445   -1.316236
  18 H     1.0000    0     1.008    3.090836   -1.994232    1.476008
  19 H     1.0000    0     1.008    3.311343   -4.183205   -1.013462
  20 H     1.0000    0     1.008   -1.727835   -2.908151    2.065448
  21 H     1.0000    0     1.008   -1.716406   -5.136778   -0.398447
  22 H     1.0000    0     1.008   -5.335457   -2.905507   -2.491761
  23 H     1.0000    0     1.008   -5.387199   -0.659666   -0.033991
  24 H     1.0000    0     1.008   -6.306630   -4.076691    3.095035
  25 H     1.0000    0     1.008   -6.263289   -6.341802    0.621191
  26 H     1.0000    0     1.008   -8.606701   -3.950550    0.664753
  27 H     1.0000    0     1.008   -1.202850    3.664863   -4.150878
  28 H     1.0000    0     1.008   -1.808838    7.952523   -2.456901
  29 H     1.0000    0     1.008   -1.399163    8.760634    2.145073
  30 H     1.0000    0     1.008   -0.373599    5.226495    5.049394
  31 H     1.0000    0     1.008    0.239103    0.935082    3.404457

--------------------------------
INTERNAL COORDINATES (ANGSTROEM)
--------------------------------
 C      0   0   0     0.000000000000     0.00000000     0.00000000
 C      1   0   0     1.521474347575     0.00000000     0.00000000
 C      2   1   0     1.528485342458   111.25096813     0.00000000
 P      3   2   1     1.850871194661   112.25841549   182.15985639
 C      4   3   2     1.850870584185    99.35263178   183.71747351
 C      5   4   3     1.528485750909   112.25836267   176.28253349
 C      6   5   4     1.521474498943   111.25093358   177.84016780
 C      4   3   2     1.819930355170   102.52743737   288.89357380
 C      8   4   3     1.402825511371   118.21398255   128.64839090
 C      9   8   4     1.397352754281   120.91780906   180.00006570
 C     10   9   8     1.391983499967   120.03893627     0.00000000
 C     11  10   9     1.392384980577   119.76482713     0.00000000
 C     12  11  10     1.398020236447   120.15368017     0.00000000
 H      1   2   3     1.094511429688   110.24849049   179.96317261
 H      1   2   3     1.094675404569   111.01348801    60.23570738
 H      1   2   3     1.094699244236   110.98188619   299.67651794
 H      2   1   3     1.097038395454   108.88166324   238.16086109
 H      2   1   3     1.096523375682   108.69153772   122.06961937
 H      3   2   1     1.095173822390   110.12110906    58.08294503
 H      3   2   1     1.096504083256   109.10194894   301.32174043
 H      5   4   3     1.095174479090   110.89162214    52.63508661
 H      5   4   3     1.096503857870   107.58865882   296.32769536
 H      6   5   4     1.097038471334   110.35967379    56.86406587
 H      6   5   4     1.096523049882   110.64578490   298.76976819
 H      7   6   5     1.094699053446   110.98191676    60.32358249
 H      7   6   5     1.094675147195   111.01350384   299.76433610
 H      7   6   5     1.094511248442   110.24849133   180.03688384
 H      9   8   4     1.088351096148   120.40367311     0.00000000
 H     10   9   8     1.086709484966   119.85069179   180.00004803
 H     11  10   9     1.086622372212   120.09417327   180.00003043
 H     12  11  10     1.086829283563   119.95967814   180.00005369
 H     13  12  11     1.086370797652   118.23389615   180.00000121

---------------------------
INTERNAL COORDINATES (A.U.)
---------------------------
 C      0   0   0     0.000000000000     0.00000000     0.00000000
 C      1   0   0     2.875169836703     0.00000000     0.00000000
 C      2   1   0     2.888418696959   111.25096813     0.00000000
 P      3   2   1     3.497639667073   112.25841549   182.15985639
 C      4   3   2     3.497638513441    99.35263178   183.71747351
 C      5   4   3     2.888419468818   112.25836267   176.28253349
 C      6   5   4     2.875170122747   111.25093358   177.84016780
 C      4   3   2     3.439169954082   102.52743737   288.89357380
 C      8   4   3     2.650956030168   118.21398255   128.64839090
 C      9   8   4     2.640614018072   120.91780906   180.00006570
 C     10   9   8     2.630467597874   120.03893627     0.00000000
 C     11  10   9     2.631226286276   119.76482713     0.00000000
 C     12  11  10     2.641875376564   120.15368017     0.00000000
 H      1   2   3     2.068326852556   110.24849049   179.96317261
 H      1   2   3     2.068636720175   111.01348801    60.23570738
 H      1   2   3     2.068681770617   110.98188619   299.67651794
 H      2   1   3     2.073102125804   108.88166324   238.16086109
 H      2   1   3     2.072128879481   108.69153772   122.06961937
 H      3   2   1     2.069578593357   110.12110906    58.08294503
 H      3   2   1     2.072092422081   109.10194894   301.32174043
 H      5   4   3     2.069579834340   110.89162214    52.63508661
 H      5   4   3     2.072091996163   107.58865882   296.32769536
 H      6   5   4     2.073102269196   110.35967379    56.86406587
 H      6   5   4     2.072128263809   110.64578490   298.76976819
 H      7   6   5     2.068681410076   110.98191676    60.32358249
 H      7   6   5     2.068636233808   111.01350384   299.76433610
 H      7   6   5     2.068326510052   110.24849133   180.03688384
 H      9   8   4     2.056685509272   120.40367311     0.00000000
 H     10   9   8     2.053583313719   119.85069179   180.00004803
 H     11  10   9     2.053418694473   120.09417327   180.00003043
 H     12  11  10     2.053809700260   119.95967814   180.00005369
 H     13  12  11     2.052943287453   118.23389615   180.00000121

---------------------
BASIS SET INFORMATION
---------------------
There are 3 groups of distinct atoms

 Group   1 Type C   : 7s4p1d contracted to 3s2p1d pattern {511/31/1}
 Group   2 Type P   : 10s7p1d contracted to 4s3p1d pattern {5311/511/1}
 Group   3 Type H   : 4s1p contracted to 2s1p pattern {31/1}

Atom   0C    basis set group =>   1
Atom   1C    basis set group =>   1
Atom   2C    basis set group =>   1
Atom   3P    basis set group =>   2
Atom   4C    basis set group =>   1
Atom   5C    basis set group =>   1
Atom   6C    basis set group =>   1
Atom   7C    basis set group =>   1
Atom   8C    basis set group =>   1
Atom   9C    basis set group =>   1
Atom  10C    basis set group =>   1
Atom  11C    basis set group =>   1
Atom  12C    basis set group =>   1
Atom  13H    basis set group =>   3
Atom  14H    basis set group =>   3
Atom  15H    basis set group =>   3
Atom  16H    basis set group =>   3
Atom  17H    basis set group =>   3
Atom  18H    basis set group =>   3
Atom  19H    basis set group =>   3
Atom  20H    basis set group =>   3
Atom  21H    basis set group =>   3
Atom  22H    basis set group =>   3
Atom  23H    basis set group =>   3
Atom  24H    basis set group =>   3
Atom  25H    basis set group =>   3
Atom  26H    basis set group =>   3
Atom  27H    basis set group =>   3
Atom  28H    basis set group =>   3
Atom  29H    basis set group =>   3
Atom  30H    basis set group =>   3
Atom  31H    basis set group =>   3
---------------------------------
AUXILIARY/J BASIS SET INFORMATION
---------------------------------
There are 3 groups of distinct atoms

 Group   1 Type C   : 12s5p4d2f1g contracted to 6s4p3d1f1g pattern {711111/2111/211/2/1}
 Group   2 Type P   : 14s5p5d2f1g contracted to 8s4p3d1f1g pattern {71111111/2111/311/2/1}
 Group   3 Type H   : 5s2p1d contracted to 3s1p1d pattern {311/2/1}

Atom   0C    basis set group =>   1
Atom   1C    basis set group =>   1
Atom   2C    basis set group =>   1
Atom   3P    basis set group =>   2
Atom   4C    basis set group =>   1
Atom   5C    basis set group =>   1
Atom   6C    basis set group =>   1
Atom   7C    basis set group =>   1
Atom   8C    basis set group =>   1
Atom   9C    basis set group =>   1
Atom  10C    basis set group =>   1
Atom  11C    basis set group =>   1
Atom  12C    basis set group =>   1
Atom  13H    basis set group =>   3
Atom  14H    basis set group =>   3
Atom  15H    basis set group =>   3
Atom  16H    basis set group =>   3
Atom  17H    basis set group =>   3
Atom  18H    basis set group =>   3
Atom  19H    basis set group =>   3
Atom  20H    basis set group =>   3
Atom  21H    basis set group =>   3
Atom  22H    basis set group =>   3
Atom  23H    basis set group =>   3
Atom  24H    basis set group =>   3
Atom  25H    basis set group =>   3
Atom  26H    basis set group =>   3
Atom  27H    basis set group =>   3
Atom  28H    basis set group =>   3
Atom  29H    basis set group =>   3
Atom  30H    basis set group =>   3
Atom  31H    basis set group =>   3


           ************************************************************
           *        Program running with 6 parallel MPI-processes     *
           *              working on a common directory               *
           ************************************************************
------------------------------------------------------------------------------
                             ORCA STARTUP CALCULATIONS
                           -- RI-GTO INTEGRALS CHOSEN --
------------------------------------------------------------------------------
------------------------------------------------------------------------------
                   ___                                                        
                  /   \      - P O W E R E D   B Y -                         
                 /     \                                                     
                 |  |  |   _    _      __       _____    __    __             
                 |  |  |  | |  | |    /  \     |  _  \  |  |  /  |          
                  \  \/   | |  | |   /    \    | | | |  |  | /  /          
                 / \  \   | |__| |  /  /\  \   | |_| |  |  |/  /          
                |  |  |   |  __  | /  /__\  \  |    /   |      \           
                |  |  |   | |  | | |   __   |  |    \   |  |\   \          
                \     /   | |  | | |  |  |  |  | |\  \  |  | \   \       
                 \___/    |_|  |_| |__|  |__|  |_| \__\ |__|  \__/        
                                                                              
                      - O R C A' S   B I G   F R I E N D -                    
                                      &                                       
                       - I N T E G R A L  F E E D E R -                       
                                                                              
 v1 FN, 2020, v2 2021, v3 2022-2024                                           
------------------------------------------------------------------------------


----------------------
SHARK INTEGRAL PACKAGE
----------------------

Number of atoms                             ...     32
Number of basis functions                   ...    281
Number of shells                            ...    137
Maximum angular momentum                    ...      2
Integral batch strategy                     ... SHARK/LIBINT Hybrid
RI-J (if used) integral strategy            ... SPLIT-RIJ (Revised 2003 algorithm where possible)
Printlevel                                  ...      1
Contraction scheme used                     ... SEGMENTED contraction
Prescreening option                         ... SCHWARTZ
   Thresh                                   ... 2.500e-11
   Tcut                                     ... 2.500e-12
   Tpresel                                  ... 2.500e-12 
Coulomb Range Separation                    ... NOT USED
Exchange Range Separation                   ... NOT USED
Multipole approximations                    ... NOT USED
Finite Nucleus Model                        ... NOT USED
CABS basis                                  ... NOT available
Auxiliary Coulomb fitting basis             ... AVAILABLE
   # of basis functions in Aux-J            ...    848
   # of shells in Aux-J                     ...    292
   Maximum angular momentum in Aux-J        ...      4
Auxiliary J/K fitting basis                 ... NOT available
Auxiliary Correlation fitting basis         ... NOT available
Auxiliary 'external' fitting basis          ... NOT available

Checking pre-screening integrals            ... done (  0.0 sec) Dimension = 137
Check shell pair data                       ... done (  0.0 sec)
Shell pair information
Shell pair cut-off parameter TPreSel        ...   2.5e-12
Total number of shell pairs                 ...      9453
Shell pairs after pre-screening             ...      7809
Total number of primitive shell pairs       ...     33389
Primitive shell pairs kept                  ...     18618
          la=0 lb=0:   2644 shell pairs
          la=1 lb=0:   2983 shell pairs
          la=1 lb=1:    854 shell pairs
          la=2 lb=0:    813 shell pairs
          la=2 lb=1:    450 shell pairs
          la=2 lb=2:     65 shell pairs

Calculating one electron integrals          ... done (  0.0 sec)
Calculating RI/J V-Matrix + Cholesky decomp.... done (  0.0 sec)
Calculating Nuclear repulsion               ... done (  0.0 sec) ENN=    884.240473912122 Eh

Diagonalization of the overlap matrix:
Smallest eigenvalue                        ... 2.873e-04
Time for diagonalization                   ...    0.009 sec
Threshold for overlap eigenvalues          ... 1.000e-07
Number of eigenvalues below threshold      ... 0
Time for construction of square roots      ...    0.007 sec
Total time needed                          ...    0.017 sec

-------------------
DFT GRID GENERATION
-------------------

General Integration Accuracy     IntAcc      ... 4.388
Radial Grid Type                 RadialGrid  ... OptM3 with GC (2021)
Angular Grid (max. ang.)         AngularGrid ... 4 (Lebedev-302)
Angular grid pruning method      GridPruning ... 4 (adaptive)
Weight generation scheme         WeightScheme... mBecke (2022)
Basis function cutoff            BFCut       ... 1.0000e-11
Integration weight cutoff        WCut        ... 1.0000e-14
Partially contracted basis set               ... off
Rotationally invariant grid construction     ... off
Angular grids for H and He will be reduced by one unit

Total number of grid points                  ...   139531
Total number of batches                      ...     2197
Average number of points per batch           ...       63
Average number of grid points per atom       ...     4360
Initializing property integral containers    ... done (  0.0 sec)

SHARK setup successfully completed in   0.8 seconds

Maximum memory used throughout the entire STARTUP-calculation: 37.1 MB


           ************************************************************
           *        Program running with 6 parallel MPI-processes     *
           *              working on a common directory               *
           ************************************************************
-------------------------------------------------------------------------------
                                 ORCA GUESS
                   Start orbitals & Density for SCF / CASSCF
-------------------------------------------------------------------------------

------------
SCF SETTINGS
------------
Hamiltonian:
 Density Functional     Method          .... DFT(GTOs)
 Exchange Functional    Exchange        .... B88
   X-Alpha parameter    XAlpha          ....  0.666667
   Becke's b parameter  XBeta           ....  0.004200
 Correlation Functional Correlation     .... LYP
 LDA part of GGA corr.  LDAOpt          .... VWN-5
 Gradients option       PostSCFGGA      .... off
 Hybrid DFT is turned on
   Fraction HF Exchange ScalHFX         ....  0.200000
   Scaling of DF-GGA-X  ScalDFX         ....  0.720000
   Scaling of DF-GGA-C  ScalDFC         ....  0.810000
   Scaling of DF-LDA-C  ScalLDAC        ....  1.000000
   Perturbative correction              ....  0.000000
   NL short-range parameter             ....  4.800000
 RI-approximation to the Coulomb term is turned on
   Number of AuxJ basis functions       .... 848
   RIJ-ON(X) (HFX calculated with O(N)) .... on


General Settings:
 Integral files         IntName         .... data/geom_opt/292611/292611
 Hartree-Fock type      HFTyp           .... RHF
 Total Charge           Charge          ....    0
 Multiplicity           Mult            ....    1
 Number of Electrons    NEL             ....  106
 Basis Dimension        Dim             ....  281
 Nuclear Repulsion      ENuc            ....    884.2404739121 Eh

Convergence Acceleration:
 AO-DIIS                CNVDIIS         .... on
   Start iteration      DIISMaxIt       ....    12
   Startup error        DIISStart       ....  0.200000
   # of expansion vecs  DIISMaxEq       ....     5
   Bias factor          DIISBfac        ....   1.050
   Max. coefficient     DIISMaxC        ....  10.000
 MO-DIIS                CNVKDIIS        .... off
 Trust-Rad. Augm. Hess. CNVTRAH         .... auto
   Auto Start mean grad. ratio tolernc. ....  1.125000
   Auto Start start iteration           ....    50
   Auto Start num. interpolation iter.  ....    10
   Max. Number of Micro iterations      ....    24
   Max. Number of Macro iterations      .... Maxiter - #DIIS iter
   Number of Davidson start vectors     ....     2
   Converg. threshold    (grad. norm)   ....   1.000e-05
   Grad. Scal. Fac. for Micro threshold ....   0.100
   Minimum threshold for Micro iter.    ....   1.000e-02
   NR start threshold (gradient norm)   ....   1.000e-04
   Initial trust radius                 ....   0.400
   Minimum AH scaling param. (alpha)    ....   1.000
   Maximum AH scaling param. (alpha)    .... 1000.000
   Quad. conv. algorithm                .... NR
   White noise on init. David. guess    .... on
   Maximum white noise                  ....   0.010
   Pseudo random numbers                .... off
   Inactive MOs                         .... canonical
   Orbital update algorithm             .... Taylor
   Preconditioner                       .... Diag
   Full preconditioner red. dimension   ....   250
   COSX micro iterations for RIJONX calc.... off
 SOSCF                  CNVSOSCF        .... on
   Start iteration      SOSCFMaxIt      ....   150
   Startup grad/error   SOSCFStart      ....  0.003300
   Hessian update       SOSCFHessUp     .... L-BFGS
 Level Shifting         CNVShift        .... on
   Level shift para.    LevelShift      ....    0.2500
   Turn off err/grad.   ShiftErr        ....    0.0010
 Zerner damping         CNVZerner       .... off
 Static damping         CNVDamp         .... on
   Fraction old density DampFac         ....    0.7000
   Max. Damping (<1)    DampMax         ....    0.9800
   Min. Damping (>=0)   DampMin         ....    0.0000
   Turn off err/grad.   DampErr         ....    0.1000

SCF Procedure:
 Maximum # iterations   MaxIter         ....   125
 SCF integral mode      SCFMode         .... Direct
   Integral package                     .... SHARK and LIBINT hybrid scheme
 Reset frequency        DirectResetFreq ....    20
 Integral Threshold     Thresh          ....  2.500e-11 Eh
 Primitive CutOff       TCut            ....  2.500e-12 Eh

Convergence Tolerance:
 Convergence Check Mode ConvCheckMode   .... Total+1el-Energy
 Convergence forced     ConvForced      .... 0
 Energy Change          TolE            ....  1.000e-08 Eh
 1-El. energy change                    ....  1.000e-05 Eh
 Orbital Gradient       TolG            ....  1.000e-05
 Orbital Rotation angle TolX            ....  1.000e-05
 DIIS Error             TolErr          ....  5.000e-07

------------------------------
INITIAL GUESS: MODEL POTENTIAL
------------------------------
Loading Hartree-Fock densities                     ... done
Calculating cut-offs                               ... done
Initializing the effective Hamiltonian             ... done
Setting up the integral package (SHARK)            ... done
Starting the Coulomb interaction                   ... done (   0.1 sec)
Making the grid                                    ... done (   0.2 sec)
Mapping shells                                     ... done
Starting the XC term evaluation                    ... done (   0.1 sec)
  promolecular density results
     # of electrons  =    106.000835357
     EX              =    -89.990586163
     EC              =     -3.563696913
     EX+EC           =    -93.554283076
Transforming the Hamiltonian                       ... done (   0.0 sec)
Diagonalizing the Hamiltonian                      ... done (   0.0 sec)
Back transforming the eigenvectors                 ... done (   0.0 sec)
Now organizing SCF variables                       ... done
                      ------------------
                      INITIAL GUESS DONE (   0.4 sec)
                      ------------------
             **** ENERGY FILE WAS UPDATED (data/geom_opt/292611/292611.en.tmp) ****
Finished Guess after   0.5 sec
Maximum memory used throughout the entire GUESS-calculation: 20.0 MB


           ************************************************************
           *        Program running with 6 parallel MPI-processes     *
           *              working on a common directory               *
           ************************************************************

-------------------------------------------------------------------------------------------
                                      ORCA LEAN-SCF
                              memory conserving SCF solver
-------------------------------------------------------------------------------------------

----------------------------------------D-I-I-S--------------------------------------------
Iteration    Energy (Eh)           Delta-E    RMSDP     MaxDP     DIISErr   Damp  Time(sec)
-------------------------------------------------------------------------------------------
               ***  Starting incremental Fock matrix formation  ***
    1    -808.8761663679279081     0.00e+00  2.71e-03  7.99e-02  1.70e-01  0.700   2.5
    2    -809.0549685672458509    -1.79e-01  1.95e-03  4.89e-02  8.86e-02  0.700   2.2
                               ***Turning on AO-DIIS***
    3    -809.1292176331910468    -7.42e-02  8.87e-04  3.49e-02  3.29e-02  0.700   2.1
    4    -809.1718192837515744    -4.26e-02  1.66e-03  7.86e-02  1.58e-02  0.000   2.0
    5    -809.2637810181431632    -9.20e-02  2.47e-04  1.11e-02  5.80e-03  0.000   2.2
                              *** Initializing SOSCF ***
---------------------------------------S-O-S-C-F--------------------------------------
Iteration    Energy (Eh)           Delta-E    RMSDP     MaxDP     MaxGrad    Time(sec)
--------------------------------------------------------------------------------------
    6    -809.2643824893257261    -6.01e-04  8.72e-05  1.93e-03  1.53e-03     1.8
               *** Restarting incremental Fock matrix formation ***
    7    -809.2644318040443068    -4.93e-05  5.96e-05  1.51e-03  2.19e-04     2.3
    8    -809.2644321115549246    -3.08e-07  1.96e-05  6.02e-04  4.06e-04     1.6
    9    -809.2644362735461527    -4.16e-06  1.57e-05  8.24e-04  1.44e-04     1.5
   10    -809.2644360451834018     2.28e-07  8.16e-06  3.01e-04  1.24e-04     1.7
   11    -809.2644366187539617    -5.74e-07  2.16e-06  1.54e-04  8.17e-06     1.4
   12    -809.2644366152835573     3.47e-09  1.05e-06  6.79e-05  1.54e-05     1.2
                 **** Energy Check signals convergence ****

               *****************************************************
               *                     SUCCESS                       *
               *           SCF CONVERGED AFTER  12 CYCLES          *
               *****************************************************

             **** ENERGY FILE WAS UPDATED (data/geom_opt/292611/292611.en.tmp) ****

----------------
TOTAL SCF ENERGY
----------------

Total Energy       :       -809.26443661528356 Eh          -22021.20486 eV

Components:
Nuclear Repulsion  :        884.24047391212162 Eh           24061.40655 eV
Electronic Energy  :      -1693.50491052740517 Eh          -46082.61141 eV
One Electron Energy:      -2858.30127331611720 Eh          -77778.33182 eV
Two Electron Energy:       1164.79636278871203 Eh           31695.72041 eV

Virial components:
Potential Energy   :      -1612.43098208044148 Eh          -43876.47766 eV
Kinetic Energy     :        803.16654546515804 Eh           21855.27280 eV
Virial Ratio       :          2.00759231218551

DFT components:
N(Alpha)           :       52.999819277437 electrons
N(Beta)            :       52.999819277437 electrons
N(Total)           :      105.999638554875 electrons
E(X)               :      -72.580571634682 Eh       
E(C)               :       -4.208506030499 Eh       
E(XC)              :      -76.789077665181 Eh       

---------------
SCF CONVERGENCE
---------------

  Last Energy change         ...   -3.4704e-09  Tolerance :   1.0000e-08
  Last MAX-Density change    ...    6.7909e-05  Tolerance :   1.0000e-07
  Last RMS-Density change    ...    1.0525e-06  Tolerance :   5.0000e-09
  Last DIIS Error            ...    1.5317e-03  Tolerance :   5.0000e-07
  Last Orbital Gradient      ...    1.5351e-05  Tolerance :   1.0000e-05
  Last Orbital Rotation      ...    2.8103e-05  Tolerance :   1.0000e-05


----------------
ORBITAL ENERGIES
----------------

  NO   OCC          E(Eh)            E(eV) 
   0   2.0000     -77.028818     -2096.0607 
   1   2.0000     -10.191439      -277.3232 
   2   2.0000     -10.190413      -277.2952 
   3   2.0000     -10.189830      -277.2794 
   4   2.0000     -10.189312      -277.2653 
   5   2.0000     -10.188438      -277.2415 
   6   2.0000     -10.185558      -277.1631 
   7   2.0000     -10.176339      -276.9123 
   8   2.0000     -10.176332      -276.9121 
   9   2.0000     -10.175718      -276.8954 
  10   2.0000     -10.175712      -276.8952 
  11   2.0000     -10.169935      -276.7380 
  12   2.0000     -10.169932      -276.7379 
  13   2.0000      -6.526929      -177.6068 
  14   2.0000      -4.692457      -127.6882 
  15   2.0000      -4.692103      -127.6786 
  16   2.0000      -4.689153      -127.5983 
  17   2.0000      -0.848208       -23.0809 
  18   2.0000      -0.787817       -21.4376 
  19   2.0000      -0.773094       -21.0370 
  20   2.0000      -0.744324       -20.2541 
  21   2.0000      -0.737897       -20.0792 
  22   2.0000      -0.697033       -18.9672 
  23   2.0000      -0.663845       -18.0641 
  24   2.0000      -0.608083       -16.5468 
  25   2.0000      -0.599637       -16.3169 
  26   2.0000      -0.585801       -15.9404 
  27   2.0000      -0.568977       -15.4827 
  28   2.0000      -0.541930       -14.7467 
  29   2.0000      -0.501947       -13.6587 
  30   2.0000      -0.466012       -12.6808 
  31   2.0000      -0.458157       -12.4671 
  32   2.0000      -0.451972       -12.2988 
  33   2.0000      -0.446917       -12.1612 
  34   2.0000      -0.422773       -11.5042 
  35   2.0000      -0.420690       -11.4475 
  36   2.0000      -0.420225       -11.4349 
  37   2.0000      -0.401968       -10.9381 
  38   2.0000      -0.401840       -10.9346 
  39   2.0000      -0.381444       -10.3796 
  40   2.0000      -0.380737       -10.3604 
  41   2.0000      -0.366262        -9.9665 
  42   2.0000      -0.364640        -9.9224 
  43   2.0000      -0.347164        -9.4468 
  44   2.0000      -0.345022        -9.3885 
  45   2.0000      -0.335696        -9.1348 
  46   2.0000      -0.330681        -8.9983 
  47   2.0000      -0.325411        -8.8549 
  48   2.0000      -0.312039        -8.4910 
  49   2.0000      -0.298498        -8.1226 
  50   2.0000      -0.255961        -6.9650 
  51   2.0000      -0.252755        -6.8778 
  52   2.0000      -0.216246        -5.8844 
  53   0.0000      -0.021818        -0.5937 
  54   0.0000      -0.009785        -0.2663 
  55   0.0000       0.055872         1.5203 
  56   0.0000       0.060495         1.6461 
  57   0.0000       0.062935         1.7125 
  58   0.0000       0.080866         2.2005 
  59   0.0000       0.091383         2.4867 
  60   0.0000       0.095285         2.5928 
  61   0.0000       0.096793         2.6339 
  62   0.0000       0.110339         3.0025 
  63   0.0000       0.115277         3.1368 
*Only the first 10 virtual orbitals were printed.

                    ********************************
                    * MULLIKEN POPULATION ANALYSIS *
                    ********************************

-----------------------
MULLIKEN ATOMIC CHARGES
-----------------------
   0 C :    0.019401
   1 C :    0.017544
   2 C :   -0.131454
   3 P :    0.200915
   4 C :   -0.131533
   5 C :    0.017720
   6 C :    0.019308
   7 C :   -0.122545
   8 C :    0.022651
   9 C :    0.022525
  10 C :    0.028042
  11 C :    0.025692
  12 C :    0.012693
  13 H :    0.005675
  14 H :    0.002736
  15 H :    0.002302
  16 H :    0.004952
  17 H :    0.010616
  18 H :    0.006161
  19 H :    0.020461
  20 H :    0.006174
  21 H :    0.020454
  22 H :    0.004946
  23 H :    0.010562
  24 H :    0.002324
  25 H :    0.002741
  26 H :    0.005693
  27 H :   -0.022482
  28 H :   -0.019430
  29 H :   -0.018842
  30 H :   -0.022874
  31 H :   -0.023128
Sum of atomic charges:   -0.0000000

--------------------------------
MULLIKEN REDUCED ORBITAL CHARGES
--------------------------------
  0 C s       :     2.981998  s :     2.981998
      pz      :     0.994019  p :     2.968700
      px      :     0.981403
      py      :     0.993278
      dz2     :     0.009370  d :     0.029901
      dxz     :     0.004808
      dyz     :     0.002175
      dx2y2   :     0.007388
      dxy     :     0.006160

  1 C s       :     2.999501  s :     2.999501
      pz      :     0.998045  p :     2.944890
      px      :     0.944791
      py      :     1.002054
      dz2     :     0.011294  d :     0.038065
      dxz     :     0.006287
      dyz     :     0.002591
      dx2y2   :     0.010773
      dxy     :     0.007120

  2 C s       :     3.072889  s :     3.072889
      pz      :     1.006869  p :     3.027596
      px      :     1.005828
      py      :     1.014898
      dz2     :     0.010256  d :     0.030970
      dxz     :     0.005219
      dyz     :     0.002422
      dx2y2   :     0.008494
      dxy     :     0.004579

  3 P s       :     5.756960  s :     5.756960
      pz      :     3.330764  p :     8.867171
      px      :     2.784644
      py      :     2.751762
      dz2     :     0.016466  d :     0.174955
      dxz     :     0.036017
      dyz     :     0.036983
      dx2y2   :     0.045835
      dxy     :     0.039653

  4 C s       :     3.072925  s :     3.072925
      pz      :     1.008691  p :     3.027638
      px      :     1.000998
      py      :     1.017949
      dz2     :     0.009247  d :     0.030970
      dxz     :     0.005854
      dyz     :     0.002602
      dx2y2   :     0.007478
      dxy     :     0.005788

  5 C s       :     2.999447  s :     2.999447
      pz      :     0.999823  p :     2.944769
      px      :     0.937564
      py      :     1.007382
      dz2     :     0.010629  d :     0.038065
      dxz     :     0.006346
      dyz     :     0.003568
      dx2y2   :     0.010500
      dxy     :     0.007021

  6 C s       :     2.982032  s :     2.982032
      pz      :     0.992163  p :     2.968758
      px      :     0.986363
      py      :     0.990232
      dz2     :     0.010187  d :     0.029901
      dxz     :     0.003187
      dyz     :     0.003248
      dx2y2   :     0.009664
      dxy     :     0.003616

  7 C s       :     3.080691  s :     3.080691
      pz      :     0.989115  p :     3.005055
      px      :     1.001329
      py      :     1.014611
      dz2     :     0.009978  d :     0.036799
      dxz     :     0.005981
      dyz     :     0.012474
      dx2y2   :     0.004633
      dxy     :     0.003732

  8 C s       :     3.223726  s :     3.223726
      pz      :     0.839897  p :     2.718471
      px      :     0.962564
      py      :     0.916010
      dz2     :     0.009863  d :     0.035152
      dxz     :     0.002683
      dyz     :     0.010438
      dx2y2   :     0.005882
      dxy     :     0.006286

  9 C s       :     3.160277  s :     3.160277
      pz      :     0.911731  p :     2.782155
      px      :     0.978549
      py      :     0.891875
      dz2     :     0.008841  d :     0.035043
      dxz     :     0.005033
      dyz     :     0.012723
      dx2y2   :     0.004328
      dxy     :     0.004117

 10 C s       :     3.157621  s :     3.157621
      pz      :     0.948210  p :     2.778893
      px      :     0.973947
      py      :     0.856736
      dz2     :     0.010018  d :     0.035444
      dxz     :     0.006095
      dyz     :     0.011640
      dx2y2   :     0.004580
      dxy     :     0.003111

 11 C s       :     3.158289  s :     3.158289
      pz      :     0.833557  p :     2.780840
      px      :     0.985648
      py      :     0.961635
      dz2     :     0.009758  d :     0.035179
      dxz     :     0.002776
      dyz     :     0.010685
      dx2y2   :     0.005775
      dxy     :     0.006185

 12 C s       :     3.209317  s :     3.209317
      pz      :     0.918669  p :     2.742742
      px      :     0.965510
      py      :     0.858563
      dz2     :     0.008526  d :     0.035248
      dxz     :     0.005032
      dyz     :     0.013231
      dx2y2   :     0.004247
      dxy     :     0.004212

 13 H s       :     0.971098  s :     0.971098
      pz      :     0.006356  p :     0.023227
      px      :     0.009569
      py      :     0.007302

 14 H s       :     0.973898  s :     0.973898
      pz      :     0.005409  p :     0.023367
      px      :     0.004633
      py      :     0.013325

 15 H s       :     0.974318  s :     0.974318
      pz      :     0.013786  p :     0.023380
      px      :     0.004426
      py      :     0.005168

 16 H s       :     0.972877  s :     0.972877
      pz      :     0.013718  p :     0.022171
      px      :     0.003810
      py      :     0.004642

 17 H s       :     0.966888  s :     0.966888
      pz      :     0.005088  p :     0.022497
      px      :     0.004027
      py      :     0.013382

 18 H s       :     0.970880  s :     0.970880
      pz      :     0.013762  p :     0.022959
      px      :     0.004383
      py      :     0.004815

 19 H s       :     0.956455  s :     0.956455
      pz      :     0.005300  p :     0.023084
      px      :     0.004481
      py      :     0.013303

 20 H s       :     0.970868  s :     0.970868
      pz      :     0.013404  p :     0.022958
      px      :     0.004451
      py      :     0.005103

 21 H s       :     0.956463  s :     0.956463
      pz      :     0.005380  p :     0.023083
      px      :     0.004547
      py      :     0.013157

 22 H s       :     0.972883  s :     0.972883
      pz      :     0.013298  p :     0.022171
      px      :     0.004122
      py      :     0.004751

 23 H s       :     0.966942  s :     0.966942
      pz      :     0.005158  p :     0.022497
      px      :     0.004324
      py      :     0.013015

 24 H s       :     0.974297  s :     0.974297
      pz      :     0.013506  p :     0.023379
      px      :     0.004995
      py      :     0.004878

 25 H s       :     0.973891  s :     0.973891
      pz      :     0.005200  p :     0.023367
      px      :     0.005025
      py      :     0.013142

 26 H s       :     0.971081  s :     0.971081
      pz      :     0.005109  p :     0.023226
      px      :     0.013086
      py      :     0.005031

 27 H s       :     0.999383  s :     0.999383
      pz      :     0.014704  p :     0.023099
      px      :     0.004589
      py      :     0.003806

 28 H s       :     0.996439  s :     0.996439
      pz      :     0.007889  p :     0.022991
      px      :     0.005203
      py      :     0.009900

 29 H s       :     0.995881  s :     0.995881
      pz      :     0.004909  p :     0.022961
      px      :     0.004807
      py      :     0.013244

 30 H s       :     0.999884  s :     0.999884
      pz      :     0.014453  p :     0.022991
      px      :     0.004750
      py      :     0.003788

 31 H s       :     0.999945  s :     0.999945
      pz      :     0.008103  p :     0.023183
      px      :     0.005368
      py      :     0.009713



                     *******************************
                     * LOEWDIN POPULATION ANALYSIS *
                     *******************************

----------------------
LOEWDIN ATOMIC CHARGES
----------------------
   0 C :   -0.052653
   1 C :   -0.044949
   2 C :   -0.173474
   3 P :    0.472339
   4 C :   -0.173484
   5 C :   -0.044927
   6 C :   -0.052667
   7 C :   -0.180928
   8 C :   -0.024741
   9 C :   -0.024965
  10 C :   -0.019301
  11 C :   -0.024964
  12 C :   -0.025506
  13 H :    0.021004
  14 H :    0.018164
  15 H :    0.018280
  16 H :    0.018945
  17 H :    0.019937
  18 H :    0.008807
  19 H :    0.020385
  20 H :    0.008806
  21 H :    0.020389
  22 H :    0.018940
  23 H :    0.019928
  24 H :    0.018285
  25 H :    0.018164
  26 H :    0.021008
  27 H :    0.022904
  28 H :    0.025922
  29 H :    0.025842
  30 H :    0.024835
  31 H :    0.019675

-------------------------------
LOEWDIN REDUCED ORBITAL CHARGES
-------------------------------
  0 C s       :     2.836773  s :     2.836773
      pz      :     1.056294  p :     3.141521
      px      :     1.028824
      py      :     1.056403
      dz2     :     0.023176  d :     0.074360
      dxz     :     0.011761
      dyz     :     0.005432
      dx2y2   :     0.019008
      dxy     :     0.014982

  1 C s       :     2.835747  s :     2.835747
      pz      :     1.051676  p :     3.117264
      px      :     1.015312
      py      :     1.050276
      dz2     :     0.027566  d :     0.091938
      dxz     :     0.014798
      dyz     :     0.006127
      dx2y2   :     0.026140
      dxy     :     0.017307

  2 C s       :     2.892771  s :     2.892771
      pz      :     1.073834  p :     3.204919
      px      :     1.066175
      py      :     1.064910
      dz2     :     0.024882  d :     0.075784
      dxz     :     0.012701
      dyz     :     0.005842
      dx2y2   :     0.020868
      dxy     :     0.011491

  3 P s       :     5.280447  s :     5.280447
      pz      :     3.416885  p :     9.011333
      px      :     2.805271
      py      :     2.789178
      dz2     :     0.022976  d :     0.235881
      dxz     :     0.045864
      dyz     :     0.049275
      dx2y2   :     0.063615
      dxy     :     0.054150

  4 C s       :     2.892771  s :     2.892771
      pz      :     1.080093  p :     3.204928
      px      :     1.050250
      py      :     1.074584
      dz2     :     0.023232  d :     0.075785
      dxz     :     0.013103
      dyz     :     0.006745
      dx2y2   :     0.019721
      dxy     :     0.012984

  5 C s       :     2.835749  s :     2.835749
      pz      :     1.052572  p :     3.117240
      px      :     1.012488
      py      :     1.052181
      dz2     :     0.025824  d :     0.091939
      dxz     :     0.014576
      dyz     :     0.008994
      dx2y2   :     0.026147
      dxy     :     0.016398

  6 C s       :     2.836775  s :     2.836775
      pz      :     1.050611  p :     3.141533
      px      :     1.043663
      py      :     1.047258
      dz2     :     0.024454  d :     0.074359
      dxz     :     0.008300
      dyz     :     0.008510
      dx2y2   :     0.023521
      dxy     :     0.009576

  7 C s       :     2.911983  s :     2.911983
      pz      :     1.094622  p :     3.175860
      px      :     0.987430
      py      :     1.093807
      dz2     :     0.027816  d :     0.093086
      dxz     :     0.013142
      dyz     :     0.034494
      dx2y2   :     0.010383
      dxy     :     0.007251

  8 C s       :     2.867898  s :     2.867898
      pz      :     1.041590  p :     3.065027
      px      :     0.958417
      py      :     1.065020
      dz2     :     0.026542  d :     0.091816
      dxz     :     0.005222
      dyz     :     0.029534
      dx2y2   :     0.016362
      dxy     :     0.014156

  9 C s       :     2.860560  s :     2.860560
      pz      :     1.055542  p :     3.073481
      px      :     0.969918
      py      :     1.048021
      dz2     :     0.025143  d :     0.090924
      dxz     :     0.010762
      dyz     :     0.035115
      dx2y2   :     0.011271
      dxy     :     0.008633

 10 C s       :     2.859947  s :     2.859947
      pz      :     1.065723  p :     3.067556
      px      :     0.962979
      py      :     1.038853
      dz2     :     0.028369  d :     0.091798
      dxz     :     0.013519
      dyz     :     0.032501
      dx2y2   :     0.011178
      dxy     :     0.006233

 11 C s       :     2.860530  s :     2.860530
      pz      :     1.036907  p :     3.073192
      px      :     0.972533
      py      :     1.063752
      dz2     :     0.025854  d :     0.091243
      dxz     :     0.005367
      dyz     :     0.030366
      dx2y2   :     0.015774
      dxy     :     0.013882

 12 C s       :     2.863047  s :     2.863047
      pz      :     1.059286  p :     3.069998
      px      :     0.963889
      py      :     1.046823
      dz2     :     0.024323  d :     0.092461
      dxz     :     0.010839
      dyz     :     0.037333
      dx2y2   :     0.011171
      dxy     :     0.008796

 13 H s       :     0.914107  s :     0.914107
      pz      :     0.016798  p :     0.064889
      px      :     0.028485
      py      :     0.019606

 14 H s       :     0.917184  s :     0.917184
      pz      :     0.013535  p :     0.064652
      px      :     0.013258
      py      :     0.037859

 15 H s       :     0.916997  s :     0.916997
      pz      :     0.039245  p :     0.064723
      px      :     0.012807
      py      :     0.012670

 16 H s       :     0.915614  s :     0.915614
      pz      :     0.040010  p :     0.065440
      px      :     0.012686
      py      :     0.012744

 17 H s       :     0.914226  s :     0.914226
      pz      :     0.013595  p :     0.065837
      px      :     0.013187
      py      :     0.039055

 18 H s       :     0.920472  s :     0.920472
      pz      :     0.042119  p :     0.070721
      px      :     0.015393
      py      :     0.013209

 19 H s       :     0.910536  s :     0.910536
      pz      :     0.013859  p :     0.069079
      px      :     0.015403
      py      :     0.039818

 20 H s       :     0.920473  s :     0.920473
      pz      :     0.041712  p :     0.070721
      px      :     0.014909
      py      :     0.014101

 21 H s       :     0.910532  s :     0.910532
      pz      :     0.014244  p :     0.069079
      px      :     0.014963
      py      :     0.039872

 22 H s       :     0.915620  s :     0.915620
      pz      :     0.038735  p :     0.065440
      px      :     0.013533
      py      :     0.013172

 23 H s       :     0.914237  s :     0.914237
      pz      :     0.013904  p :     0.065835
      px      :     0.014102
      py      :     0.037829

 24 H s       :     0.916992  s :     0.916992
      pz      :     0.038671  p :     0.064724
      px      :     0.013139
      py      :     0.012914

 25 H s       :     0.917184  s :     0.917184
      pz      :     0.013639  p :     0.064652
      px      :     0.013248
      py      :     0.037765

 26 H s       :     0.914103  s :     0.914103
      pz      :     0.013565  p :     0.064889
      px      :     0.037743
      py      :     0.013581

 27 H s       :     0.908550  s :     0.908550
      pz      :     0.042581  p :     0.068546
      px      :     0.014028
      py      :     0.011937

 28 H s       :     0.906486  s :     0.906486
      pz      :     0.023214  p :     0.067592
      px      :     0.015670
      py      :     0.028708

 29 H s       :     0.906691  s :     0.906691
      pz      :     0.015357  p :     0.067467
      px      :     0.014557
      py      :     0.037553

 30 H s       :     0.907518  s :     0.907518
      pz      :     0.040871  p :     0.067647
      px      :     0.014480
      py      :     0.012295

 31 H s       :     0.911793  s :     0.911793
      pz      :     0.024097  p :     0.068531
      px      :     0.015874
      py      :     0.028561



                      *****************************
                      * MAYER POPULATION ANALYSIS *
                      *****************************

  NA   - Mulliken gross atomic population
  ZA   - Total nuclear charge
  QA   - Mulliken gross atomic charge
  VA   - Mayer's total valence
  BVA  - Mayer's bonded valence
  FA   - Mayer's free valence

  ATOM       NA         ZA         QA         VA         BVA        FA
  0 C      5.9806     6.0000     0.0194     4.0312     4.0312    -0.0000
  1 C      5.9825     6.0000     0.0175     4.0825     4.0825    -0.0000
  2 C      6.1315     6.0000    -0.1315     3.9327     3.9327    -0.0000
  3 P     14.7991    15.0000     0.2009     3.0087     3.0087     0.0000
  4 C      6.1315     6.0000    -0.1315     3.9328     3.9328    -0.0000
  5 C      5.9823     6.0000     0.0177     4.0823     4.0823    -0.0000
  6 C      5.9807     6.0000     0.0193     4.0312     4.0312    -0.0000
  7 C      6.1225     6.0000    -0.1225     3.7415     3.7415    -0.0000
  8 C      5.9773     6.0000     0.0227     3.8737     3.8737    -0.0000
  9 C      5.9775     6.0000     0.0225     3.8413     3.8413    -0.0000
 10 C      5.9720     6.0000     0.0280     3.8296     3.8296    -0.0000
 11 C      5.9743     6.0000     0.0257     3.8535     3.8535    -0.0000
 12 C      5.9873     6.0000     0.0127     3.8704     3.8704    -0.0000
 13 H      0.9943     1.0000     0.0057     0.9826     0.9826    -0.0000
 14 H      0.9973     1.0000     0.0027     0.9883     0.9883    -0.0000
 15 H      0.9977     1.0000     0.0023     0.9891     0.9891    -0.0000
 16 H      0.9950     1.0000     0.0050     0.9814     0.9814    -0.0000
 17 H      0.9894     1.0000     0.0106     0.9838     0.9838    -0.0000
 18 H      0.9938     1.0000     0.0062     0.9896     0.9896    -0.0000
 19 H      0.9795     1.0000     0.0205     0.9820     0.9820    -0.0000
 20 H      0.9938     1.0000     0.0062     0.9896     0.9896    -0.0000
 21 H      0.9795     1.0000     0.0205     0.9820     0.9820    -0.0000
 22 H      0.9951     1.0000     0.0049     0.9814     0.9814    -0.0000
 23 H      0.9894     1.0000     0.0106     0.9838     0.9838    -0.0000
 24 H      0.9977     1.0000     0.0023     0.9891     0.9891    -0.0000
 25 H      0.9973     1.0000     0.0027     0.9883     0.9883    -0.0000
 26 H      0.9943     1.0000     0.0057     0.9826     0.9826    -0.0000
 27 H      1.0225     1.0000    -0.0225     0.9969     0.9969    -0.0000
 28 H      1.0194     1.0000    -0.0194     0.9770     0.9770     0.0000
 29 H      1.0188     1.0000    -0.0188     0.9769     0.9769    -0.0000
 30 H      1.0229     1.0000    -0.0229     0.9766     0.9766     0.0000
 31 H      1.0231     1.0000    -0.0231     0.9852     0.9852     0.0000

  Mayer bond orders larger than 0.100000
B(  0-C ,  1-C ) :   1.1110 B(  0-C , 13-H ) :   0.9653 B(  0-C , 14-H ) :   0.9706 
B(  0-C , 15-H ) :   0.9694 B(  1-C ,  2-C ) :   1.0610 B(  1-C , 16-H ) :   0.9424 
B(  1-C , 17-H ) :   0.9453 B(  2-C ,  3-P ) :   0.9685 B(  2-C , 18-H ) :   0.9263 
B(  2-C , 19-H ) :   0.9425 B(  3-P ,  4-C ) :   0.9686 B(  3-P ,  7-C ) :   0.9222 
B(  4-C ,  5-C ) :   1.0609 B(  4-C , 20-H ) :   0.9263 B(  4-C , 21-H ) :   0.9425 
B(  5-C ,  6-C ) :   1.1110 B(  5-C , 22-H ) :   0.9424 B(  5-C , 23-H ) :   0.9453 
B(  6-C , 24-H ) :   0.9694 B(  6-C , 25-H ) :   0.9706 B(  6-C , 26-H ) :   0.9653 
B(  7-C ,  8-C ) :   1.3863 B(  7-C , 12-C ) :   1.3468 B(  8-C ,  9-C ) :   1.3839 
B(  8-C , 27-H ) :   0.9880 B(  9-C , 10-C ) :   1.3880 B(  9-C , 28-H ) :   0.9871 
B( 10-C , 11-C ) :   1.3756 B( 10-C , 29-H ) :   0.9862 B( 11-C , 12-C ) :   1.4072 
B( 11-C , 30-H ) :   0.9843 B( 12-C , 31-H ) :   0.9824 

-------
TIMINGS
-------

Total SCF time: 0 days 0 hours 0 min 22 sec 

Total time                  ....      22.675 sec
Sum of individual times     ....      22.624 sec  ( 99.8%)

SCF preparation             ....       0.093 sec  (  0.4%)
Fock matrix formation       ....      22.000 sec  ( 97.0%)
  Startup                   ....       0.031 sec  (  0.1% of F)
  Exchange formation        ....      16.326 sec  ( 74.2% of F)
  Split-RI-J                ....       1.800 sec  (  8.2% of F)
  XC integration            ....       3.709 sec  ( 16.9% of F)
    Basis function eval.    ....       1.114 sec  ( 30.0% of XC)
    Density eval.           ....       1.002 sec  ( 27.0% of XC)
    XC-Functional eval.     ....       0.089 sec  (  2.4% of XC)
    XC-Potential eval.      ....       0.925 sec  ( 24.9% of XC)
Diagonalization             ....       0.000 sec  (  0.0%)
Density matrix formation    ....       0.076 sec  (  0.3%)
Total Energy calculation    ....       0.028 sec  (  0.1%)
Population analysis         ....       0.044 sec  (  0.2%)
Orbital Transformation      ....       0.044 sec  (  0.2%)
Orbital Orthonormalization  ....       0.000 sec  (  0.0%)
DIIS solution               ....       0.211 sec  (  0.9%)
SOSCF solution              ....       0.128 sec  (  0.6%)
Finished LeanSCF after  22.7 sec

Maximum memory used throughout the entire LEANSCF-calculation: 28.4 MB


-------------------------------------------------------------------------------
                          DFT DISPERSION CORRECTION                            
                                                                               
                              DFTD3 V3.1  Rev 1                                
                          USING Becke-Johnson damping                          
-------------------------------------------------------------------------------
The B3LYP functional is recognized
Active option DFTDOPT                   ...         4   

molecular C6(AA) [au] = 10229.235764 


            DFT-D V3
 parameters
 s6 scaling factor         :     1.0000 
 a1 scaling factor         :     0.3981 
 s8 scaling factor         :     1.9889 
 a2 scaling factor         :     4.4211 
 ad hoc parameters k1-k3   :    16.0000     1.3333    -4.0000 

 Edisp/kcal,au: -38.764213010230  -0.061774698993 
 E6   /kcal   : -18.096097168 
 E8   /kcal   : -20.668115842 
 % E8         :  53.317516950 

-------------------------   ----------------
Dispersion correction           -0.061774699
-------------------------   ----------------


[...]

  6 C s       :     2.844177  s :     2.844177
      pz      :     1.049436  p :     3.139313
      px      :     1.041777
      py      :     1.048099
      dz2     :     0.023618  d :     0.072316
      dxz     :     0.008560
      dyz     :     0.008037
      dx2y2   :     0.022840
      dxy     :     0.009262

  7 C s       :     2.919611  s :     2.919611
      pz      :     1.093199  p :     3.165030
      px      :     0.981915
      py      :     1.089916
      dz2     :     0.027359  d :     0.090725
      dxz     :     0.012766
      dyz     :     0.033444
      dx2y2   :     0.010059
      dxy     :     0.007097

  8 C s       :     2.869891  s :     2.869891
      pz      :     1.041370  p :     3.068342
      px      :     0.960953
      py      :     1.066019
      dz2     :     0.026319  d :     0.091359
      dxz     :     0.004964
      dyz     :     0.029799
      dx2y2   :     0.016253
      dxy     :     0.014024

  9 C s       :     2.863872  s :     2.863872
      pz      :     1.055301  p :     3.072334
      px      :     0.970150
      py      :     1.046883
      dz2     :     0.025111  d :     0.089920
      dxz     :     0.010653
      dyz     :     0.034664
      dx2y2   :     0.011185
      dxy     :     0.008307

 10 C s       :     2.864326  s :     2.864326
      pz      :     1.063948  p :     3.067199
      px      :     0.965394
      py      :     1.037857
      dz2     :     0.027765  d :     0.089946
      dxz     :     0.013036
      dyz     :     0.032280
      dx2y2   :     0.010827
      dxy     :     0.006037

 11 C s       :     2.863611  s :     2.863611
      pz      :     1.035765  p :     3.072412
      px      :     0.972661
      py      :     1.063986
      dz2     :     0.025597  d :     0.090355
      dxz     :     0.005068
      dyz     :     0.030200
      dx2y2   :     0.015679
      dxy     :     0.013811

 12 C s       :     2.865499  s :     2.865499
      pz      :     1.060182  p :     3.071585
      px      :     0.965408
      py      :     1.045996
      dz2     :     0.024552  d :     0.091743
      dxz     :     0.010654
      dyz     :     0.036891
      dx2y2   :     0.011131
      dxy     :     0.008515

 13 H s       :     0.913487  s :     0.913487
      pz      :     0.015533  p :     0.063646
      px      :     0.027651
      py      :     0.020462

 14 H s       :     0.916953  s :     0.916953
      pz      :     0.013419  p :     0.063361
      px      :     0.013171
      py      :     0.036771

 15 H s       :     0.916707  s :     0.916707
      pz      :     0.039121  p :     0.063424
      px      :     0.012129
      py      :     0.012174

 16 H s       :     0.916095  s :     0.916095
      pz      :     0.039713  p :     0.064233
      px      :     0.012096
      py      :     0.012424

 17 H s       :     0.913430  s :     0.913430
      pz      :     0.013575  p :     0.064838
      px      :     0.013088
      py      :     0.038175

 18 H s       :     0.920476  s :     0.920476
      pz      :     0.041896  p :     0.069012
      px      :     0.014493
      py      :     0.012622

 19 H s       :     0.912443  s :     0.912443
      pz      :     0.013731  p :     0.067876
      px      :     0.015137
      py      :     0.039007

 20 H s       :     0.920627  s :     0.920627
      pz      :     0.040654  p :     0.069079
      px      :     0.014900
      py      :     0.013525

 21 H s       :     0.912221  s :     0.912221
      pz      :     0.014283  p :     0.067896
      px      :     0.014180
      py      :     0.039432

 22 H s       :     0.915940  s :     0.915940
      pz      :     0.038037  p :     0.064222
      px      :     0.013585
      py      :     0.012600

 23 H s       :     0.913352  s :     0.913352
      pz      :     0.013695  p :     0.064920
      px      :     0.012842
      py      :     0.038383

 24 H s       :     0.916769  s :     0.916769
      pz      :     0.038015  p :     0.063419
      px      :     0.013071
      py      :     0.012334

 25 H s       :     0.916945  s :     0.916945
      pz      :     0.013400  p :     0.063362
      px      :     0.012246
      py      :     0.037716

 26 H s       :     0.913463  s :     0.913463
      pz      :     0.012649  p :     0.063648
      px      :     0.037342
      py      :     0.013657

 27 H s       :     0.909269  s :     0.909269
      pz      :     0.042181  p :     0.067578
      px      :     0.013739
      py      :     0.011658

 28 H s       :     0.906364  s :     0.906364
      pz      :     0.022466  p :     0.066532
      px      :     0.015117
      py      :     0.028950

 29 H s       :     0.906630  s :     0.906630
      pz      :     0.015282  p :     0.066477
      px      :     0.014293
      py      :     0.036901

 30 H s       :     0.907252  s :     0.907252
      pz      :     0.040802  p :     0.066542
      px      :     0.014070
      py      :     0.011669

 31 H s       :     0.911967  s :     0.911967
      pz      :     0.022760  p :     0.067480
      px      :     0.015330
      py      :     0.029390



                      *****************************
                      * MAYER POPULATION ANALYSIS *
                      *****************************

  NA   - Mulliken gross atomic population
  ZA   - Total nuclear charge
  QA   - Mulliken gross atomic charge
  VA   - Mayer's total valence
  BVA  - Mayer's bonded valence
  FA   - Mayer's free valence

  ATOM       NA         ZA         QA         VA         BVA        FA
  0 C      5.9888     6.0000     0.0112     4.0254     4.0254    -0.0000
  1 C      5.9876     6.0000     0.0124     4.0778     4.0778    -0.0000
  2 C      6.1422     6.0000    -0.1422     3.9282     3.9282    -0.0000
  3 P     14.7831    15.0000     0.2169     2.9922     2.9922    -0.0000
  4 C      6.1439     6.0000    -0.1439     3.9293     3.9293    -0.0000
  5 C      5.9877     6.0000     0.0123     4.0781     4.0781    -0.0000
  6 C      5.9887     6.0000     0.0113     4.0253     4.0253    -0.0000
  7 C      6.1411     6.0000    -0.1411     3.7622     3.7622     0.0000
  8 C      5.9797     6.0000     0.0203     3.8765     3.8765    -0.0000
  9 C      5.9785     6.0000     0.0215     3.8374     3.8374    -0.0000
 10 C      5.9777     6.0000     0.0223     3.8303     3.8303    -0.0000
 11 C      5.9764     6.0000     0.0236     3.8531     3.8531     0.0000
 12 C      5.9881     6.0000     0.0119     3.8760     3.8760     0.0000
 13 H      0.9896     1.0000     0.0104     0.9825     0.9825    -0.0000
 14 H      0.9942     1.0000     0.0058     0.9871     0.9871     0.0000
 15 H      0.9947     1.0000     0.0053     0.9880     0.9880     0.0000
 16 H      0.9934     1.0000     0.0066     0.9799     0.9799     0.0000
 17 H      0.9847     1.0000     0.0153     0.9846     0.9846     0.0000
 18 H      0.9892     1.0000     0.0108     0.9897     0.9897    -0.0000
 19 H      0.9769     1.0000     0.0231     0.9793     0.9793    -0.0000
 20 H      0.9891     1.0000     0.0109     0.9893     0.9893    -0.0000
 21 H      0.9766     1.0000     0.0234     0.9793     0.9793    -0.0000
 22 H      0.9933     1.0000     0.0067     0.9798     0.9798     0.0000
 23 H      0.9843     1.0000     0.0157     0.9850     0.9850     0.0000
 24 H      0.9949     1.0000     0.0051     0.9880     0.9880     0.0000
 25 H      0.9942     1.0000     0.0058     0.9871     0.9871     0.0000
 26 H      0.9895     1.0000     0.0105     0.9826     0.9826     0.0000
 27 H      1.0203     1.0000    -0.0203     0.9955     0.9955     0.0000
 28 H      1.0160     1.0000    -0.0160     0.9775     0.9775     0.0000
 29 H      1.0151     1.0000    -0.0151     0.9773     0.9773     0.0000
 30 H      1.0193     1.0000    -0.0193     0.9770     0.9770     0.0000
 31 H      1.0213     1.0000    -0.0213     0.9858     0.9858     0.0000

  Mayer bond orders larger than 0.100000
B(  0-C ,  1-C ) :   1.1084 B(  0-C , 13-H ) :   0.9664 B(  0-C , 14-H ) :   0.9708 
B(  0-C , 15-H ) :   0.9695 B(  1-C ,  2-C ) :   1.0584 B(  1-C , 16-H ) :   0.9423 
B(  1-C , 17-H ) :   0.9454 B(  2-C ,  3-P ) :   0.9688 B(  2-C , 18-H ) :   0.9284 
B(  2-C , 19-H ) :   0.9419 B(  3-P ,  4-C ) :   0.9686 B(  3-P ,  7-C ) :   0.9139 
B(  4-C ,  5-C ) :   1.0586 B(  4-C , 20-H ) :   0.9281 B(  4-C , 21-H ) :   0.9417 
B(  5-C ,  6-C ) :   1.1085 B(  5-C , 22-H ) :   0.9423 B(  5-C , 23-H ) :   0.9451 
B(  6-C , 24-H ) :   0.9694 B(  6-C , 25-H ) :   0.9708 B(  6-C , 26-H ) :   0.9664 
B(  7-C ,  8-C ) :   1.3994 B(  7-C , 12-C ) :   1.3506 B(  8-C ,  9-C ) :   1.3780 
B(  8-C , 27-H ) :   0.9849 B(  9-C , 10-C ) :   1.3924 B(  9-C , 28-H ) :   0.9858 
B( 10-C , 11-C ) :   1.3708 B( 10-C , 29-H ) :   0.9843 B( 11-C , 12-C ) :   1.4129 
B( 11-C , 30-H ) :   0.9830 B( 12-C , 31-H ) :   0.9789 

-------
TIMINGS
-------

Total SCF time: 0 days 0 hours 0 min 10 sec 

Total time                  ....      10.113 sec
Sum of individual times     ....      10.055 sec  ( 99.4%)

SCF preparation             ....       0.102 sec  (  1.0%)
Fock matrix formation       ....       9.683 sec  ( 95.7%)
  Startup                   ....       0.017 sec  (  0.2% of F)
  Exchange formation        ....       7.004 sec  ( 72.3% of F)
  Split-RI-J                ....       0.891 sec  (  9.2% of F)
  XC integration            ....       1.706 sec  ( 17.6% of F)
    Basis function eval.    ....       0.548 sec  ( 32.1% of XC)
    Density eval.           ....       0.483 sec  ( 28.3% of XC)
    XC-Functional eval.     ....       0.039 sec  (  2.3% of XC)
    XC-Potential eval.      ....       0.336 sec  ( 19.7% of XC)
Diagonalization             ....       0.000 sec  (  0.0%)
Density matrix formation    ....       0.034 sec  (  0.3%)
Total Energy calculation    ....       0.016 sec  (  0.2%)
Population analysis         ....       0.063 sec  (  0.6%)
Orbital Transformation      ....       0.022 sec  (  0.2%)
Orbital Orthonormalization  ....       0.000 sec  (  0.0%)
DIIS solution               ....       0.027 sec  (  0.3%)
SOSCF solution              ....       0.108 sec  (  1.1%)
Finished LeanSCF after  10.2 sec

Maximum memory used throughout the entire LEANSCF-calculation: 29.0 MB


-------------------------------------------------------------------------------
                          DFT DISPERSION CORRECTION                            
                                                                               
                              DFTD3 V3.1  Rev 1                                
                          USING Becke-Johnson damping                          
-------------------------------------------------------------------------------
The B3LYP functional is recognized
Active option DFTDOPT                   ...         4   

molecular C6(AA) [au] = 10239.198018 


            DFT-D V3
 parameters
 s6 scaling factor         :     1.0000 
 a1 scaling factor         :     0.3981 
 s8 scaling factor         :     1.9889 
 a2 scaling factor         :     4.4211 
 ad hoc parameters k1-k3   :    16.0000     1.3333    -4.0000 

 Edisp/kcal,au: -38.773979126118  -0.061790262287 
 E6   /kcal   : -18.105471276 
 E8   /kcal   : -20.668507850 
 % E8         :  53.305098719 

-------------------------   ----------------
Dispersion correction           -0.061790262
-------------------------   ----------------


-------------------------   --------------------
FINAL SINGLE POINT ENERGY      -809.329180376361
-------------------------   --------------------

                                *** OPTIMIZATION RUN DONE ***



           ************************************************************
           *        Program running with 6 parallel MPI-processes     *
           *              working on a common directory               *
           ************************************************************

------------------------------------------------------------------------------
                              ORCA PROPERTY CALCULATIONS
------------------------------------------------------------------------------

GBWName                                 ... data/geom_opt/292611/292611.gbw
Number of atoms                         ...     32
Number of basis functions               ...    281
Max core memory                         ...   1024 MB

Electric properties:
Dipole moment                           ... YES
Quadrupole moment                       ...  NO
Static polarizability (Dipole/Dipole)   ...  NO
Static polarizability (Dipole/Quad.)    ...  NO
Static polarizability (Quad./Quad.)     ...  NO
Static polarizability (Velocity)        ...  NO

Atomic electric properties:
Dipole moment                           ...  NO
Quadrupole moment                       ...  NO
Static polarizability                   ...  NO

Choice of electric origin               ... Center of mass
Position of electric origin             ...    -0.126955     0.461050    -0.314066

General magnetic properties:
Magnetizability                         ...  NO

EPR properties:
g-Tensor (aka g-matrix)                 ...  NO
Zero-Field splitting spin-orbit         ...  NO
Zero-field splitting spin-spin          ...  NO
Hyperfine couplings                     ...  NO (   0 nuclei)
Quadrupole couplings                    ...  NO (   0 nuclei)
Contact density                         ...  NO (   0 nuclei)

NMR properties:
Chemical shifts                         ...  NO (   0 nuclei)
Spin-rotation constants                 ...  NO (   0 nuclei)
Spin-spin couplings                     ...  NO (   0 nuclei,    0 pairs)

Choice of magnetic origin               ... GIAO
Position of magnetic origin             ...     0.000000     0.000000     0.000000

Properties with geometric perturbations:
SCF Hessian                             ...  NO
IR spectrum                             ...  NO
VCD spectrum                            ...  NO
X-ray spectroscopy properties:
SCF XES/XAS/RIXS spectra                ...  NO


-------------
DIPOLE MOMENT
-------------

Method             : SCF
Type of density    : Electron Density
Multiplicity       :   1
Irrep              :   0
Energy             :  -809.2673901140740327 Eh
Relativity type    : 
Basis              : AO
                                X                 Y                 Z
Electronic contribution:     -2.210225778       8.750890877      -4.334139936
Nuclear contribution   :      2.246214227      -8.663060534       4.770722729
                        -----------------------------------------
Total Dipole Moment    :      0.035988449       0.087830343       0.436582793
                        -----------------------------------------
Magnitude (a.u.)       :      0.446781684
Magnitude (Debye)      :      1.135628791



--------------------
Rotational spectrum 
--------------------
 
Rotational constants in cm-1:             0.020470             0.018902             0.011617 
Rotational constants in MHz :           613.665672           566.668223           348.260759 

Dipole components along the rotational axes: 
x,y,z [a.u.] :    -0.004214     0.142957     0.423272 
x,y,z [Debye]:    -0.010712     0.363367     1.075873 

 

Dipole moment calculation done in   0.0 sec 

Maximum memory used throughout the entire PROP-calculation: 14.1 MB

--------------------------------
SUGGESTED CITATIONS FOR THIS RUN
--------------------------------

Below you find a list of papers that are relevant to this ORCA run
We neither can nor want to force you to cite these papers, but we appreciate if you do
You receive ORCA, which is the product of decades of hard work by many enthusiastic individuals, for free
The only thing we kindly ask in return is that you cite our papers,
We deeply appreciate it, if you show your appreciation for ORCA by not just citing the generic ORCA reference.

Please note that relegating all ORCA citations to the supporting information does *not* help us.
SI sections are not indexed - citations you put there will not count into any citation statistics
But we need these citations in order to attract the funding resources that allow us to do what we are doing

Therefore, if you are a happy ORCA user, please consider citing a few of the papers listed below in the main body of your paper

In addition to the list printed below, the program has created the file data/geom_opt/292611/292611.bibtex that contains the list in bibtex format
You can import this file easily into all common literature databanks and citation aid programs


List of essential papers. We consider these as the minimum necessary citations

  1. Neese,F.
     Software update: the ORCA program system, version 5.0
     WIRES Comput. Molec. Sci., 2022 12(1)e1606
     doi.org/10.1002/wcms.1606

List of papers to cite with high priority. The work reported in these papers was absolutely
necessary for this run to complete.
Our perspective: the developers of density functionals and basis sets usually get cited in chemistry papers
Good! But without the algorithms to do something with them, the functionals or basis sets would not do anything.
Hence, in our opinion, the algorithm design and method developments papers are equally worthy of getting cited

  1. Neese,F.
     An improvement of the resolution of the identity approximation for the formation of the Coulomb matrix
     J. Comp. Chem., 2003 24(14)1740-1747
     doi.org/10.1002/jcc.10318
  2. Neese,F.
     The SHARK Integral Generation and Digestion System
     J. Comp. Chem., 2022  1-16
     doi.org/10.1002/jcc.26942
  3. Grimme,S.; Antony,J.; Ehrlich,S.; Krieg,H.
     A consistent and accurate ab initio parametrization of density functional dispersion correction (DFT-D) for the 94 elements H-Pu
     J. Chem. Phys., 2010 132 154104-XXXX
     doi.org/10.1063/1.3382344
  4. Grimme,S.; Ehrlich,S.; Goerigk,L.
     Effect of the damping function in dispersion corrected density functional theory
     J. Comput. Chem., 2011 32(7)1456-1465
     doi.org/10.1002/jcc.21759

List of suggested additional citations. These are papers that are important in the 'surrounding' of 
of this run, or papers that preceded the highly important papers. If you like your results we are grateful for a citation.

  1. Neese,F.
     The ORCA program system
     WIRES Comput. Molec. Sci., 2012 2(1)73-78
     doi.org/10.1002/wcms.81
  2. Neese,F.
     Software update: the ORCA program system, version 4.0
     WIRES Comput. Molec. Sci., 2018 8(1)1-6
     doi.org/10.1002/wcms.1327
  3. Neese,F.; Wennmohs,F.; Becker,U.; Riplinger,C.
     The ORCA quantum chemistry program package
     J. Chem. Phys., 2020 152 Art. No. L224108
     doi.org/10.1063/5.0004608

List of optional additional citations

  1. Neese,F.
     Approximate second-order SCF convergence for spin unrestricted wavefunctions
     Chem. Phys. Lett., 2000 325(1-3)93-98
     doi.org/10.1016/s0009-2614(00)00662-x

Timings for individual modules:

Sum of individual times          ...      161.125 sec (=   2.685 min)
Startup calculation              ...        6.290 sec (=   0.105 min)   3.9 %
SCF iterations                   ...       99.688 sec (=   1.661 min)  61.9 %
Property calculations            ...        0.148 sec (=   0.002 min)   0.1 %
SCF Gradient evaluation          ...       54.918 sec (=   0.915 min)  34.1 %
Geometry relaxation              ...        0.081 sec (=   0.001 min)   0.1 %
                             ****ORCA TERMINATED NORMALLY****
TOTAL RUN TIME: 0 days 0 hours 2 minutes 42 seconds 395 msec
