
                                 *****************
                                 * O   R   C   A *
                                 *****************

                                            #,                                       
                                            ###                                      
                                            ####                                     
                                            #####                                    
                                            ######                                   
                                           ########,                                 
                                     ,,################,,,,,                         
                               ,,#################################,,                 
                          ,,##########################################,,             
                       ,#########################################, ''#####,          
                    ,#############################################,,   '####,        
                  ,##################################################,,,,####,       
                ,###########''''           ''''###############################       
              ,#####''   ,,,,##########,,,,          '''####'''          '####       
            ,##' ,,,,###########################,,,                        '##       
           ' ,,###''''                  '''############,,,                           
         ,,##''                                '''############,,,,        ,,,,,,###''
      ,#''                                            '''#######################'''  
     '                                                          ''''####''''         
             ,#######,   #######,   ,#######,      ##                                
            ,#'     '#,  ##    ##  ,#'     '#,    #''#        ,####,   ,####,        
            ##       ##  ##   ,#'  ##            #'  '#       #'       #'  '#        
            ##       ##  #######   ##           ,######,      #####,   #    #        
            '#,     ,#'  ##    ##  '#,     ,#' ,#      #,     #,   #   #,  ,#        
             '#######'   ##     ##  '#######'  #'      '#     '####' # '####'        



                #########################################################
                #                        -***-                          #
                #          Department of theory and spectroscopy        #
                #                                                       #
                #                      Frank Neese                      #
                #                                                       #
                #     Directorship, Architecture, Infrastructure        #
                #                    SHARK, DRIVERS                     #
                #        Core code/Algorithms in most modules           #
                #                                                       #
                #        Max Planck Institute fuer Kohlenforschung      #
                #                Kaiser Wilhelm Platz 1                 #
                #                 D-45470 Muelheim/Ruhr                 #
                #                      Germany                          #
                #                                                       #
                #                  All rights reserved                  #
                #                        -***-                          #
                #########################################################


                         Program Version 6.0.0  -   RELEASE   -


 With contributions from (in alphabetic order):
   Daniel Aravena         : Magnetic Suceptibility
   Michael Atanasov       : Ab Initio Ligand Field Theory (pilot matlab implementation)
   Alexander A. Auer      : GIAO ZORA, VPT2 properties, NMR spectrum
   Ute Becker             : All parallelization in ORCA, NUMFREQ, NUMCALC
   Giovanni Bistoni       : ED, misc. LED, open-shell LED, HFLD
   Martin Brehm           : Molecular dynamics
   Dmytro Bykov           : pre 5.0 version of the SCF Hessian
   Marcos Casanova-Páez   : Triplet and SCS-CIS(D). UHF-(DLPNO)-IP/EA/STEOM-CCSD. UHF-CVS-IP/STEOM-CCSD
   Vijay G. Chilkuri      : MRCI spin determinant printing, contributions to CSF-ICE
   Pauline Colinet        : FMM embedding
   Dipayan Datta          : RHF DLPNO-CCSD density
   Achintya Kumar Dutta   : EOM-CC, STEOM-CC
   Nicolas Foglia         : Exact transition moments, OPA infrastructure, MCD improvements
   Dmitry Ganyushin       : Spin-Orbit,Spin-Spin,Magnetic field MRCI
   Miquel Garcia          : C-PCM and meta-GGA Hessian, CCSD/C-PCM, Gaussian charge scheme
   Tiago L. C. Gouveia    : GS-ROHF, GS-ROCIS
   Yang Guo               : DLPNO-NEVPT2, F12-NEVPT2, CIM, IAO-localization
   Andreas Hansen         : Spin unrestricted coupled pair/coupled cluster methods
   Ingolf Harden          : AUTO-CI MPn and infrastructure 
   Benjamin Helmich-Paris : MC-RPA, TRAH-(SCF,CASSCF), AVAS, COSX integrals, SCF dyn. polar.
   Lee Huntington         : MR-EOM, pCC
   Robert Izsak           : Overlap fitted RIJCOSX, COSX-SCS-MP3, EOM
   Riya Kayal             : Wick's Theorem for AUTO-CI, AUTO-CI UHF-CCSDT
   Emily Kempfer          : AUTO-CI, RHF CISDT and CCSDT
   Christian Kollmar      : KDIIS, OOCD, Brueckner-CCSD(T), CCSD density, CASPT2, CASPT2-K, improved NEVPT2
   Axel Koslowski         : Symmetry handling
   Simone Kossmann        : Meta GGA functionals, TD-DFT gradient, OOMP2, (MP2 Hessian; deprecated post 5.0)
   Lucas Lang             : DCDCAS
   Marvin Lechner         : AUTO-CI (C++ implementation), FIC-MRCC
   Spencer Leger          : CASSCF response
   Dagmar Lenk            : GEPOL surface, SMD, ORCA-2-JSON
   Dimitrios Liakos       : Extrapolation schemes; Compound Job, initial MDCI parallelization
   Dimitrios Manganas     : Further ROCIS development; embedding schemes. LFT, Crystal Embedding
   Dimitrios Pantazis     : SARC Basis sets
   Anastasios Papadopoulos: AUTO-CI, single reference methods and gradients
   Taras Petrenko         : pre 6.0 DFT Hessian and TD-DFT gradient, (ASA, deprecated), ECA, 1-Electron XAS/XES, NRVS
   Peter Pinski           : DLPNO-MP2, DLPNO-MP2 Gradient
   Christoph Reimann      : Effective Core Potentials
   Marius Retegan         : Local ZFS, SOC
   Christoph Riplinger    : Optimizer, TS searches, QM/MM, DLPNO-CCSD(T), (RO)-DLPNO pert. Triples
   Michael Roemelt        : Original ROCIS implementation
   Masaaki Saitow         : Open-shell DLPNO-CCSD energy and density
   Barbara Sandhoefer     : DKH picture change effects
   Kantharuban Sivalingam : CASSCF convergence/infrastructure, NEVPT2 and variants, FIC-MRCI
   Bernardo de Souza      : ESD, SOC TD-DFT
   Georgi Stoychev        : AutoAux, RI-MP2 NMR, DLPNO-MP2 response, X2C
   Van Anh Tran           : RI-MP2 g-tensors
   Willem Van den Heuvel  : Paramagnetic NMR
   Zikuan Wang            : NOTCH, Electric field optimization 
   Frank Wennmohs         : Technical directorship and infrastructure
   Hang Xu                : AUTO-CI-Response properties 


 We gratefully acknowledge several colleagues who have allowed us to
 interface, adapt or use parts of their codes:
   Stefan Grimme, W. Hujo, H. Kruse, P. Pracht,  : VdW corrections, initial TS optimization,
                  C. Bannwarth, S. Ehlert,         DFT functionals, gCP, sTDA/sTD-DF
                  L. Wittmann, M. Mueller
   Ed Valeev, F. Pavosevic, A. Kumar             : LibInt (2-el integral package), F12 methods
   Garnet Chan, S. Sharma, J. Yang, R. Olivares  : DMRG
   Ulf Ekstrom                                   : XCFun DFT Library
   Mihaly Kallay                                 : mrcc  (arbitrary order and MRCC methods)
   Frank Weinhold                                : gennbo (NPA and NBO analysis)
   Simon Mueller                                 : openCOSMO-RS
   Christopher J. Cramer and Donald G. Truhlar   : smd solvation model
   Lars Goerigk                                  : TD-DFT with DH, B97 family of functionals
   V. Asgeirsson, H. Jonsson                     : NEB implementation
   FAccTs GmbH                                   : IRC, NEB, NEB-TS, DLPNO-Multilevel, CI-OPT
                                                   MM, QMMM, 2- and 3-layer-ONIOM, Crystal-QMMM,
                                                   LR-CPCM, SF, NACMEs, symmetry and pop. for TD-DFT,
                                                   nearIR, NL-DFT gradient (VV10), updates on ESD,
                                                   ML-optimized integration grids, MBIS, APM,
                                                   GOAT, DOCKER, SOLVATOR, interface openCOSMO-RS
   S Lehtola, MJT Oliveira, MAL Marques          : LibXC Library
   Liviu Ungur et al                             : ANISO software


 Your calculation uses the libint2 library for the computation of 2-el integrals
 For citations please refer to: http://libint.valeyev.net

 Your ORCA version has been built with support for libXC version: 6.2.2
 For citations please refer to: https://libxc.gitlab.io

 This ORCA versions uses:
   CBLAS   interface :  Fast vector & matrix operations
   LAPACKE interface :  Fast linear algebra routines
   Shared memory     :  Shared parallel matrices


Your calculation utilizes the atom-pairwise dispersion correction
with the zero-damping scheme (D30)


XCFun DFT library Copyright 2009-2010 Ulf Ekstrom and contributors.
See http://admol.org/xcfun for more information.
This is free software; see the source code for copying conditions.
There is ABSOLUTELY NO WARRANTY; not even for MERCHANTABILITY or FITNESS FOR A PARTICULAR PURPOSE.
For details see the documentation.
Scientific users of this library should cite U. Ekstrom, L. Visscher, R. Bast, A. J. Thorvaldsen and K. Ruud;
J.Chem.Theor.Comp. 2010, DOI: 10.1021/ct100117s
XCFun Version 0.99 

Warning: RI is on but no J-basis has been assigned. Assigning Def2/J (nothing to worry about!)
================================================================================

----- Orbital basis set information -----
Your calculation utilizes the basis: def2-TZVP
   F. Weigend and R. Ahlrichs, Phys. Chem. Chem. Phys. 7, 3297 (2005).

----- AuxJ basis set information -----
Your calculation utilizes the auxiliary basis: def2/J
   F. Weigend, Phys. Chem. Chem. Phys. 8, 1057 (2006).

================================================================================
                                        WARNINGS
                       Please study these warnings very carefully!
================================================================================

WARNING: Functional chosen is sensitive to the integration grid.
         DEFGRID3 seems to be a minimum grid for robust results!

================================================================================
                                       INPUT FILE
================================================================================
NAME = data/single_point_PO_M06-2x/11437688/11437688.inp
|  1> ! RIJCOSX M062X def2-TZVP D3ZERO NormalSCF
|  2> %pal
|  3> nprocs 6
|  4> end
|  5> 
|  6> * xyz 0 1
|  7>   C           5.43890353409871     -1.32893801140938      1.88448430792332
|  8>   C           4.94418018312355     -1.23335955830447      0.63129715680536
|  9>   C           3.54210790826036     -1.01185810641057      0.24084040753926
| 10>   C           3.21509332615402     -0.93689806163391     -1.13492933229482
| 11>   C           1.89807084525417     -0.72592275136701     -1.56010939623901
| 12>   C           0.86832986095211     -0.57677751457018     -0.61080496186187
| 13>   C           1.17327925984189     -0.66892139038685      0.76433261761033
| 14>   C           2.49128189768705     -0.87878330340949      1.18205595456208
| 15>   P          -0.81415688388139     -0.27284128482634     -1.26338807532498
| 16>   O          -1.02292313703972     -0.83194591796079     -2.66075859993318
| 17>   C          -1.95515201764348     -0.98683385957094     -0.02030191771894
| 18>   C          -2.35710536433063     -0.30878584264424      1.14787702662996
| 19>   C          -3.21729949924721     -0.93963746189415      2.06159247296911
| 20>   C          -3.68297717955610     -2.24093079558164      1.80650647646845
| 21>   C          -3.29589555430355     -2.91091171043093      0.63248707584020
| 22>   C          -2.43570384659440     -2.28586397862587     -0.28291803134863
| 23>   C          -1.05758391328728      1.54066600992487     -1.16825302676542
| 24>   C          -1.91998246911102      2.10830683277676     -2.12808341930478
| 25>   C          -2.17592137014067      3.48773455085289     -2.10876660546329
| 26>   C          -1.56897631115551      4.30364411807795     -1.13781169932522
| 27>   C          -0.69598855543238      3.74148445747304     -0.19058406122973
| 28>   C          -0.43472929419477      2.36156980757695     -0.20663293077939
| 29>   H           4.80267513425798     -1.24576660683618      2.78004860657854
| 30>   H           6.51260688549519     -1.49603686138879      2.05675800368736
| 31>   H           5.64720371158642     -1.32721355712395     -0.21538398304069
| 32>   H           4.01724264022446     -1.05304348809404     -1.88119597264971
| 33>   H           1.64387538728904     -0.68703239688399     -2.63059704156514
| 34>   H           0.36948255352447     -0.59451819350688      1.51311653386144
| 35>   H           2.70843606184583     -0.95102437206840      2.25819828433575
| 36>   H          -2.01277205657003      0.72014598921724      1.33478432319932
| 37>   H          -3.53368539123105     -0.40890916614653      2.97271950765835
| 38>   H          -4.35998580076993     -2.73213840928402      2.52230249478383
| 39>   H          -3.67230874628678     -3.92479277737359      0.42665524769072
| 40>   H          -2.13530493808237     -2.78314011400511     -1.21824259103942
| 41>   H          -2.36824670535387      1.45317258051336     -2.89115470210693
| 42>   H          -2.84843859491259      3.93111621660992     -2.85918753897879
| 43>   H          -1.76931867883784      5.38609750006944     -1.12548032701233
| 44>   H          -0.20757392035574      4.38280730644971      0.55913326123218
| 45>   H           0.26925903872306      1.92607812219608      0.51939345460671
| 46> **                         ****END OF INPUT****
================================================================================

                       ****************************
                       * Single Point Calculation *
                       ****************************

---------------------------------
CARTESIAN COORDINATES (ANGSTROEM)
---------------------------------
  C      5.438904   -1.328938    1.884484
  C      4.944180   -1.233360    0.631297
  C      3.542108   -1.011858    0.240840
  C      3.215093   -0.936898   -1.134929
  C      1.898071   -0.725923   -1.560109
  C      0.868330   -0.576778   -0.610805
  C      1.173279   -0.668921    0.764333
  C      2.491282   -0.878783    1.182056
  P     -0.814157   -0.272841   -1.263388
  O     -1.022923   -0.831946   -2.660759
  C     -1.955152   -0.986834   -0.020302
  C     -2.357105   -0.308786    1.147877
  C     -3.217299   -0.939637    2.061592
  C     -3.682977   -2.240931    1.806506
  C     -3.295896   -2.910912    0.632487
  C     -2.435704   -2.285864   -0.282918
  C     -1.057584    1.540666   -1.168253
  C     -1.919982    2.108307   -2.128083
  C     -2.175921    3.487735   -2.108767
  C     -1.568976    4.303644   -1.137812
  C     -0.695989    3.741484   -0.190584
  C     -0.434729    2.361570   -0.206633
  H      4.802675   -1.245767    2.780049
  H      6.512607   -1.496037    2.056758
  H      5.647204   -1.327214   -0.215384
  H      4.017243   -1.053043   -1.881196
  H      1.643875   -0.687032   -2.630597
  H      0.369483   -0.594518    1.513117
  H      2.708436   -0.951024    2.258198
  H     -2.012772    0.720146    1.334784
  H     -3.533685   -0.408909    2.972720
  H     -4.359986   -2.732138    2.522302
  H     -3.672309   -3.924793    0.426655
  H     -2.135305   -2.783140   -1.218243
  H     -2.368247    1.453173   -2.891155
  H     -2.848439    3.931116   -2.859188
  H     -1.769319    5.386098   -1.125480
  H     -0.207574    4.382807    0.559133
  H      0.269259    1.926078    0.519393

----------------------------
CARTESIAN COORDINATES (A.U.)
----------------------------
  NO LB      ZA    FRAG     MASS         X           Y           Z
   0 C     6.0000    0    12.011   10.278038   -2.511329    3.561159
   1 C     6.0000    0    12.011    9.343147   -2.330712    1.192979
   2 C     6.0000    0    12.011    6.693614   -1.912135    0.455122
   3 C     6.0000    0    12.011    6.075646   -1.770481   -2.144706
   4 C     6.0000    0    12.011    3.586834   -1.371795   -2.948179
   5 C     6.0000    0    12.011    1.640906   -1.089952   -1.154254
   6 C     6.0000    0    12.011    2.217176   -1.264078    1.444379
   7 C     6.0000    0    12.011    4.707841   -1.660660    2.233762
   8 P    15.0000    0    30.974   -1.538534   -0.515595   -2.387457
   9 O     8.0000    0    15.999   -1.933045   -1.572150   -5.028105
  10 C     6.0000    0    12.011   -3.694702   -1.864846   -0.038365
  11 C     6.0000    0    12.011   -4.454284   -0.583521    2.169173
  12 C     6.0000    0    12.011   -6.079815   -1.775657    3.895845
  13 C     6.0000    0    12.011   -6.959818   -4.234745    3.413802
  14 C     6.0000    0    12.011   -6.228340   -5.500826    1.195227
  15 C     6.0000    0    12.011   -4.602813   -4.319657   -0.534638
  16 C     6.0000    0    12.011   -1.998544    2.911437   -2.207678
  17 C     6.0000    0    12.011   -3.628241    3.984123   -4.021495
  18 C     6.0000    0    12.011   -4.111895    6.590863   -3.984991
  19 C     6.0000    0    12.011   -2.964936    8.132709   -2.150153
  20 C     6.0000    0    12.011   -1.315228    7.070381   -0.360152
  21 C     6.0000    0    12.011   -0.821519    4.462720   -0.390480
  22 H     1.0000    0     1.008    9.075741   -2.354158    5.253531
  23 H     1.0000    0     1.008   12.307043   -2.827100    3.886709
  24 H     1.0000    0     1.008   10.671668   -2.508070   -0.407017
  25 H     1.0000    0     1.008    7.591488   -1.989964   -3.554945
  26 H     1.0000    0     1.008    3.106474   -1.298303   -4.971108
  27 H     1.0000    0     1.008    0.698221   -1.123477    2.859376
  28 H     1.0000    0     1.008    5.118202   -1.797176    4.267376
  29 H     1.0000    0     1.008   -3.803588    1.360879    2.522377
  30 H     1.0000    0     1.008   -6.677698   -0.772726    5.617626
  31 H     1.0000    0     1.008   -8.239179   -5.162993    4.766461
  32 H     1.0000    0     1.008   -6.939658   -7.416783    0.806262
  33 H     1.0000    0     1.008   -4.035142   -5.259373   -2.302145
  34 H     1.0000    0     1.008   -4.475338    2.746098   -5.463491
  35 H     1.0000    0     1.008   -5.382769    7.428733   -5.403081
  36 H     1.0000    0     1.008   -3.343528   10.178249   -2.126850
  37 H     1.0000    0     1.008   -0.392258    8.282306    1.056609
  38 H     1.0000    0     1.008    0.508826    3.639760    0.981511

--------------------------------
INTERNAL COORDINATES (ANGSTROEM)
--------------------------------
 C      0   0   0     0.000000000000     0.00000000     0.00000000
 C      1   0   0     1.350690368080     0.00000000     0.00000000
 C      2   1   0     1.472184101999   127.26876040     0.00000000
 C      3   2   1     1.416086128124   119.04961860   179.85214570
 C      4   3   2     1.399941742900   121.35195762   180.08767188
 C      5   4   3     1.408470697437   119.93775167     0.32332139
 C      6   5   4     1.411555167966   119.45558788   358.73129030
 C      7   6   5     1.398451201200   120.29178626     1.32444681
 P      6   5   4     1.830028305319   116.70542201   178.85498426
 O      9   6   5     1.519482057246   113.15029455    26.51061218
 C      9   6   5     1.832189533670   105.41923635   150.81248018
 C     11   9   6     1.409240097425   123.54136668    82.82423181
 C     12  11   9     1.404558162603   119.85682911   181.14245522
 C     13  12  11     1.405449717296   120.04700779   359.57588919
 C     14  13  12     1.406068335438   120.09992310   359.59641389
 C     15  14  13     1.403061278531   120.08379750     0.46944034
 C      9   6   5     1.832243462050   105.54618391   262.22101130
 C     17   9   6     1.409688531307   116.38993247   150.75198405
 C     18  17   9     1.403103235601   119.87400134   178.95397754
 C     19  18  17     1.406002900520   120.08453318     0.28241465
 C     20  19  18     1.405479030091   120.09531848     0.50625212
 C     21  20  19     1.404520704295   120.05344927   359.58925807
 H      1   2   3     1.101698448909   122.50331808     0.03571372
 H      1   2   3     1.100199590400   120.89600831   180.03280367
 H      2   1   3     1.104499709026   118.16987288   179.94598674
 H      4   3   2     1.101747330679   118.96999416     0.41155481
 H      5   4   3     1.100941228821   121.18805159   181.16607168
 H      7   6   5     1.101046018125   120.02614828   182.47543021
 H      8   7   6     1.100207715363   119.21219063   180.19592702
 H     12  11   9     1.100999763380   120.07737638     2.28256014
 H     13  12  11     1.100874665843   119.86027292   180.17852773
 H     14  13  12     1.100903961658   119.92523740   180.21688852
 H     15  14  13     1.100912553513   120.05342863   180.85171346
 H     16  15  14     1.101069975530   121.35172784   181.23780293
 H     18  17   9     1.101099221969   118.77216453   358.03238759
 H     19  18  17     1.100907941929   119.86717726   179.92304608
 H     20  19  18     1.100906195466   119.98383690   179.87281081
 H     21  20  19     1.100872343179   120.10184654   178.97417149
 H     22  21  20     1.101075334933   119.99877533   178.42856640

---------------------------
INTERNAL COORDINATES (A.U.)
---------------------------
 C      0   0   0     0.000000000000     0.00000000     0.00000000
 C      1   0   0     2.552434887397     0.00000000     0.00000000
 C      2   1   0     2.782024771491   127.26876040     0.00000000
 C      3   2   1     2.676014964200   119.04961860   179.85214570
 C      4   3   2     2.645506497525   121.35195762   180.08767188
 C      5   4   3     2.661623885809   119.93775167     0.32332139
 C      6   5   4     2.667452690376   119.45558788   358.73129030
 C      7   6   5     2.642689781922   120.29178626     1.32444681
 P      6   5   4     3.458252314377   116.70542201   178.85498426
 O      9   6   5     2.871404953603   113.15029455    26.51061218
 C      9   6   5     3.462336444074   105.41923635   150.81248018
 C     11   9   6     2.663077841074   123.54136668    82.82423181
 C     12  11   9     2.654230266483   119.85682911   181.14245522
 C     13  12  11     2.655915060687   120.04700779   359.57588919
 C     14  13  12     2.657084079557   120.09992310   359.59641389
 C     15  14  13     2.651401565533   120.08379750     0.46944034
 C      9   6   5     3.462438353943   105.54618391   262.22101130
 C     17   9   6     2.663925258299   116.38993247   150.75198405
 C     18  17   9     2.651480852905   119.87400134   178.95397754
 C     19  18  17     2.656960425481   120.08453318     0.28241465
 C     20  19  18     2.655970453841   120.09531848     0.50625212
 C     21  20  19     2.654159480540   120.05344927   359.58925807
 H      1   2   3     2.081908350604   122.50331808     0.03571372
 H      1   2   3     2.079075918509   120.89600831   180.03280367
 H      2   1   3     2.087201965054   118.16987288   179.94598674
 H      4   3   2     2.082000723762   118.96999416     0.41155481
 H      5   4   3     2.080477412014   121.18805159   181.16607168
 H      7   6   5     2.080675435101   120.02614828   182.47543021
 H      8   7   6     2.079091272462   119.21219063   180.19592702
 H     12  11   9     2.080588026300   120.07737638     2.28256014
 H     13  12  11     2.080351626216   119.86027292   180.17852773
 H     14  13  12     2.080406987282   119.92523740   180.21688852
 H     15  14  13     2.080423223536   120.05342863   180.85171346
 H     16  15  14     2.080720708035   121.35172784   181.23780293
 H     18  17   9     2.080775975795   118.77216453   358.03238759
 H     19  18  17     2.080414508905   119.86717726   179.92304608
 H     20  19  18     2.080411208569   119.98383690   179.87281081
 H     21  20  19     2.080347237016   120.10184654   178.97417149
 H     22  21  20     2.080730835838   119.99877533   178.42856640

---------------------
BASIS SET INFORMATION
---------------------
There are 4 groups of distinct atoms

 Group   1 Type C   : 11s6p2d1f contracted to 5s3p2d1f pattern {62111/411/11/1}
 Group   2 Type P   : 14s9p3d1f contracted to 5s5p2d1f pattern {73211/51111/21/1}
 Group   3 Type O   : 11s6p2d1f contracted to 5s3p2d1f pattern {62111/411/11/1}
 Group   4 Type H   : 5s1p contracted to 3s1p pattern {311/1}

Atom   0C    basis set group =>   1
Atom   1C    basis set group =>   1
Atom   2C    basis set group =>   1
Atom   3C    basis set group =>   1
Atom   4C    basis set group =>   1
Atom   5C    basis set group =>   1
Atom   6C    basis set group =>   1
Atom   7C    basis set group =>   1
Atom   8P    basis set group =>   2
Atom   9O    basis set group =>   3
Atom  10C    basis set group =>   1
Atom  11C    basis set group =>   1
Atom  12C    basis set group =>   1
Atom  13C    basis set group =>   1
Atom  14C    basis set group =>   1
Atom  15C    basis set group =>   1
Atom  16C    basis set group =>   1
Atom  17C    basis set group =>   1
Atom  18C    basis set group =>   1
Atom  19C    basis set group =>   1
Atom  20C    basis set group =>   1
Atom  21C    basis set group =>   1
Atom  22H    basis set group =>   4
Atom  23H    basis set group =>   4
Atom  24H    basis set group =>   4
Atom  25H    basis set group =>   4
Atom  26H    basis set group =>   4
Atom  27H    basis set group =>   4
Atom  28H    basis set group =>   4
Atom  29H    basis set group =>   4
Atom  30H    basis set group =>   4
Atom  31H    basis set group =>   4
Atom  32H    basis set group =>   4
Atom  33H    basis set group =>   4
Atom  34H    basis set group =>   4
Atom  35H    basis set group =>   4
Atom  36H    basis set group =>   4
Atom  37H    basis set group =>   4
Atom  38H    basis set group =>   4
---------------------------------
AUXILIARY/J BASIS SET INFORMATION
---------------------------------
There are 4 groups of distinct atoms

 Group   1 Type C   : 12s5p4d2f1g contracted to 6s4p3d1f1g pattern {711111/2111/211/2/1}
 Group   2 Type P   : 14s5p5d2f1g contracted to 8s4p3d1f1g pattern {71111111/2111/311/2/1}
 Group   3 Type O   : 12s5p4d2f1g contracted to 6s4p3d1f1g pattern {711111/2111/211/2/1}
 Group   4 Type H   : 5s2p1d contracted to 3s1p1d pattern {311/2/1}

Atom   0C    basis set group =>   1
Atom   1C    basis set group =>   1
Atom   2C    basis set group =>   1
Atom   3C    basis set group =>   1
Atom   4C    basis set group =>   1
Atom   5C    basis set group =>   1
Atom   6C    basis set group =>   1
Atom   7C    basis set group =>   1
Atom   8P    basis set group =>   2
Atom   9O    basis set group =>   3
Atom  10C    basis set group =>   1
Atom  11C    basis set group =>   1
Atom  12C    basis set group =>   1
Atom  13C    basis set group =>   1
Atom  14C    basis set group =>   1
Atom  15C    basis set group =>   1
Atom  16C    basis set group =>   1
Atom  17C    basis set group =>   1
Atom  18C    basis set group =>   1
Atom  19C    basis set group =>   1
Atom  20C    basis set group =>   1
Atom  21C    basis set group =>   1
Atom  22H    basis set group =>   4
Atom  23H    basis set group =>   4
Atom  24H    basis set group =>   4
Atom  25H    basis set group =>   4
Atom  26H    basis set group =>   4
Atom  27H    basis set group =>   4
Atom  28H    basis set group =>   4
Atom  29H    basis set group =>   4
Atom  30H    basis set group =>   4
Atom  31H    basis set group =>   4
Atom  32H    basis set group =>   4
Atom  33H    basis set group =>   4
Atom  34H    basis set group =>   4
Atom  35H    basis set group =>   4
Atom  36H    basis set group =>   4
Atom  37H    basis set group =>   4
Atom  38H    basis set group =>   4


           ************************************************************
           *        Program running with 6 parallel MPI-processes     *
           *              working on a common directory               *
           ************************************************************
------------------------------------------------------------------------------
                             ORCA STARTUP CALCULATIONS
                           -- RI-GTO INTEGRALS CHOSEN --
------------------------------------------------------------------------------
------------------------------------------------------------------------------
                   ___                                                        
                  /   \      - P O W E R E D   B Y -                         
                 /     \                                                     
                 |  |  |   _    _      __       _____    __    __             
                 |  |  |  | |  | |    /  \     |  _  \  |  |  /  |          
                  \  \/   | |  | |   /    \    | | | |  |  | /  /          
                 / \  \   | |__| |  /  /\  \   | |_| |  |  |/  /          
                |  |  |   |  __  | /  /__\  \  |    /   |      \           
                |  |  |   | |  | | |   __   |  |    \   |  |\   \          
                \     /   | |  | | |  |  |  |  | |\  \  |  | \   \       
                 \___/    |_|  |_| |__|  |__|  |_| \__\ |__|  \__/        
                                                                              
                      - O R C A' S   B I G   F R I E N D -                    
                                      &                                       
                       - I N T E G R A L  F E E D E R -                       
                                                                              
 v1 FN, 2020, v2 2021, v3 2022-2024                                           
------------------------------------------------------------------------------


----------------------
SHARK INTEGRAL PACKAGE
----------------------

Number of atoms                             ...     39
Number of basis functions                   ...    790
Number of shells                            ...    312
Maximum angular momentum                    ...      3
Integral batch strategy                     ... SHARK/LIBINT Hybrid
RI-J (if used) integral strategy            ... SPLIT-RIJ (Revised 2003 algorithm where possible)
Printlevel                                  ...      1
Contraction scheme used                     ... SEGMENTED contraction
Prescreening option                         ... SCHWARTZ
   Thresh                                   ... 1.000e-10
   Tcut                                     ... 1.000e-11
   Tpresel                                  ... 1.000e-11 
Coulomb Range Separation                    ... NOT USED
Exchange Range Separation                   ... NOT USED
Multipole approximations                    ... NOT USED
Finite Nucleus Model                        ... NOT USED
CABS basis                                  ... NOT available
Auxiliary Coulomb fitting basis             ... AVAILABLE
   # of basis functions in Aux-J            ...   1267
   # of shells in Aux-J                     ...    417
   Maximum angular momentum in Aux-J        ...      4
Auxiliary J/K fitting basis                 ... NOT available
Auxiliary Correlation fitting basis         ... NOT available
Auxiliary 'external' fitting basis          ... NOT available

Checking pre-screening integrals            ... done (  0.0 sec) Dimension = 312
Check shell pair data                       ... done (  0.0 sec)
Shell pair information
Shell pair cut-off parameter TPreSel        ...   1.0e-11
Total number of shell pairs                 ...     48828
Shell pairs after pre-screening             ...     33439
Total number of primitive shell pairs       ...    151524
Primitive shell pairs kept                  ...     68072
          la=0 lb=0:   8550 shell pairs
          la=1 lb=0:   9758 shell pairs
          la=1 lb=1:   2817 shell pairs
          la=2 lb=0:   4667 shell pairs
          la=2 lb=1:   2730 shell pairs
          la=2 lb=2:    681 shell pairs
          la=3 lb=0:   2193 shell pairs
          la=3 lb=1:   1289 shell pairs
          la=3 lb=2:    605 shell pairs
          la=3 lb=3:    149 shell pairs

Calculating one electron integrals          ... done (  0.1 sec)
Calculating RI/J V-Matrix + Cholesky decomp.... done (  0.1 sec)
Calculating Nuclear repulsion               ... done (  0.0 sec) ENN=   1778.204367699390 Eh

Diagonalization of the overlap matrix:
Smallest eigenvalue                        ... 7.081e-06
Time for diagonalization                   ...    0.128 sec
Threshold for overlap eigenvalues          ... 1.000e-07
Number of eigenvalues below threshold      ... 0
Time for construction of square roots      ...    0.059 sec
Total time needed                          ...    0.191 sec

-------------------
DFT GRID GENERATION
-------------------

General Integration Accuracy     IntAcc      ... 4.388
Radial Grid Type                 RadialGrid  ... OptM3 with GC (2021)
Angular Grid (max. ang.)         AngularGrid ... 4 (Lebedev-302)
Angular grid pruning method      GridPruning ... 4 (adaptive)
Weight generation scheme         WeightScheme... mBecke (2022)
Basis function cutoff            BFCut       ... 1.0000e-10
Integration weight cutoff        WCut        ... 1.0000e-14
Partially contracted basis set               ... off
Rotationally invariant grid construction     ... off
Angular grids for H and He will be reduced by one unit

Total number of grid points                  ...   187022
Total number of batches                      ...     2942
Average number of points per batch           ...       63
Average number of grid points per atom       ...     4795

--------------------
COSX GRID GENERATION
--------------------

GRIDX 1
-------
General Integration Accuracy     IntAcc      ... 3.816
Radial Grid Type                 RadialGrid  ... OptM3 with GC (2021)
Angular Grid (max. ang.)         AngularGrid ... 1 (Lebedev-50)
Angular grid pruning method      GridPruning ... 4 (adaptive)
Weight generation scheme         WeightScheme... mBecke (2022)
Basis function cutoff            BFCut       ... 1.0000e-10
Integration weight cutoff        WCut        ... 1.0000e-14
Partially contracted basis set               ... on
Rotationally invariant grid construction     ... off
Angular grids for H and He will be reduced by one unit

Total number of grid points                  ...    24774
Total number of batches                      ...      214
Average number of points per batch           ...      115
Average number of grid points per atom       ...      635
UseSFitting                                  ... on

GRIDX 2
-------
General Integration Accuracy     IntAcc      ... 4.020
Radial Grid Type                 RadialGrid  ... OptM3 with GC (2021)
Angular Grid (max. ang.)         AngularGrid ... 2 (Lebedev-110)
Angular grid pruning method      GridPruning ... 4 (adaptive)
Weight generation scheme         WeightScheme... mBecke (2022)
Basis function cutoff            BFCut       ... 1.0000e-10
Integration weight cutoff        WCut        ... 1.0000e-14
Partially contracted basis set               ... on
Rotationally invariant grid construction     ... off
Angular grids for H and He will be reduced by one unit

Total number of grid points                  ...    51497
Total number of batches                      ...      423
Average number of points per batch           ...      121
Average number of grid points per atom       ...     1320
UseSFitting                                  ... on

GRIDX 3
-------
General Integration Accuracy     IntAcc      ... 4.338
Radial Grid Type                 RadialGrid  ... OptM3 with GC (2021)
Angular Grid (max. ang.)         AngularGrid ... 3 (Lebedev-194)
Angular grid pruning method      GridPruning ... 4 (adaptive)
Weight generation scheme         WeightScheme... mBecke (2022)
Basis function cutoff            BFCut       ... 1.0000e-10
Integration weight cutoff        WCut        ... 1.0000e-14
Partially contracted basis set               ... on
Rotationally invariant grid construction     ... off
Angular grids for H and He will be reduced by one unit

Total number of grid points                  ...   113028
Total number of batches                      ...      903
Average number of points per batch           ...      125
Average number of grid points per atom       ...     2898
UseSFitting                                  ... on
Initializing property integral containers    ... done (  0.0 sec)

SHARK setup successfully completed in   4.6 seconds

Maximum memory used throughout the entire STARTUP-calculation: 77.7 MB


           ************************************************************
           *        Program running with 6 parallel MPI-processes     *
           *              working on a common directory               *
           ************************************************************
-------------------------------------------------------------------------------
                                 ORCA GUESS
                   Start orbitals & Density for SCF / CASSCF
-------------------------------------------------------------------------------

------------
SCF SETTINGS
------------
Hamiltonian:
 Density Functional     Method          .... DFT(GTOs)
 Exchange Functional    Exchange        .... M062X
 Correlation Functional Correlation     .... M062X
 Gradients option       PostSCFGGA      .... off
 Hybrid DFT is turned on
   Fraction HF Exchange ScalHFX         ....  0.540000
   Scaling of DF-GGA-X  ScalDFX         ....  0.460000
   Scaling of DF-GGA-C  ScalDFC         ....  1.000000
   Scaling of DF-LDA-C  ScalLDAC        ....  1.000000
   Perturbative correction              ....  0.000000
 RI-approximation to the Coulomb term is turned on
   Number of AuxJ basis functions       .... 1267
   RIJ-COSX (HFX calculated with COS-X)).... on


General Settings:
 Integral files         IntName         .... data/single_point_PO_M06-2x/11437688/11437688
 Hartree-Fock type      HFTyp           .... RHF
 Total Charge           Charge          ....    0
 Multiplicity           Mult            ....    1
 Number of Electrons    NEL             ....  160
 Basis Dimension        Dim             ....  790
 Nuclear Repulsion      ENuc            ....   1778.2043676994 Eh

Convergence Acceleration:
 AO-DIIS                CNVDIIS         .... on
   Start iteration      DIISMaxIt       ....    12
   Startup error        DIISStart       ....  0.200000
   # of expansion vecs  DIISMaxEq       ....     5
   Bias factor          DIISBfac        ....   1.050
   Max. coefficient     DIISMaxC        ....  10.000
 MO-DIIS                CNVKDIIS        .... off
 Trust-Rad. Augm. Hess. CNVTRAH         .... auto
   Auto Start mean grad. ratio tolernc. ....  1.125000
   Auto Start start iteration           ....    50
   Auto Start num. interpolation iter.  ....    10
   Max. Number of Micro iterations      ....    24
   Max. Number of Macro iterations      .... Maxiter - #DIIS iter
   Number of Davidson start vectors     ....     2
   Converg. threshold    (grad. norm)   ....   5.000e-05
   Grad. Scal. Fac. for Micro threshold ....   0.100
   Minimum threshold for Micro iter.    ....   1.000e-02
   NR start threshold (gradient norm)   ....   1.000e-04
   Initial trust radius                 ....   0.400
   Minimum AH scaling param. (alpha)    ....   1.000
   Maximum AH scaling param. (alpha)    .... 1000.000
   Quad. conv. algorithm                .... NR
   White noise on init. David. guess    .... on
   Maximum white noise                  ....   0.010
   Pseudo random numbers                .... off
   Inactive MOs                         .... canonical
   Orbital update algorithm             .... Taylor
   Preconditioner                       .... Diag
   Full preconditioner red. dimension   ....   250
 SOSCF                  CNVSOSCF        .... on
   Start iteration      SOSCFMaxIt      ....   150
   Startup grad/error   SOSCFStart      ....  0.003300
   Hessian update       SOSCFHessUp     .... L-BFGS
 Level Shifting         CNVShift        .... on
   Level shift para.    LevelShift      ....    0.2500
   Turn off err/grad.   ShiftErr        ....    0.0010
 Zerner damping         CNVZerner       .... off
 Static damping         CNVDamp         .... on
   Fraction old density DampFac         ....    0.7000
   Max. Damping (<1)    DampMax         ....    0.9800
   Min. Damping (>=0)   DampMin         ....    0.0000
   Turn off err/grad.   DampErr         ....    0.1000

SCF Procedure:
 Maximum # iterations   MaxIter         ....   125
 SCF integral mode      SCFMode         .... Direct
   Integral package                     .... SHARK and LIBINT hybrid scheme
 Reset frequency        DirectResetFreq ....    20
 Integral Threshold     Thresh          ....  1.000e-10 Eh
 Primitive CutOff       TCut            ....  1.000e-11 Eh

Convergence Tolerance:
 Convergence Check Mode ConvCheckMode   .... Total+1el-Energy
 Convergence forced     ConvForced      .... 0
 Energy Change          TolE            ....  1.000e-06 Eh
 1-El. energy change                    ....  1.000e-03 Eh
 Orbital Gradient       TolG            ....  5.000e-05
 Orbital Rotation angle TolX            ....  5.000e-05
 DIIS Error             TolErr          ....  1.000e-05

------------------------------
INITIAL GUESS: MODEL POTENTIAL
------------------------------
Loading Hartree-Fock densities                     ... done
Calculating cut-offs                               ... done
Initializing the effective Hamiltonian             ... done
Setting up the integral package (SHARK)            ... done
Starting the Coulomb interaction                   ... done (   0.6 sec)
Making the grid                                    ... done (   0.4 sec)
Mapping shells                                     ... done
Starting the XC term evaluation                    ... done (   0.5 sec)
  promolecular density results
     # of electrons  =    159.990866088
     EX              =   -137.857691933
     EC              =     -5.385711386
     EX+EC           =   -143.243403319
Transforming the Hamiltonian                       ... done (   0.1 sec)
Diagonalizing the Hamiltonian                      ... done (   0.2 sec)
Back transforming the eigenvectors                 ... done (   0.1 sec)
Now organizing SCF variables                       ... done
                      ------------------
                      INITIAL GUESS DONE (   1.8 sec)
                      ------------------
             **** ENERGY FILE WAS UPDATED (data/single_point_PO_M06-2x/11437688/11437688.en.tmp) ****
Finished Guess after   2.1 sec
Maximum memory used throughout the entire GUESS-calculation: 59.6 MB


           ************************************************************
           *        Program running with 6 parallel MPI-processes     *
           *              working on a common directory               *
           ************************************************************

-------------------------------------------------------------------------------------------
                                      ORCA LEAN-SCF
                              memory conserving SCF solver
-------------------------------------------------------------------------------------------

----------------------------------------D-I-I-S--------------------------------------------
Iteration    Energy (Eh)           Delta-E    RMSDP     MaxDP     DIISErr   Damp  Time(sec)
-------------------------------------------------------------------------------------------
               ***  Starting incremental Fock matrix formation  ***
    1    -1188.3283797900842274     0.00e+00  1.42e-03  8.66e-02  3.61e-01  0.700  17.3
    2    -1188.5744249717279217    -2.46e-01  1.18e-03  8.04e-02  1.56e-01  0.700  10.4
                               ***Turning on AO-DIIS***
    3    -1188.6875428188002388    -1.13e-01  6.83e-04  2.29e-02  4.60e-02  0.700  10.2
    4    -1188.7555079278893118    -6.80e-02  1.56e-03  5.53e-02  3.52e-02  0.000   9.7
    5    -1188.9022108031883818    -1.47e-01  1.38e-04  1.19e-02  7.58e-03  0.000  10.8
                              *** Initializing SOSCF ***
---------------------------------------S-O-S-C-F--------------------------------------
Iteration    Energy (Eh)           Delta-E    RMSDP     MaxDP     MaxGrad    Time(sec)
--------------------------------------------------------------------------------------
    6    -1188.9026808743003585    -4.70e-04  4.37e-05  3.75e-03  1.39e-03    10.2
               *** Restarting incremental Fock matrix formation ***
    7    -1188.9027265783372513    -4.57e-05  1.10e-04  4.83e-03  4.89e-04    16.5
    8    -1188.9027288456020415    -2.27e-06  3.95e-05  1.86e-03  3.07e-04    11.8
    9    -1188.9027344597914180    -5.61e-06  3.54e-05  1.58e-03  4.01e-05    11.0
   10    -1188.9027346294358267    -1.70e-07  2.81e-06  1.31e-04  1.54e-05    10.4
                 **** Energy Check signals convergence ****

               *****************************************************
               *                     SUCCESS                       *
               *           SCF CONVERGED AFTER  10 CYCLES          *
               *****************************************************

Recomputing exchange energy using gridx3       ... done (   24.403 sec)
Old exchange energy                            :    -75.851979648 Eh
New exchange energy                            :    -75.851945971 Eh
Exchange energy change after final integration :      0.000033677 Eh
Total energy after final integration           :  -1188.902700952 Eh
             **** ENERGY FILE WAS UPDATED (data/single_point_PO_M06-2x/11437688/11437688.en.tmp) ****

----------------
TOTAL SCF ENERGY
----------------

Total Energy       :      -1188.90270095243795 Eh          -32351.68722 eV

Components:
Nuclear Repulsion  :       1778.20436769939010 Eh           48387.40081 eV
Electronic Energy  :      -2967.10710232882593 Eh          -80739.08895 eV
One Electron Energy:      -5152.68145207758062 Eh         -140211.59053 eV
Two Electron Energy:       2185.57434974875468 Eh           59472.50158 eV

Virial components:
Potential Energy   :      -2371.63146242755647 Eh          -64535.37301 eV
Kinetic Energy     :       1182.72876147511829 Eh           32183.68579 eV
Virial Ratio       :          2.00522008061224

DFT components:
N(Alpha)           :       79.999942364374 electrons
N(Beta)            :       79.999942364374 electrons
N(Total)           :      159.999884728748 electrons
E(XC)              :      -70.430368050048 Eh       

---------------
SCF CONVERGENCE
---------------

  Last Energy change         ...    1.6964e-07  Tolerance :   1.0000e-06
  Last MAX-Density change    ...    1.3050e-04  Tolerance :   1.0000e-05
  Last RMS-Density change    ...    2.8132e-06  Tolerance :   1.0000e-06
  Last DIIS Error            ...    1.3912e-03  Tolerance :   1.0000e-05
  Last Orbital Gradient      ...    1.5394e-05  Tolerance :   5.0000e-05
  Last Orbital Rotation      ...    2.2186e-05  Tolerance :   5.0000e-05


----------------
ORBITAL ENERGIES
----------------

  NO   OCC          E(Eh)            E(eV) 
   0   2.0000     -78.097482     -2125.1405 
   1   2.0000     -19.566904      -532.4425 
   2   2.0000     -10.570324      -287.6331 
   3   2.0000     -10.564344      -287.4704 
   4   2.0000     -10.563650      -287.4515 
   5   2.0000     -10.563648      -287.4515 
   6   2.0000     -10.560637      -287.3695 
   7   2.0000     -10.560504      -287.3659 
   8   2.0000     -10.560297      -287.3603 
   9   2.0000     -10.560190      -287.3574 
  10   2.0000     -10.560107      -287.3551 
  11   2.0000     -10.560086      -287.3545 
  12   2.0000     -10.559702      -287.3441 
  13   2.0000     -10.559151      -287.3291 
  14   2.0000     -10.559009      -287.3252 
  15   2.0000     -10.558883      -287.3218 
  16   2.0000     -10.558426      -287.3094 
  17   2.0000     -10.558253      -287.3047 
  18   2.0000     -10.557752      -287.2910 
  19   2.0000     -10.557014      -287.2710 
  20   2.0000     -10.556873      -287.2671 
  21   2.0000     -10.551631      -287.1245 
  22   2.0000      -6.903701      -187.8593 
  23   2.0000      -5.020829      -136.6237 
  24   2.0000      -5.020828      -136.6237 
  25   2.0000      -5.019126      -136.5774 
  26   2.0000      -1.062624       -28.9155 
  27   2.0000      -0.971958       -26.4483 
  28   2.0000      -0.965517       -26.2731 
  29   2.0000      -0.962779       -26.1985 
  30   2.0000      -0.899124       -24.4664 
  31   2.0000      -0.864319       -23.5193 
  32   2.0000      -0.851334       -23.1660 
  33   2.0000      -0.849829       -23.1250 
  34   2.0000      -0.849027       -23.1032 
  35   2.0000      -0.845476       -23.0066 
  36   2.0000      -0.827199       -22.5092 
  37   2.0000      -0.740564       -20.1518 
  38   2.0000      -0.706990       -19.2382 
  39   2.0000      -0.698128       -18.9970 
  40   2.0000      -0.696557       -18.9543 
  41   2.0000      -0.693197       -18.8628 
  42   2.0000      -0.684700       -18.6316 
  43   2.0000      -0.646958       -17.6046 
  44   2.0000      -0.637470       -17.3464 
  45   2.0000      -0.599310       -16.3081 
  46   2.0000      -0.592769       -16.1301 
  47   2.0000      -0.573500       -15.6057 
  48   2.0000      -0.549627       -14.9561 
  49   2.0000      -0.534451       -14.5431 
  50   2.0000      -0.530985       -14.4488 
  51   2.0000      -0.526282       -14.3209 
  52   2.0000      -0.522751       -14.2248 
  53   2.0000      -0.520194       -14.1552 
  54   2.0000      -0.505939       -13.7673 
  55   2.0000      -0.495776       -13.4908 
  56   2.0000      -0.494494       -13.4559 
  57   2.0000      -0.493989       -13.4421 
  58   2.0000      -0.490576       -13.3492 
  59   2.0000      -0.485913       -13.2224 
  60   2.0000      -0.458371       -12.4729 
  61   2.0000      -0.453788       -12.3482 
  62   2.0000      -0.450219       -12.2511 
  63   2.0000      -0.443836       -12.0774 
  64   2.0000      -0.434671       -11.8280 
  65   2.0000      -0.419085       -11.4039 
  66   2.0000      -0.412893       -11.2354 
  67   2.0000      -0.410800       -11.1784 
  68   2.0000      -0.407018       -11.0755 
  69   2.0000      -0.406580       -11.0636 
  70   2.0000      -0.402937       -10.9645 
  71   2.0000      -0.372964       -10.1489 
  72   2.0000      -0.340278        -9.2594 
  73   2.0000      -0.337032        -9.1711 
  74   2.0000      -0.321114        -8.7379 
  75   2.0000      -0.319326        -8.6893 
  76   2.0000      -0.317855        -8.6493 
  77   2.0000      -0.315759        -8.5922 
  78   2.0000      -0.313540        -8.5318 
  79   2.0000      -0.287781        -7.8309 
  80   0.0000      -0.033206        -0.9036 
  81   0.0000      -0.011940        -0.3249 
  82   0.0000      -0.003124        -0.0850 
  83   0.0000       0.001514         0.0412 
  84   0.0000       0.010656         0.2900 
  85   0.0000       0.012369         0.3366 
  86   0.0000       0.060390         1.6433 
  87   0.0000       0.069002         1.8776 
  88   0.0000       0.082217         2.2372 
  89   0.0000       0.083923         2.2836 
  90   0.0000       0.086872         2.3639 
*Only the first 10 virtual orbitals were printed.

                    ********************************
                    * MULLIKEN POPULATION ANALYSIS *
                    ********************************

-----------------------
MULLIKEN ATOMIC CHARGES
-----------------------
   0 C :   -0.296963
   1 C :   -0.158187
   2 C :    0.207626
   3 C :   -0.171777
   4 C :   -0.156551
   5 C :   -0.091759
   6 C :   -0.217340
   7 C :   -0.193516
   8 P :    0.632818
   9 O :   -0.599020
  10 C :   -0.069378
  11 C :   -0.198401
  12 C :   -0.150266
  13 C :   -0.134132
  14 C :   -0.137494
  15 C :   -0.148964
  16 C :   -0.069205
  17 C :   -0.149855
  18 C :   -0.135446
  19 C :   -0.134903
  20 C :   -0.150280
  21 C :   -0.198765
  22 H :    0.123814
  23 H :    0.139587
  24 H :    0.129724
  25 H :    0.149288
  26 H :    0.185584
  27 H :    0.194576
  28 H :    0.141838
  29 H :    0.195082
  30 H :    0.148503
  31 H :    0.149433
  32 H :    0.149992
  33 H :    0.185814
  34 H :    0.186299
  35 H :    0.150217
  36 H :    0.149150
  37 H :    0.148774
  38 H :    0.194084
Sum of atomic charges:   -0.0000000

--------------------------------
MULLIKEN REDUCED ORBITAL CHARGES
--------------------------------
  0 C s       :     3.326665  s :     3.326665
      pz      :     0.916165  p :     2.931704
      px      :     1.028459
      py      :     0.987080
      dz2     :     0.006270  d :     0.034232
      dxz     :     0.011060
      dyz     :     0.009257
      dx2y2   :     0.005152
      dxy     :     0.002492
      f0      :     0.000798  f :     0.004362
      f+1     :     0.001033
      f-1     :     0.000996
      f+2     :     0.000492
      f-2     :     0.000305
      f+3     :     0.000500
      f-3     :     0.000238

  1 C s       :     3.268460  s :     3.268460
      pz      :     0.956779  p :     2.828320
      px      :     0.905727
      py      :     0.965814
      dz2     :     0.006841  d :     0.055296
      dxz     :     0.012481
      dyz     :     0.012824
      dx2y2   :     0.008443
      dxy     :     0.014708
      f0      :     0.000948  f :     0.006110
      f+1     :     0.001200
      f-1     :     0.001020
      f+2     :     0.001003
      f-2     :     0.000451
      f+3     :     0.000735
      f-3     :     0.000754

  2 C s       :     3.136023  s :     3.136023
      pz      :     0.840896  p :     2.573128
      px      :     0.826416
      py      :     0.905815
      dz2     :     0.009524  d :     0.075050
      dxz     :     0.013834
      dyz     :     0.022064
      dx2y2   :     0.008662
      dxy     :     0.020966
      f0      :     0.001264  f :     0.008174
      f+1     :     0.001864
      f-1     :     0.000994
      f+2     :     0.001141
      f-2     :     0.000863
      f+3     :     0.001010
      f-3     :     0.001039

  3 C s       :     3.204508  s :     3.204508
      pz      :     0.921433  p :     2.900833
      px      :     1.003456
      py      :     0.975944
      dz2     :     0.012972  d :     0.059992
      dxz     :     0.013487
      dyz     :     0.013350
      dx2y2   :     0.007972
      dxy     :     0.012211
      f0      :     0.000978  f :     0.006444
      f+1     :     0.001462
      f-1     :     0.000962
      f+2     :     0.000965
      f-2     :     0.000308
      f+3     :     0.000775
      f-3     :     0.000993

  4 C s       :     3.210404  s :     3.210404
      pz      :     1.026946  p :     2.874090
      px      :     0.927363
      py      :     0.919780
      dz2     :     0.014642  d :     0.065487
      dxz     :     0.015851
      dyz     :     0.006147
      dx2y2   :     0.008230
      dxy     :     0.020617
      f0      :     0.000935  f :     0.006571
      f+1     :     0.001405
      f-1     :     0.000216
      f+2     :     0.000969
      f-2     :     0.000815
      f+3     :     0.000964
      f-3     :     0.001267

  5 C s       :     3.236451  s :     3.236451
      pz      :     0.860926  p :     2.773731
      px      :     0.932442
      py      :     0.980363
      dz2     :     0.015750  d :     0.074513
      dxz     :     0.017975
      dyz     :     0.020814
      dx2y2   :     0.009676
      dxy     :     0.010298
      f0      :     0.001198  f :     0.007063
      f+1     :     0.001594
      f-1     :     0.001136
      f+2     :     0.000837
      f-2     :     0.000689
      f+3     :     0.000801
      f-3     :     0.000809

  6 C s       :     3.195819  s :     3.195819
      pz      :     0.914806  p :     2.948635
      px      :     1.065794
      py      :     0.968035
      dz2     :     0.011277  d :     0.066355
      dxz     :     0.020124
      dyz     :     0.014408
      dx2y2   :     0.007349
      dxy     :     0.013198
      f0      :     0.000953  f :     0.006531
      f+1     :     0.001477
      f-1     :     0.000990
      f+2     :     0.000945
      f-2     :     0.000275
      f+3     :     0.000833
      f-3     :     0.001057

  7 C s       :     3.191973  s :     3.191973
      pz      :     1.017932  p :     2.937473
      px      :     0.949911
      py      :     0.969630
      dz2     :     0.010725  d :     0.057657
      dxz     :     0.015118
      dyz     :     0.005247
      dx2y2   :     0.007689
      dxy     :     0.018877
      f0      :     0.000974  f :     0.006413
      f+1     :     0.001295
      f-1     :     0.000206
      f+2     :     0.001010
      f-2     :     0.000731
      f+3     :     0.000943
      f-3     :     0.001253

  8 P s       :     5.292646  s :     5.292646
      pz      :     2.649602  p :     8.302916
      px      :     2.838334
      py      :     2.814981
      dz2     :     0.142237  d :     0.706781
      dxz     :     0.212408
      dyz     :     0.136477
      dx2y2   :     0.143381
      dxy     :     0.072278
      f0      :     0.014211  f :     0.064838
      f+1     :     0.012444
      f-1     :     0.010011
      f+2     :     0.008174
      f-2     :     0.010001
      f+3     :     0.005285
      f-3     :     0.004712

  9 O s       :     3.882052  s :     3.882052
      pz      :     1.410055  p :     4.691146
      px      :     1.657892
      py      :     1.623199
      dz2     :     0.008672  d :     0.024562
      dxz     :     0.006247
      dyz     :     0.007225
      dx2y2   :     0.001143
      dxy     :     0.001275
      f0      :     0.000385  f :     0.001260
      f+1     :     0.000250
      f-1     :     0.000362
      f+2     :     0.000121
      f-2     :     0.000122
      f+3     :     0.000011
      f-3     :     0.000009

 10 C s       :     3.232192  s :     3.232192
      pz      :     0.894713  p :     2.756417
      px      :     0.949064
      py      :     0.912640
      dz2     :     0.015328  d :     0.073705
      dxz     :     0.014764
      dyz     :     0.016168
      dx2y2   :     0.013515
      dxy     :     0.013929
      f0      :     0.001214  f :     0.007064
      f+1     :     0.000954
      f-1     :     0.000787
      f+2     :     0.001182
      f-2     :     0.001077
      f+3     :     0.000811
      f-3     :     0.001038

 11 C s       :     3.207477  s :     3.207477
      pz      :     0.888356  p :     2.918189
      px      :     0.989426
      py      :     1.040406
      dz2     :     0.021207  d :     0.066244
      dxz     :     0.011407
      dyz     :     0.012516
      dx2y2   :     0.012096
      dxy     :     0.009018
      f0      :     0.001091  f :     0.006492
      f+1     :     0.001115
      f-1     :     0.000822
      f+2     :     0.001303
      f-2     :     0.000931
      f+3     :     0.000726
      f-3     :     0.000504

 12 C s       :     3.228150  s :     3.228150
      pz      :     0.993132  p :     2.855935
      px      :     0.943165
      py      :     0.919637
      dz2     :     0.010053  d :     0.059882
      dxz     :     0.007637
      dyz     :     0.015508
      dx2y2   :     0.016166
      dxy     :     0.010519
      f0      :     0.000616  f :     0.006299
      f+1     :     0.000880
      f-1     :     0.000852
      f+2     :     0.001124
      f-2     :     0.000872
      f+3     :     0.000890
      f-3     :     0.001065

 13 C s       :     3.227013  s :     3.227013
      pz      :     0.953134  p :     2.839443
      px      :     0.971739
      py      :     0.914569
      dz2     :     0.012869  d :     0.061397
      dxz     :     0.012092
      dyz     :     0.012351
      dx2y2   :     0.009286
      dxy     :     0.014799
      f0      :     0.001080  f :     0.006279
      f+1     :     0.000752
      f-1     :     0.000743
      f+2     :     0.000945
      f-2     :     0.001062
      f+3     :     0.000702
      f-3     :     0.000995

 14 C s       :     3.227936  s :     3.227936
      pz      :     0.898538  p :     2.843811
      px      :     0.949755
      py      :     0.995518
      dz2     :     0.017011  d :     0.059472
      dxz     :     0.010253
      dyz     :     0.012251
      dx2y2   :     0.010849
      dxy     :     0.009107
      f0      :     0.001068  f :     0.006275
      f+1     :     0.001011
      f-1     :     0.000787
      f+2     :     0.001234
      f-2     :     0.000974
      f+3     :     0.000727
      f-3     :     0.000473

 15 C s       :     3.210709  s :     3.210709
      pz      :     0.998353  p :     2.867523
      px      :     0.929219
      py      :     0.939951
      dz2     :     0.012657  d :     0.064213
      dxz     :     0.007276
      dyz     :     0.016415
      dx2y2   :     0.016162
      dxy     :     0.011702
      f0      :     0.000709  f :     0.006519
      f+1     :     0.000902
      f-1     :     0.000872
      f+2     :     0.001085
      f-2     :     0.000908
      f+3     :     0.000915
      f-3     :     0.001128

 16 C s       :     3.231940  s :     3.231940
      pz      :     0.904879  p :     2.756430
      px      :     0.946554
      py      :     0.904997
      dz2     :     0.023500  d :     0.073773
      dxz     :     0.008062
      dyz     :     0.011511
      dx2y2   :     0.019883
      dxy     :     0.010817
      f0      :     0.000877  f :     0.007063
      f+1     :     0.001142
      f-1     :     0.000828
      f+2     :     0.001644
      f-2     :     0.001075
      f+3     :     0.000718
      f-3     :     0.000778

 17 C s       :     3.210257  s :     3.210257
      pz      :     0.956461  p :     2.868738
      px      :     0.952368
      py      :     0.959909
      dz2     :     0.010799  d :     0.064340
      dxz     :     0.006980
      dyz     :     0.019687
      dx2y2   :     0.010518
      dxy     :     0.016357
      f0      :     0.000822  f :     0.006520
      f+1     :     0.000891
      f-1     :     0.000568
      f+2     :     0.001394
      f-2     :     0.000828
      f+3     :     0.001215
      f-3     :     0.000801

 18 C s       :     3.225091  s :     3.225091
      pz      :     0.970395  p :     2.844523
      px      :     0.970164
      py      :     0.903965
      dz2     :     0.010847  d :     0.059559
      dxz     :     0.008131
      dyz     :     0.014496
      dx2y2   :     0.009443
      dxy     :     0.016642
      f0      :     0.000828  f :     0.006272
      f+1     :     0.000800
      f-1     :     0.000649
      f+2     :     0.001343
      f-2     :     0.000802
      f+3     :     0.001013
      f-3     :     0.000839

 19 C s       :     3.228101  s :     3.228101
      pz      :     0.907653  p :     2.839038
      px      :     0.925027
      py      :     1.006357
      dz2     :     0.020115  d :     0.061486
      dxz     :     0.007790
      dyz     :     0.010702
      dx2y2   :     0.013612
      dxy     :     0.009267
      f0      :     0.000776  f :     0.006278
      f+1     :     0.001047
      f-1     :     0.000880
      f+2     :     0.001337
      f-2     :     0.000946
      f+3     :     0.000575
      f-3     :     0.000716

 20 C s       :     3.227598  s :     3.227598
      pz      :     0.976735  p :     2.856259
      px      :     0.949445
      py      :     0.930078
      dz2     :     0.010424  d :     0.060126
      dxz     :     0.006881
      dyz     :     0.015856
      dx2y2   :     0.013063
      dxy     :     0.013901
      f0      :     0.000812  f :     0.006297
      f+1     :     0.000958
      f-1     :     0.000512
      f+2     :     0.001337
      f-2     :     0.000823
      f+3     :     0.001106
      f-3     :     0.000750

 21 C s       :     3.205936  s :     3.205936
      pz      :     0.966961  p :     2.919953
      px      :     0.983959
      py      :     0.969033
      dz2     :     0.010376  d :     0.066389
      dxz     :     0.008969
      dyz     :     0.018205
      dx2y2   :     0.009860
      dxy     :     0.018978
      f0      :     0.000837  f :     0.006487
      f+1     :     0.000745
      f-1     :     0.000692
      f+2     :     0.001433
      f-2     :     0.000847
      f+3     :     0.001023
      f-3     :     0.000911

 22 H s       :     0.856401  s :     0.856401
      pz      :     0.009705  p :     0.019785
      px      :     0.006160
      py      :     0.003920

 23 H s       :     0.840712  s :     0.840712
      pz      :     0.002797  p :     0.019701
      px      :     0.012528
      py      :     0.004377

 24 H s       :     0.850629  s :     0.850629
      pz      :     0.008675  p :     0.019647
      px      :     0.007239
      py      :     0.003733

 25 H s       :     0.830913  s :     0.830913
      pz      :     0.007595  p :     0.019799
      px      :     0.008317
      py      :     0.003887

 26 H s       :     0.793894  s :     0.793894
      pz      :     0.013400  p :     0.020522
      px      :     0.003640
      py      :     0.003482

 27 H s       :     0.785205  s :     0.785205
      pz      :     0.007576  p :     0.020219
      px      :     0.008949
      py      :     0.003694

 28 H s       :     0.837989  s :     0.837989
      pz      :     0.013115  p :     0.020173
      px      :     0.003225
      py      :     0.003833

 29 H s       :     0.784688  s :     0.784688
      pz      :     0.003227  p :     0.020230
      px      :     0.004437
      py      :     0.012566

 30 H s       :     0.831786  s :     0.831786
      pz      :     0.010177  p :     0.019711
      px      :     0.004292
      py      :     0.005241

 31 H s       :     0.830913  s :     0.830913
      pz      :     0.007372  p :     0.019654
      px      :     0.007336
      py      :     0.004946

 32 H s       :     0.830264  s :     0.830264
      pz      :     0.003291  p :     0.019744
      px      :     0.004613
      py      :     0.011840

 33 H s       :     0.793689  s :     0.793689
      pz      :     0.011570  p :     0.020497
      px      :     0.004175
      py      :     0.004751

 34 H s       :     0.793186  s :     0.793186
      pz      :     0.008416  p :     0.020515
      px      :     0.004796
      py      :     0.007303

 35 H s       :     0.830036  s :     0.830036
      pz      :     0.008051  p :     0.019747
      px      :     0.007283
      py      :     0.004413

 36 H s       :     0.831193  s :     0.831193
      pz      :     0.003069  p :     0.019657
      px      :     0.003641
      py      :     0.012948

 37 H s       :     0.831509  s :     0.831509
      pz      :     0.008003  p :     0.019717
      px      :     0.005422
      py      :     0.006291

 38 H s       :     0.785731  s :     0.785731
      pz      :     0.007646  p :     0.020185
      px      :     0.007868
      py      :     0.004671



                     *******************************
                     * LOEWDIN POPULATION ANALYSIS *
                     *******************************

----------------------
LOEWDIN ATOMIC CHARGES
----------------------
   0 C :   -0.190205
   1 C :   -0.160207
   2 C :   -0.130537
   3 C :   -0.098300
   4 C :   -0.112109
   5 C :   -0.228143
   6 C :   -0.136739
   7 C :   -0.095219
   8 P :    0.684919
   9 O :   -0.307851
  10 C :   -0.229154
  11 C :   -0.138473
  12 C :   -0.141235
  13 C :   -0.131752
  14 C :   -0.135083
  15 C :   -0.113693
  16 C :   -0.229228
  17 C :   -0.113833
  18 C :   -0.135187
  19 C :   -0.131726
  20 C :   -0.141176
  21 C :   -0.138488
  22 H :    0.123625
  23 H :    0.128282
  24 H :    0.152871
  25 H :    0.152469
  26 H :    0.161758
  27 H :    0.156375
  28 H :    0.150479
  29 H :    0.155587
  30 H :    0.148773
  31 H :    0.148780
  32 H :    0.149780
  33 H :    0.160874
  34 H :    0.160955
  35 H :    0.149755
  36 H :    0.148761
  37 H :    0.148821
  38 H :    0.155473

-------------------------------
LOEWDIN REDUCED ORBITAL CHARGES
-------------------------------
  0 C s       :     2.866384  s :     2.866384
      pz      :     1.094996  p :     3.069899
      px      :     1.032943
      py      :     0.941959
      dz2     :     0.082150  d :     0.228201
      dxz     :     0.089807
      dyz     :     0.027293
      dx2y2   :     0.022430
      dxy     :     0.006521
      f0      :     0.007627  f :     0.025722
      f+1     :     0.006336
      f-1     :     0.003658
      f+2     :     0.003754
      f-2     :     0.001946
      f+3     :     0.001890
      f-3     :     0.000510

  1 C s       :     2.787023  s :     2.787023
      pz      :     1.073412  p :     2.952991
      px      :     0.990810
      py      :     0.888769
      dz2     :     0.090027  d :     0.381400
      dxz     :     0.155969
      dyz     :     0.042966
      dx2y2   :     0.043422
      dxy     :     0.049016
      f0      :     0.009310  f :     0.038793
      f+1     :     0.009272
      f-1     :     0.004398
      f+2     :     0.006171
      f-2     :     0.002402
      f+3     :     0.003659
      f-3     :     0.003580

  2 C s       :     2.714628  s :     2.714628
      pz      :     1.032099  p :     2.858013
      px      :     0.994062
      py      :     0.831852
      dz2     :     0.135744  d :     0.504000
      dxz     :     0.155708
      dyz     :     0.074903
      dx2y2   :     0.068748
      dxy     :     0.068898
      f0      :     0.010289  f :     0.053895
      f+1     :     0.015351
      f-1     :     0.004743
      f+2     :     0.007373
      f-2     :     0.006576
      f+3     :     0.004958
      f-3     :     0.004605

  3 C s       :     2.769565  s :     2.769565
      pz      :     1.010201  p :     2.920959
      px      :     1.022494
      py      :     0.888264
      dz2     :     0.081195  d :     0.368004
      dxz     :     0.158175
      dyz     :     0.044781
      dx2y2   :     0.044342
      dxy     :     0.039511
      f0      :     0.008140  f :     0.039772
      f+1     :     0.010764
      f-1     :     0.005145
      f+2     :     0.005437
      f-2     :     0.001821
      f+3     :     0.004341
      f-3     :     0.004123

  4 C s       :     2.774271  s :     2.774271
      pz      :     1.005746  p :     2.915155
      px      :     1.049343
      py      :     0.860067
      dz2     :     0.111779  d :     0.381416
      dxz     :     0.110233
      dyz     :     0.017652
      dx2y2   :     0.067546
      dxy     :     0.074206
      f0      :     0.005920  f :     0.041267
      f+1     :     0.011107
      f-1     :     0.001090
      f+2     :     0.007207
      f-2     :     0.006366
      f+3     :     0.005140
      f-3     :     0.004437

  5 C s       :     2.770714  s :     2.770714
      pz      :     1.064360  p :     2.982968
      px      :     1.030551
      py      :     0.888057
      dz2     :     0.126339  d :     0.430646
      dxz     :     0.137332
      dyz     :     0.075157
      dx2y2   :     0.056811
      dxy     :     0.035008
      f0      :     0.009014  f :     0.043814
      f+1     :     0.013123
      f-1     :     0.004414
      f+2     :     0.006088
      f-2     :     0.005521
      f+3     :     0.003081
      f-3     :     0.002573

  6 C s       :     2.774208  s :     2.774208
      pz      :     1.024109  p :     2.935986
      px      :     1.028289
      py      :     0.883589
      dz2     :     0.082664  d :     0.385428
      dxz     :     0.164693
      dyz     :     0.051325
      dx2y2   :     0.043339
      dxy     :     0.043407
      f0      :     0.008163  f :     0.041118
      f+1     :     0.011314
      f-1     :     0.005810
      f+2     :     0.005349
      f-2     :     0.001775
      f+3     :     0.004440
      f-3     :     0.004267

  7 C s       :     2.767434  s :     2.767434
      pz      :     0.990020  p :     2.921834
      px      :     1.040659
      py      :     0.891156
      dz2     :     0.110544  d :     0.366075
      dxz     :     0.108129
      dyz     :     0.016252
      dx2y2   :     0.063331
      dxy     :     0.067818
      f0      :     0.005780  f :     0.039876
      f+1     :     0.010793
      f-1     :     0.001023
      f+2     :     0.006927
      f-2     :     0.005832
      f+3     :     0.005158
      f-3     :     0.004363

  8 P s       :     4.642587  s :     4.642587
      pz      :     2.728628  p :     8.264841
      px      :     2.770895
      py      :     2.765319
      dz2     :     0.270034  d :     1.187067
      dxz     :     0.315049
      dyz     :     0.236356
      dx2y2   :     0.240416
      dxy     :     0.125212
      f0      :     0.047814  f :     0.220585
      f+1     :     0.041480
      f-1     :     0.038115
      f+2     :     0.028674
      f-2     :     0.030209
      f+3     :     0.018226
      f-3     :     0.016068

  9 O s       :     3.539737  s :     3.539737
      pz      :     1.535588  p :     4.724484
      px      :     1.598835
      py      :     1.590060
      dz2     :     0.017978  d :     0.041522
      dxz     :     0.007731
      dyz     :     0.012789
      dx2y2   :     0.001567
      dxy     :     0.001459
      f0      :     0.000643  f :     0.002107
      f+1     :     0.000365
      f-1     :     0.000714
      f+2     :     0.000207
      f-2     :     0.000146
      f+3     :     0.000013
      f-3     :     0.000019

 10 C s       :     2.771149  s :     2.771149
      pz      :     1.012813  p :     2.983127
      px      :     0.938666
      py      :     1.031647
      dz2     :     0.079566  d :     0.431160
      dxz     :     0.078093
      dyz     :     0.122162
      dx2y2   :     0.074292
      dxy     :     0.077046
      f0      :     0.008052  f :     0.043718
      f+1     :     0.006133
      f-1     :     0.005906
      f+2     :     0.007742
      f-2     :     0.004691
      f+3     :     0.005230
      f-3     :     0.005964

 11 C s       :     2.776043  s :     2.776043
      pz      :     1.013288  p :     2.939254
      px      :     0.944183
      py      :     0.981783
      dz2     :     0.111368  d :     0.382290
      dxz     :     0.078397
      dyz     :     0.077881
      dx2y2   :     0.065031
      dxy     :     0.049612
      f0      :     0.006143  f :     0.040886
      f+1     :     0.007346
      f-1     :     0.006502
      f+2     :     0.007877
      f-2     :     0.005918
      f+3     :     0.004108
      f-3     :     0.002993

 12 C s       :     2.778087  s :     2.778087
      pz      :     0.973666  p :     2.949166
      px      :     0.949739
      py      :     1.025761
      dz2     :     0.069812  d :     0.373488
      dxz     :     0.042385
      dyz     :     0.105858
      dx2y2   :     0.074472
      dxy     :     0.080960
      f0      :     0.004836  f :     0.040493
      f+1     :     0.005564
      f-1     :     0.005807
      f+2     :     0.007382
      f-2     :     0.005055
      f+3     :     0.006650
      f-3     :     0.005200

 13 C s       :     2.779571  s :     2.779571
      pz      :     0.992780  p :     2.937654
      px      :     0.918948
      py      :     1.025927
      dz2     :     0.066447  d :     0.374097
      dxz     :     0.062951
      dyz     :     0.114148
      dx2y2   :     0.060863
      dxy     :     0.069687
      f0      :     0.007495  f :     0.040431
      f+1     :     0.005253
      f-1     :     0.005857
      f+2     :     0.006611
      f-2     :     0.004477
      f+3     :     0.004866
      f-3     :     0.005871

 14 C s       :     2.778089  s :     2.778089
      pz      :     1.022200  p :     2.944469
      px      :     0.944851
      py      :     0.977418
      dz2     :     0.108063  d :     0.372085
      dxz     :     0.076810
      dyz     :     0.077596
      dx2y2   :     0.059495
      dxy     :     0.050122
      f0      :     0.006102  f :     0.040440
      f+1     :     0.007440
      f-1     :     0.006422
      f+2     :     0.007764
      f-2     :     0.005851
      f+3     :     0.004105
      f-3     :     0.002757

 15 C s       :     2.776062  s :     2.776062
      pz      :     0.978275  p :     2.917159
      px      :     0.928313
      py      :     1.010570
      dz2     :     0.074157  d :     0.379431
      dxz     :     0.043763
      dyz     :     0.104201
      dx2y2   :     0.075170
      dxy     :     0.082139
      f0      :     0.005032  f :     0.041041
      f+1     :     0.005713
      f-1     :     0.005897
      f+2     :     0.007321
      f-2     :     0.005056
      f+3     :     0.006607
      f-3     :     0.005414

 16 C s       :     2.771222  s :     2.771222
      pz      :     0.998562  p :     2.983230
      px      :     0.956365
      py      :     1.028302
      dz2     :     0.106337  d :     0.431066
      dxz     :     0.071946
      dyz     :     0.080258
      dx2y2   :     0.105128
      dxy     :     0.067398
      f0      :     0.004982  f :     0.043710
      f+1     :     0.006380
      f-1     :     0.006518
      f+2     :     0.008896
      f-2     :     0.006572
      f+3     :     0.005384
      f-3     :     0.004977

 17 C s       :     2.776096  s :     2.776096
      pz      :     0.955637  p :     2.917214
      px      :     0.924088
      py      :     1.037489
[...]
      pz      :     0.964749  p :     2.949112
      px      :     0.948286
      py      :     1.036077
      dz2     :     0.052530  d :     0.373475
      dxz     :     0.041878
      dyz     :     0.112397
      dx2y2   :     0.072828
      dxy     :     0.093842
      f0      :     0.005819  f :     0.040493
      f+1     :     0.005049
      f-1     :     0.004091
      f+2     :     0.007575
      f-2     :     0.004812
      f+3     :     0.007923
      f-3     :     0.005224

 21 C s       :     2.776070  s :     2.776070
      pz      :     0.959315  p :     2.939194
      px      :     0.929624
      py      :     1.050255
      dz2     :     0.053669  d :     0.382343
      dxz     :     0.048924
      dyz     :     0.109409
      dx2y2   :     0.079879
      dxy     :     0.090462
      f0      :     0.006090  f :     0.040880
      f+1     :     0.003967
      f-1     :     0.005102
      f+2     :     0.007741
      f-2     :     0.004661
      f+3     :     0.006708
      f-3     :     0.006611

 22 H s       :     0.817296  s :     0.817296
      pz      :     0.025830  p :     0.059080
      px      :     0.020600
      py      :     0.012649

 23 H s       :     0.812453  s :     0.812453
      pz      :     0.010570  p :     0.059265
      px      :     0.035286
      py      :     0.013409

 24 H s       :     0.792355  s :     0.792355
      pz      :     0.023127  p :     0.054775
      px      :     0.019893
      py      :     0.011755

 25 H s       :     0.791554  s :     0.791554
      pz      :     0.021030  p :     0.055977
      px      :     0.022593
      py      :     0.012354

 26 H s       :     0.780369  s :     0.780369
      pz      :     0.035144  p :     0.057872
      px      :     0.011522
      py      :     0.011206

 27 H s       :     0.786002  s :     0.786002
      pz      :     0.021410  p :     0.057623
      px      :     0.024113
      py      :     0.012100

 28 H s       :     0.793049  s :     0.793049
      pz      :     0.033083  p :     0.056472
      px      :     0.011145
      py      :     0.012244

 29 H s       :     0.786543  s :     0.786543
      pz      :     0.010958  p :     0.057870
      px      :     0.013975
      py      :     0.032936

 30 H s       :     0.795291  s :     0.795291
      pz      :     0.026935  p :     0.055937
      px      :     0.013225
      py      :     0.015776

 31 H s       :     0.795438  s :     0.795438
      pz      :     0.020555  p :     0.055782
      px      :     0.020235
      py      :     0.014992

 32 H s       :     0.794301  s :     0.794301
      pz      :     0.011138  p :     0.055919
      px      :     0.013931
      py      :     0.030849

 33 H s       :     0.781153  s :     0.781153
      pz      :     0.030375  p :     0.057973
      px      :     0.012901
      py      :     0.014697

 34 H s       :     0.781047  s :     0.781047
      pz      :     0.023113  p :     0.057998
      px      :     0.014640
      py      :     0.020245

 35 H s       :     0.794337  s :     0.794337
      pz      :     0.021993  p :     0.055908
      px      :     0.020156
      py      :     0.013760

 36 H s       :     0.795464  s :     0.795464
      pz      :     0.010557  p :     0.055776
      px      :     0.011743
      py      :     0.033475

 37 H s       :     0.795231  s :     0.795231
      pz      :     0.021912  p :     0.055948
      px      :     0.015936
      py      :     0.018101

 38 H s       :     0.786761  s :     0.786761
      pz      :     0.021553  p :     0.057766
      px      :     0.021849
      py      :     0.014365



                      *****************************
                      * MAYER POPULATION ANALYSIS *
                      *****************************

  NA   - Mulliken gross atomic population
  ZA   - Total nuclear charge
  QA   - Mulliken gross atomic charge
  VA   - Mayer's total valence
  BVA  - Mayer's bonded valence
  FA   - Mayer's free valence

  ATOM       NA         ZA         QA         VA         BVA        FA
  0 C      6.2970     6.0000    -0.2970     3.8758     3.8758     0.0000
  1 C      6.1582     6.0000    -0.1582     3.8296     3.8296    -0.0000
  2 C      5.7924     6.0000     0.2076     3.7431     3.7431    -0.0000
  3 C      6.1718     6.0000    -0.1718     3.9522     3.9522     0.0000
  4 C      6.1566     6.0000    -0.1566     3.9991     3.9991     0.0000
  5 C      6.0918     6.0000    -0.0918     3.7896     3.7896     0.0000
  6 C      6.2173     6.0000    -0.2173     3.9663     3.9663     0.0000
  7 C      6.1935     6.0000    -0.1935     4.0452     4.0452    -0.0000
  8 P     14.3672    15.0000     0.6328     4.9656     4.9656    -0.0000
  9 O      8.5990     8.0000    -0.5990     1.9835     1.9835    -0.0000
 10 C      6.0694     6.0000    -0.0694     3.7524     3.7524    -0.0000
 11 C      6.1984     6.0000    -0.1984     3.8732     3.8732    -0.0000
 12 C      6.1503     6.0000    -0.1503     3.9987     3.9987    -0.0000
 13 C      6.1341     6.0000    -0.1341     3.9367     3.9367    -0.0000
 14 C      6.1375     6.0000    -0.1375     3.9228     3.9228    -0.0000
 15 C      6.1490     6.0000    -0.1490     3.9626     3.9626    -0.0000
 16 C      6.0692     6.0000    -0.0692     3.7532     3.7532    -0.0000
 17 C      6.1499     6.0000    -0.1499     3.9613     3.9613    -0.0000
 18 C      6.1354     6.0000    -0.1354     3.9222     3.9222     0.0000
 19 C      6.1349     6.0000    -0.1349     3.9377     3.9377    -0.0000
 20 C      6.1503     6.0000    -0.1503     3.9987     3.9987    -0.0000
 21 C      6.1988     6.0000    -0.1988     3.8764     3.8764    -0.0000
 22 H      0.8762     1.0000     0.1238     0.9753     0.9753     0.0000
 23 H      0.8604     1.0000     0.1396     0.9710     0.9710     0.0000
 24 H      0.8703     1.0000     0.1297     0.9704     0.9704    -0.0000
 25 H      0.8507     1.0000     0.1493     0.9676     0.9676     0.0000
 26 H      0.8144     1.0000     0.1856     0.9740     0.9740     0.0000
 27 H      0.8054     1.0000     0.1946     0.9464     0.9464     0.0000
 28 H      0.8582     1.0000     0.1418     0.9689     0.9689    -0.0000
 29 H      0.8049     1.0000     0.1951     0.9454     0.9454     0.0000
 30 H      0.8515     1.0000     0.1485     0.9653     0.9653     0.0000
 31 H      0.8506     1.0000     0.1494     0.9630     0.9630    -0.0000
 32 H      0.8500     1.0000     0.1500     0.9654     0.9654    -0.0000
 33 H      0.8142     1.0000     0.1858     0.9727     0.9727    -0.0000
 34 H      0.8137     1.0000     0.1863     0.9726     0.9726    -0.0000
 35 H      0.8498     1.0000     0.1502     0.9651     0.9651     0.0000
 36 H      0.8508     1.0000     0.1492     0.9631     0.9631    -0.0000
 37 H      0.8512     1.0000     0.1488     0.9654     0.9654    -0.0000
 38 H      0.8059     1.0000     0.1941     0.9457     0.9457    -0.0000

  Mayer bond orders larger than 0.100000
B(  0-C ,  1-C ) :   1.8528 B(  0-C , 22-H ) :   0.9656 B(  0-C , 23-H ) :   0.9700 
B(  1-C ,  2-C ) :   0.9977 B(  1-C , 24-H ) :   0.9525 B(  2-C ,  3-C ) :   1.3831 
B(  2-C ,  7-C ) :   1.3437 B(  3-C ,  4-C ) :   1.4716 B(  3-C , 25-H ) :   0.9245 
B(  4-C ,  5-C ) :   1.4438 B(  4-C , 26-H ) :   0.9098 B(  5-C ,  6-C ) :   1.3036 
B(  5-C ,  8-P ) :   0.9244 B(  6-C ,  7-C ) :   1.5839 B(  6-C , 27-H ) :   0.9088 
B(  7-C , 28-H ) :   0.9076 B(  8-P ,  9-O ) :   1.9430 B(  8-P , 10-C ) :   0.9180 
B(  8-P , 16-C ) :   0.9181 B( 10-C , 11-C ) :   1.3193 B( 10-C , 15-C ) :   1.4356 
B( 11-C , 12-C ) :   1.4817 B( 11-C , 29-H ) :   0.9165 B( 12-C , 13-C ) :   1.4443 
B( 12-C , 30-H ) :   0.9435 B( 13-C , 14-C ) :   1.4308 B( 13-C , 31-H ) :   0.9463 
B( 14-C , 15-C ) :   1.4407 B( 14-C , 32-H ) :   0.9474 B( 15-C , 33-H ) :   0.9087 
B( 16-C , 17-C ) :   1.4345 B( 16-C , 21-C ) :   1.3215 B( 17-C , 18-C ) :   1.4402 
B( 17-C , 34-H ) :   0.9088 B( 18-C , 19-C ) :   1.4317 B( 18-C , 35-H ) :   0.9470 
B( 19-C , 20-C ) :   1.4434 B( 19-C , 36-H ) :   0.9466 B( 20-C , 21-C ) :   1.4835 
B( 20-C , 37-H ) :   0.9431 B( 21-C , 38-H ) :   0.9165 

-------
TIMINGS
-------

Total SCF time: 0 days 0 hours 2 min 23 sec 

Total time                  ....     143.554 sec
Sum of individual times     ....     143.626 sec  (100.1%)

SCF preparation             ....       0.339 sec  (  0.2%)
Fock matrix formation       ....     138.439 sec  ( 96.4%)
  Startup                   ....       0.167 sec  (  0.1% of F)
  Split-RI-J                ....      10.718 sec  (  7.7% of F)
  Chain of spheres X        ....      98.657 sec  ( 71.3% of F)
  XC integration            ....      28.488 sec  ( 20.6% of F)
    Basis function eval.    ....       4.146 sec  ( 14.6% of XC)
    Density eval.           ....      12.140 sec  ( 42.6% of XC)
    XC-Functional eval.     ....       0.439 sec  (  1.5% of XC)
    XC-Potential eval.      ....      10.134 sec  ( 35.6% of XC)
Diagonalization             ....       0.000 sec  (  0.0%)
Density matrix formation    ....       0.429 sec  (  0.3%)
Total Energy calculation    ....       0.137 sec  (  0.1%)
Population analysis         ....       0.240 sec  (  0.2%)
Orbital Transformation      ....       0.561 sec  (  0.4%)
Orbital Orthonormalization  ....       0.000 sec  (  0.0%)
DIIS solution               ....       2.416 sec  (  1.7%)
SOSCF solution              ....       1.065 sec  (  0.7%)
Finished LeanSCF after 143.6 sec

Maximum memory used throughout the entire LEANSCF-calculation: 114.4 MB


-------------------------------------------------------------------------------
                          DFT DISPERSION CORRECTION                            
                                                                               
                              DFTD3 V3.1  Rev 1                                
                              USING zero damping                               
-------------------------------------------------------------------------------
The M062X functional is recognized
Active option DFTDOPT                   ...         3   

molecular C6(AA) [au] = 21293.918291 


            DFT-D V3
 parameters
 s6 scaling factor         :     1.0000 
 rs6 scaling factor        :     1.6190 
 s8 scaling factor         :     0.0000 
 rs8 scaling factor        :     1.0000 
 Damping factor alpha6     :    14.0000 
 Damping factor alpha8     :    16.0000 
 ad hoc parameters k1-k3   :    16.0000     1.3333    -4.0000 

 Edisp/kcal,au: -1.624844964074  -0.002589354994 
 E6   /kcal   :  -1.624844964 
 E8   /kcal   :  -0.000000000 
 % E8         :   0.000000000 

-------------------------   ----------------
Dispersion correction           -0.002589355
-------------------------   ----------------


-------------------------   --------------------
FINAL SINGLE POINT ENERGY     -1188.905290307432
-------------------------   --------------------



           ************************************************************
           *        Program running with 6 parallel MPI-processes     *
           *              working on a common directory               *
           ************************************************************

------------------------------------------------------------------------------
                              ORCA PROPERTY CALCULATIONS
------------------------------------------------------------------------------

GBWName                                 ... data/single_point_PO_M06-2x/11437688/11437688.gbw
Number of atoms                         ...     39
Number of basis functions               ...    790
Max core memory                         ...   1024 MB

Electric properties:
Dipole moment                           ... YES
Quadrupole moment                       ...  NO
Static polarizability (Dipole/Dipole)   ...  NO
Static polarizability (Dipole/Quad.)    ...  NO
Static polarizability (Quad./Quad.)     ...  NO
Static polarizability (Velocity)        ...  NO

Atomic electric properties:
Dipole moment                           ...  NO
Quadrupole moment                       ...  NO
Static polarizability                   ...  NO

Choice of electric origin               ... Center of mass
Position of electric origin             ...    -0.330482    -0.093436    -0.496272

General magnetic properties:
Magnetizability                         ...  NO

EPR properties:
g-Tensor (aka g-matrix)                 ...  NO
Zero-Field splitting spin-orbit         ...  NO
Zero-field splitting spin-spin          ...  NO
Hyperfine couplings                     ...  NO (   0 nuclei)
Quadrupole couplings                    ...  NO (   0 nuclei)
Contact density                         ...  NO (   0 nuclei)

NMR properties:
Chemical shifts                         ...  NO (   0 nuclei)
Spin-rotation constants                 ...  NO (   0 nuclei)
Spin-spin couplings                     ...  NO (   0 nuclei,    0 pairs)

Choice of magnetic origin               ... GIAO
Position of magnetic origin             ...     0.000000     0.000000     0.000000

Properties with geometric perturbations:
SCF Hessian                             ...  NO
IR spectrum                             ...  NO
VCD spectrum                            ...  NO
X-ray spectroscopy properties:
SCF XES/XAS/RIXS spectra                ...  NO


-------------
DIPOLE MOMENT
-------------

Method             : SCF
Type of density    : Electron Density
Multiplicity       :   1
Irrep              :   0
Energy             : -1188.9027009524379537 Eh
Relativity type    : 
Basis              : AO
                                X                 Y                 Z
Electronic contribution:     -5.979846440      -0.925947683      -7.372006690
Nuclear contribution   :      6.221632584       1.535584765       8.914217615
                        -----------------------------------------
Total Dipole Moment    :      0.241786144       0.609637082       1.542210925
                        -----------------------------------------
Magnitude (a.u.)       :      1.675867670
Magnitude (Debye)      :      4.259717092



--------------------
Rotational spectrum 
--------------------
 
Rotational constants in cm-1:             0.010314             0.006597             0.005028 
Rotational constants in MHz :           309.202396           197.768258           150.721426 

Dipole components along the rotational axes: 
x,y,z [a.u.] :     0.288165    -0.012905     1.650856 
x,y,z [Debye]:     0.732457    -0.032801     4.196143 

 

Dipole moment calculation done in   0.1 sec 

Maximum memory used throughout the entire PROP-calculation: 62.2 MB

--------------------------------
SUGGESTED CITATIONS FOR THIS RUN
--------------------------------

Below you find a list of papers that are relevant to this ORCA run
We neither can nor want to force you to cite these papers, but we appreciate if you do
You receive ORCA, which is the product of decades of hard work by many enthusiastic individuals, for free
The only thing we kindly ask in return is that you cite our papers,
We deeply appreciate it, if you show your appreciation for ORCA by not just citing the generic ORCA reference.

Please note that relegating all ORCA citations to the supporting information does *not* help us.
SI sections are not indexed - citations you put there will not count into any citation statistics
But we need these citations in order to attract the funding resources that allow us to do what we are doing

Therefore, if you are a happy ORCA user, please consider citing a few of the papers listed below in the main body of your paper

In addition to the list printed below, the program has created the file data/single_point_PO_M06-2x/11437688/11437688.bibtex that contains the list in bibtex format
You can import this file easily into all common literature databanks and citation aid programs


List of essential papers. We consider these as the minimum necessary citations

  1. Neese,F.
     Software update: the ORCA program system, version 5.0
     WIRES Comput. Molec. Sci., 2022 12(1)e1606
     doi.org/10.1002/wcms.1606

List of papers to cite with high priority. The work reported in these papers was absolutely
necessary for this run to complete.
Our perspective: the developers of density functionals and basis sets usually get cited in chemistry papers
Good! But without the algorithms to do something with them, the functionals or basis sets would not do anything.
Hence, in our opinion, the algorithm design and method developments papers are equally worthy of getting cited

  1. Neese,F.
     An improvement of the resolution of the identity approximation for the formation of the Coulomb matrix
     J. Comp. Chem., 2003 24(14)1740-1747
     doi.org/10.1002/jcc.10318
  2. Neese,F.; Wennmohs,F.; Hansen,A.; Becker,U.
     Efficient, approximate and parallel Hartree-Fock and hybrid DFT calculations. A 'chain-of-spheres' algorithm for the Hartree-Fock exchange
     Chem. Phys., 2009 356(1-3)98-109
     doi.org/10.1016/j.chemphys.2008.10.036
  3. Helmich-Paris,B.; de Souza,B.; Neese,F.; Izsák,R.
     An improved chain of spheres for exchange algorithm
     J. Chem. Phys., 2021 155 104109
     doi.org/doi: 10.1063/5.0058766.
  4. Neese,F.
     The SHARK Integral Generation and Digestion System
     J. Comp. Chem., 2022  1-16
     doi.org/10.1002/jcc.26942
  5. Grimme,S.; Antony,J.; Ehrlich,S.; Krieg,H.
     A consistent and accurate ab initio parametrization of density functional dispersion correction (DFT-D) for the 94 elements H-Pu
     J. Chem. Phys., 2010 132 154104-XXXX
     doi.org/10.1063/1.3382344

List of suggested additional citations. These are papers that are important in the 'surrounding' of 
of this run, or papers that preceded the highly important papers. If you like your results we are grateful for a citation.

  1. Izsak,R.; Neese,F.
     An overlap fitted chain of spheres exchange method
     J. Chem. Phys., 2011 135 144105
     doi.org/10.1063/1.3646921
  2. Izsak,R.; Hansen,A.; Neese,F.
     The resolution of identity and chain of spheres approximations for the LPNO-CCSD singles Fock term
     Molec. Phys., 2012 110 2413-2417
     doi.org/10.1080/00268976.2012.687466
  3. Neese,F.
     The ORCA program system
     WIRES Comput. Molec. Sci., 2012 2(1)73-78
     doi.org/10.1002/wcms.81
  4. Izsak,R.; Neese,F.; Klopper,W.
     Robust fitting techniques in the chain of spheres approximation to the Fock exchange: The role of the complementary space
     J. Chem. Phys., 2013 139 
     doi.org/10.1063/1.4819264
  5. Neese,F.
     Software update: the ORCA program system, version 4.0
     WIRES Comput. Molec. Sci., 2018 8(1)1-6
     doi.org/10.1002/wcms.1327
  6. Neese,F.; Wennmohs,F.; Becker,U.; Riplinger,C.
     The ORCA quantum chemistry program package
     J. Chem. Phys., 2020 152 Art. No. L224108
     doi.org/10.1063/5.0004608

List of optional additional citations

  1. Neese,F.
     Approximate second-order SCF convergence for spin unrestricted wavefunctions
     Chem. Phys. Lett., 2000 325(1-3)93-98
     doi.org/10.1016/s0009-2614(00)00662-x

Timings for individual modules:

Sum of individual times          ...      151.368 sec (=   2.523 min)
Startup calculation              ...        4.718 sec (=   0.079 min)   3.1 %
SCF iterations                   ...      145.926 sec (=   2.432 min)  96.4 %
Property calculations            ...        0.724 sec (=   0.012 min)   0.5 %
                             ****ORCA TERMINATED NORMALLY****
TOTAL RUN TIME: 0 days 0 hours 2 minutes 31 seconds 626 msec
