
                                 *****************
                                 * O   R   C   A *
                                 *****************

                                            #,                                       
                                            ###                                      
                                            ####                                     
                                            #####                                    
                                            ######                                   
                                           ########,                                 
                                     ,,################,,,,,                         
                               ,,#################################,,                 
                          ,,##########################################,,             
                       ,#########################################, ''#####,          
                    ,#############################################,,   '####,        
                  ,##################################################,,,,####,       
                ,###########''''           ''''###############################       
              ,#####''   ,,,,##########,,,,          '''####'''          '####       
            ,##' ,,,,###########################,,,                        '##       
           ' ,,###''''                  '''############,,,                           
         ,,##''                                '''############,,,,        ,,,,,,###''
      ,#''                                            '''#######################'''  
     '                                                          ''''####''''         
             ,#######,   #######,   ,#######,      ##                                
            ,#'     '#,  ##    ##  ,#'     '#,    #''#        ,####,   ,####,        
            ##       ##  ##   ,#'  ##            #'  '#       #'       #'  '#        
            ##       ##  #######   ##           ,######,      #####,   #    #        
            '#,     ,#'  ##    ##  '#,     ,#' ,#      #,     #,   #   #,  ,#        
             '#######'   ##     ##  '#######'  #'      '#     '####' # '####'        



                #########################################################
                #                        -***-                          #
                #          Department of theory and spectroscopy        #
                #                                                       #
                #                      Frank Neese                      #
                #                                                       #
                #     Directorship, Architecture, Infrastructure        #
                #                    SHARK, DRIVERS                     #
                #        Core code/Algorithms in most modules           #
                #                                                       #
                #        Max Planck Institute fuer Kohlenforschung      #
                #                Kaiser Wilhelm Platz 1                 #
                #                 D-45470 Muelheim/Ruhr                 #
                #                      Germany                          #
                #                                                       #
                #                  All rights reserved                  #
                #                        -***-                          #
                #########################################################


                         Program Version 6.0.0  -   RELEASE   -


 With contributions from (in alphabetic order):
   Daniel Aravena         : Magnetic Suceptibility
   Michael Atanasov       : Ab Initio Ligand Field Theory (pilot matlab implementation)
   Alexander A. Auer      : GIAO ZORA, VPT2 properties, NMR spectrum
   Ute Becker             : All parallelization in ORCA, NUMFREQ, NUMCALC
   Giovanni Bistoni       : ED, misc. LED, open-shell LED, HFLD
   Martin Brehm           : Molecular dynamics
   Dmytro Bykov           : pre 5.0 version of the SCF Hessian
   Marcos Casanova-Páez   : Triplet and SCS-CIS(D). UHF-(DLPNO)-IP/EA/STEOM-CCSD. UHF-CVS-IP/STEOM-CCSD
   Vijay G. Chilkuri      : MRCI spin determinant printing, contributions to CSF-ICE
   Pauline Colinet        : FMM embedding
   Dipayan Datta          : RHF DLPNO-CCSD density
   Achintya Kumar Dutta   : EOM-CC, STEOM-CC
   Nicolas Foglia         : Exact transition moments, OPA infrastructure, MCD improvements
   Dmitry Ganyushin       : Spin-Orbit,Spin-Spin,Magnetic field MRCI
   Miquel Garcia          : C-PCM and meta-GGA Hessian, CCSD/C-PCM, Gaussian charge scheme
   Tiago L. C. Gouveia    : GS-ROHF, GS-ROCIS
   Yang Guo               : DLPNO-NEVPT2, F12-NEVPT2, CIM, IAO-localization
   Andreas Hansen         : Spin unrestricted coupled pair/coupled cluster methods
   Ingolf Harden          : AUTO-CI MPn and infrastructure 
   Benjamin Helmich-Paris : MC-RPA, TRAH-(SCF,CASSCF), AVAS, COSX integrals, SCF dyn. polar.
   Lee Huntington         : MR-EOM, pCC
   Robert Izsak           : Overlap fitted RIJCOSX, COSX-SCS-MP3, EOM
   Riya Kayal             : Wick's Theorem for AUTO-CI, AUTO-CI UHF-CCSDT
   Emily Kempfer          : AUTO-CI, RHF CISDT and CCSDT
   Christian Kollmar      : KDIIS, OOCD, Brueckner-CCSD(T), CCSD density, CASPT2, CASPT2-K, improved NEVPT2
   Axel Koslowski         : Symmetry handling
   Simone Kossmann        : Meta GGA functionals, TD-DFT gradient, OOMP2, (MP2 Hessian; deprecated post 5.0)
   Lucas Lang             : DCDCAS
   Marvin Lechner         : AUTO-CI (C++ implementation), FIC-MRCC
   Spencer Leger          : CASSCF response
   Dagmar Lenk            : GEPOL surface, SMD, ORCA-2-JSON
   Dimitrios Liakos       : Extrapolation schemes; Compound Job, initial MDCI parallelization
   Dimitrios Manganas     : Further ROCIS development; embedding schemes. LFT, Crystal Embedding
   Dimitrios Pantazis     : SARC Basis sets
   Anastasios Papadopoulos: AUTO-CI, single reference methods and gradients
   Taras Petrenko         : pre 6.0 DFT Hessian and TD-DFT gradient, (ASA, deprecated), ECA, 1-Electron XAS/XES, NRVS
   Peter Pinski           : DLPNO-MP2, DLPNO-MP2 Gradient
   Christoph Reimann      : Effective Core Potentials
   Marius Retegan         : Local ZFS, SOC
   Christoph Riplinger    : Optimizer, TS searches, QM/MM, DLPNO-CCSD(T), (RO)-DLPNO pert. Triples
   Michael Roemelt        : Original ROCIS implementation
   Masaaki Saitow         : Open-shell DLPNO-CCSD energy and density
   Barbara Sandhoefer     : DKH picture change effects
   Kantharuban Sivalingam : CASSCF convergence/infrastructure, NEVPT2 and variants, FIC-MRCI
   Bernardo de Souza      : ESD, SOC TD-DFT
   Georgi Stoychev        : AutoAux, RI-MP2 NMR, DLPNO-MP2 response, X2C
   Van Anh Tran           : RI-MP2 g-tensors
   Willem Van den Heuvel  : Paramagnetic NMR
   Zikuan Wang            : NOTCH, Electric field optimization 
   Frank Wennmohs         : Technical directorship and infrastructure
   Hang Xu                : AUTO-CI-Response properties 


 We gratefully acknowledge several colleagues who have allowed us to
 interface, adapt or use parts of their codes:
   Stefan Grimme, W. Hujo, H. Kruse, P. Pracht,  : VdW corrections, initial TS optimization,
                  C. Bannwarth, S. Ehlert,         DFT functionals, gCP, sTDA/sTD-DF
                  L. Wittmann, M. Mueller
   Ed Valeev, F. Pavosevic, A. Kumar             : LibInt (2-el integral package), F12 methods
   Garnet Chan, S. Sharma, J. Yang, R. Olivares  : DMRG
   Ulf Ekstrom                                   : XCFun DFT Library
   Mihaly Kallay                                 : mrcc  (arbitrary order and MRCC methods)
   Frank Weinhold                                : gennbo (NPA and NBO analysis)
   Simon Mueller                                 : openCOSMO-RS
   Christopher J. Cramer and Donald G. Truhlar   : smd solvation model
   Lars Goerigk                                  : TD-DFT with DH, B97 family of functionals
   V. Asgeirsson, H. Jonsson                     : NEB implementation
   FAccTs GmbH                                   : IRC, NEB, NEB-TS, DLPNO-Multilevel, CI-OPT
                                                   MM, QMMM, 2- and 3-layer-ONIOM, Crystal-QMMM,
                                                   LR-CPCM, SF, NACMEs, symmetry and pop. for TD-DFT,
                                                   nearIR, NL-DFT gradient (VV10), updates on ESD,
                                                   ML-optimized integration grids, MBIS, APM,
                                                   GOAT, DOCKER, SOLVATOR, interface openCOSMO-RS
   S Lehtola, MJT Oliveira, MAL Marques          : LibXC Library
   Liviu Ungur et al                             : ANISO software


 Your calculation uses the libint2 library for the computation of 2-el integrals
 For citations please refer to: http://libint.valeyev.net

 Your ORCA version has been built with support for libXC version: 6.2.2
 For citations please refer to: https://libxc.gitlab.io

 This ORCA versions uses:
   CBLAS   interface :  Fast vector & matrix operations
   LAPACKE interface :  Fast linear algebra routines
   Shared memory     :  Shared parallel matrices


Your calculation utilizes the atom-pairwise dispersion correction
with the Becke-Johnson damping scheme (D3BJ)


Warning: RI is on but no J-basis has been assigned. Assigning Def2/J (nothing to worry about!)
================================================================================

----- Orbital basis set information -----
Your calculation utilizes the basis: def2-SVP
   F. Weigend and R. Ahlrichs, Phys. Chem. Chem. Phys. 7, 3297 (2005).

----- AuxJ basis set information -----
Your calculation utilizes the auxiliary basis: def2/J
   F. Weigend, Phys. Chem. Chem. Phys. 8, 1057 (2006).

================================================================================
                                        WARNINGS
                       Please study these warnings very carefully!
================================================================================


WARNING: Geometry Optimization
  ===> : Switching off AutoStart
         For restart on a previous wavefunction, please use MOREAD

================================================================================
                                       INPUT FILE
================================================================================
NAME = data/geom_opt_P_BP86/70874/70874.inp
|  1> ! RI BP86 def2-SVP D3BJ TIGHTSCF Opt
|  2> %pal
|  3> nprocs 6
|  4> end
|  5> 
|  6> * xyz 0 1
|  7> C     -0.698366   -2.421055   -1.635688
|  8> C     -1.190981   -3.686835   -1.301863
|  9> C     -1.868795   -3.868670   -0.101375
| 10> C     -2.056891   -2.796557    0.765082
| 11> C     -1.562564   -1.530736    0.428945
| 12> C     -0.872772   -1.320769   -0.775245
| 13> P     -0.194841    0.286292   -1.302955
| 14> C      1.555433    0.216422   -0.800587
| 15> C      2.423215    1.202669   -1.306233
| 16> C      3.780320    1.215771   -0.967999
| 17> C      4.289289    0.238459   -0.119777
| 18> C      3.452953   -0.749039    0.391047
| 19> C      2.094951   -0.759803    0.051398
| 20> Cl     5.956737    0.251256    0.300201
| 21> C     -0.940584    1.483326   -0.148966
| 22> C     -2.231063    1.962272   -0.443382
| 23> C     -2.870003    2.883537    0.392880
| 24> C     -2.223880    3.341317    1.535960
| 25> C     -0.946901    2.885540    1.847643
| 26> C     -0.309643    1.963166    1.009326
| 27> Cl    -3.005903    4.472782    2.568021
| 28> Cl    -2.474944   -5.423284    0.314181
| 29> H     -0.171022   -2.303898   -2.581626
| 30> H     -1.041600   -4.520023   -1.983350
| 31> H     -2.586858   -2.933935    1.704111
| 32> H     -1.726683   -0.720448    1.134815
| 33> H      2.048395    1.978710   -1.972481
| 34> H      4.428567    1.989251   -1.371047
| 35> H      3.846682   -1.515420    1.053730
| 36> H      1.474457   -1.545596    0.474800
| 37> H     -2.757680    1.618812   -1.332948
| 38> H     -3.867098    3.236400    0.143419
| 39> H     -0.437766    3.241324    2.739669
| 40> H      0.685839    1.628762    1.290296
| 41> **                         ****END OF INPUT****
================================================================================

                       *****************************
                       * Geometry Optimization Run *
                       *****************************

Geometry optimization settings:
Update method            Update   .... BFGS
Choice of coordinates    CoordSys .... (2022) Redundant Internals
Initial Hessian          InHess   .... Almloef's Model
Max. no of cycles        MaxIter  .... 102

Convergence Tolerances:
Energy Change            TolE     ....  5.0000e-06 Eh
Max. Gradient            TolMAXG  ....  3.0000e-04 Eh/bohr
RMS Gradient             TolRMSG  ....  1.0000e-04 Eh/bohr
Max. Displacement        TolMAXD  ....  4.0000e-03 bohr
RMS Displacement         TolRMSD  ....  2.0000e-03 bohr
Strict Convergence                .... False

------------------------------------------------------------------------------
                        ORCA OPTIMIZATION COORDINATE SETUP
------------------------------------------------------------------------------

The optimization will be done in redundant internal coordinates (2022)
Making redundant internal coordinates   ...  (2022 redundants) done
Evaluating the initial hessian          ...  (Almloef) done
Evaluating the coordinates              ...  done
Calculating the B-matrix                .... done
Calculating the G-matrix                .... done
Diagonalizing the G-matrix              .... done
Small eigenvalue found = 5.285e-03
Small eigenvalue found = 5.285e-03
Small eigenvalue found = 9.739e-03
Small eigenvalue found = 2.990e-02
Small eigenvalue found = 2.990e-02
The first mode is                       ....   81
The number of degrees of freedom        ....   96

    -----------------------------------------------------------------
                    Redundant Internal Coordinates


    -----------------------------------------------------------------
         Definition                    Initial Value    Approx d2E/dq
    -----------------------------------------------------------------
      1. B(C   1,C   0)                  1.3987         0.605186   
      2. B(C   2,C   1)                  1.3906         0.623504   
      3. B(C   3,C   2)                  1.3912         0.621952   
      4. B(C   4,C   3)                  1.3999         0.602537   
      5. B(C   5,C   4)                  1.4036         0.594441   
      6. B(C   5,C   0)                  1.4076         0.585624   
      7. B(P   6,C   5)                  1.8223         0.429095   
      8. B(C   7,P   6)                  1.8223         0.429094   
      9. B(C   8,C   7)                  1.4076         0.585625   
     10. B(C   9,C   8)                  1.3987         0.605186   
     11. B(C  10,C   9)                  1.3906         0.623503   
     12. B(C  11,C  10)                  1.3912         0.621955   
     13. B(C  12,C  11)                  1.3999         0.602539   
     14. B(C  12,C   7)                  1.4036         0.594441   
     15. B(Cl 13,C  10)                  1.7196         0.417757   
     16. B(C  14,P   6)                  1.8223         0.429095   
     17. B(C  15,C  14)                  1.4076         0.585626   
     18. B(C  16,C  15)                  1.3987         0.605186   
     19. B(C  17,C  16)                  1.3906         0.623502   
     20. B(C  18,C  17)                  1.3912         0.621952   
     21. B(C  19,C  18)                  1.3999         0.602539   
     22. B(C  19,C  14)                  1.4036         0.594441   
     23. B(Cl 20,C  17)                  1.7196         0.417759   
     24. B(Cl 21,C   2)                  1.7196         0.417757   
     25. B(H  22,C   0)                  1.0893         0.361002   
     26. B(H  23,C   1)                  1.0867         0.364477   
     27. B(H  24,C   3)                  1.0870         0.364125   
     28. B(H  25,C   4)                  1.0871         0.363977   
     29. B(H  26,C   8)                  1.0893         0.361002   
     30. B(H  27,C   9)                  1.0867         0.364476   
     31. B(H  28,C  11)                  1.0870         0.364126   
     32. B(H  29,C  12)                  1.0871         0.363978   
     33. B(H  30,C  15)                  1.0893         0.361001   
     34. B(H  31,C  16)                  1.0867         0.364477   
     35. B(H  32,C  18)                  1.0870         0.364126   
     36. B(H  33,C  19)                  1.0871         0.363976   
     37. A(C   1,C   0,C   5)          121.1887         0.427780   
     38. A(C   1,C   0,H  22)          118.3652         0.351617   
     39. A(C   5,C   0,H  22)          120.4461         0.349671   
     40. A(C   0,C   1,H  23)          119.7204         0.352187   
     41. A(C   0,C   1,C   2)          119.7398         0.432620   
     42. A(C   2,C   1,H  23)          120.5398         0.353969   
     43. A(C   1,C   2,C   3)          120.1853         0.434752   
     44. A(C   3,C   2,Cl 21)          119.9026         0.423009   
     45. A(C   1,C   2,Cl 21)          119.9121         0.423197   
     46. A(C   2,C   3,C   4)          119.9691         0.432086   
     47. A(C   4,C   3,H  24)          119.5965         0.351868   
     48. A(C   2,C   3,H  24)          120.4343         0.353762   
     49. A(C   5,C   4,H  25)          121.3176         0.351041   
     50. A(C   3,C   4,C   5)          120.9860         0.428591   
     51. A(C   3,C   4,H  25)          117.6955         0.351844   
     52. A(C   0,C   5,P   6)          117.7900         0.429042   
     53. A(C   0,C   5,C   4)          117.9307         0.426409   
     54. A(C   4,C   5,P   6)          124.2785         0.430194   
     55. A(C   7,P   6,C  14)          104.1034         0.432856   
     56. A(C   5,P   6,C  14)          104.1035         0.432856   
     57. A(C   5,P   6,C   7)          104.1035         0.432856   
     58. A(C   8,C   7,C  12)          117.9308         0.426409   
     59. A(P   6,C   7,C  12)          124.2784         0.430194   
     60. A(P   6,C   7,C   8)          117.7900         0.429042   
     61. A(C   7,C   8,C   9)          121.1886         0.427780   
     62. A(C   9,C   8,H  26)          118.3651         0.351617   
     63. A(C   7,C   8,H  26)          120.4461         0.349671   
     64. A(C  10,C   9,H  27)          120.5398         0.353969   
     65. A(C   8,C   9,C  10)          119.7398         0.432620   
     66. A(C   8,C   9,H  27)          119.7204         0.352187   
     67. A(C   9,C  10,C  11)          120.1852         0.434753   
     68. A(C  11,C  10,Cl 13)          119.9027         0.423009   
     69. A(C   9,C  10,Cl 13)          119.9120         0.423197   
     70. A(C  12,C  11,H  28)          119.5966         0.351869   
     71. A(C  10,C  11,H  28)          120.4342         0.353762   
     72. A(C  10,C  11,C  12)          119.9692         0.432086   
     73. A(C  11,C  12,H  29)          117.6955         0.351845   
     74. A(C   7,C  12,H  29)          121.3176         0.351041   
     75. A(C   7,C  12,C  11)          120.9859         0.428591   
     76. A(P   6,C  14,C  19)          124.2784         0.430194   
     77. A(C  15,C  14,C  19)          117.9308         0.426410   
     78. A(P   6,C  14,C  15)          117.7900         0.429042   
     79. A(C  16,C  15,H  30)          118.3652         0.351617   
     80. A(C  14,C  15,H  30)          120.4461         0.349671   
     81. A(C  14,C  15,C  16)          121.1886         0.427780   
     82. A(C  17,C  16,H  31)          120.5398         0.353969   
     83. A(C  15,C  16,H  31)          119.7204         0.352187   
     84. A(C  15,C  16,C  17)          119.7398         0.432620   
     85. A(C  18,C  17,Cl 20)          119.9026         0.423009   
     86. A(C  16,C  17,Cl 20)          119.9121         0.423198   
     87. A(C  16,C  17,C  18)          120.1853         0.434752   
     88. A(C  17,C  18,C  19)          119.9691         0.432086   
     89. A(C  19,C  18,H  32)          119.5966         0.351869   
     90. A(C  17,C  18,H  32)          120.4343         0.353762   
     91. A(C  14,C  19,C  18)          120.9860         0.428591   
     92. A(C  18,C  19,H  33)          117.6955         0.351844   
     93. A(C  14,C  19,H  33)          121.3176         0.351041   
     94. D(H  23,C   1,C   0,C   5)   -179.9137         0.025272   
     95. D(C   2,C   1,C   0,H  22)   -179.9892         0.025272   
     96. D(H  23,C   1,C   0,H  22)     -0.0438         0.025272   
     97. D(C   2,C   1,C   0,C   5)      0.1409         0.025272   
     98. D(C   3,C   2,C   1,C   0)      0.0018         0.026919   
     99. D(C   3,C   2,C   1,H  23)   -179.9431         0.026919   
    100. D(Cl 21,C   2,C   1,C   0)   -179.9402         0.026919   
    101. D(Cl 21,C   2,C   1,H  23)      0.1149         0.026919   
    102. D(H  24,C   3,C   2,Cl 21)     -0.1103         0.026777   
    103. D(C   4,C   3,C   2,C   1)     -0.0216         0.026777   
    104. D(C   4,C   3,C   2,Cl 21)    179.9204         0.026777   
    105. D(H  24,C   3,C   2,C   1)    179.9476         0.026777   
    106. D(H  25,C   4,C   3,C   2)   -179.7465         0.025039   
    107. D(C   5,C   4,C   3,C   2)     -0.1009         0.025039   
    108. D(C   5,C   4,C   3,H  24)    179.9296         0.025039   
    109. D(H  25,C   4,C   3,H  24)      0.2840         0.025039   
    110. D(P   6,C   5,C   4,H  25)     -0.4687         0.024336   
    111. D(C   0,C   5,C   4,H  25)    179.8682         0.024336   
    112. D(P   6,C   5,C   0,H  22)      0.1914         0.023584   
    113. D(P   6,C   5,C   0,C   1)   -179.9414         0.023584   
    114. D(C   4,C   5,C   0,H  22)    179.8767         0.023584   
    115. D(P   6,C   5,C   4,C   3)    179.8986         0.024336   
    116. D(C   4,C   5,C   0,C   1)     -0.2561         0.023584   
    117. D(C   0,C   5,C   4,C   3)      0.2356         0.024336   
    118. D(C  14,P   6,C   5,C   4)    -12.1639         0.003792   
    119. D(C  14,P   6,C   5,C   0)    167.4996         0.003792   
    120. D(C   7,P   6,C   5,C   4)     96.6309         0.003792   
    121. D(C   7,P   6,C   5,C   0)    -83.7056         0.003792   
    122. D(C  12,C   7,P   6,C   5)    -12.1631         0.003792   
    123. D(C   8,C   7,P   6,C  14)    -83.7046         0.003792   
    124. D(C   8,C   7,P   6,C   5)    167.5005         0.003792   
    125. D(C  12,C   7,P   6,C  14)     96.6318         0.003792   
    126. D(H  26,C   8,C   7,C  12)    179.8767         0.023584   
    127. D(H  26,C   8,C   7,P   6)      0.1913         0.023584   
    128. D(C   9,C   8,C   7,C  12)     -0.2562         0.023584   
    129. D(C   9,C   8,C   7,P   6)   -179.9416         0.023584   
    130. D(H  27,C   9,C   8,H  26)     -0.0441         0.025272   
    131. D(H  27,C   9,C   8,C   7)   -179.9139         0.025272   
    132. D(C  10,C   9,C   8,H  26)   -179.9892         0.025272   
    133. D(C  10,C   9,C   8,C   7)      0.1410         0.025272   
    134. D(Cl 13,C  10,C   9,H  27)      0.1152         0.026919   
    135. D(Cl 13,C  10,C   9,C   8)   -179.9402         0.026919   
    136. D(C  11,C  10,C   9,H  27)   -179.9429         0.026919   
    137. D(C  11,C  10,C   9,C   8)      0.0018         0.026919   
    138. D(H  28,C  11,C  10,Cl 13)     -0.1105         0.026778   
    139. D(H  28,C  11,C  10,C   9)    179.9475         0.026778   
    140. D(C  12,C  11,C  10,Cl 13)    179.9203         0.026778   
    141. D(C  12,C  11,C  10,C   9)     -0.0216         0.026778   
    142. D(H  29,C  12,C  11,H  28)      0.2843         0.025040   
    143. D(C   7,C  12,C  11,H  28)    179.9297         0.025040   
    144. D(C   7,C  12,C  11,C  10)     -0.1009         0.025040   
    145. D(H  29,C  12,C   7,C   8)    179.8681         0.024336   
    146. D(H  29,C  12,C   7,P   6)     -0.4687         0.024336   
    147. D(H  29,C  12,C  11,C  10)   -179.7463         0.025040   
    148. D(C  11,C  12,C   7,C   8)      0.2356         0.024336   
    149. D(C  11,C  12,C   7,P   6)    179.8987         0.024336   
    150. D(C  19,C  14,P   6,C   7)    -12.1663         0.003792   
    151. D(C  19,C  14,P   6,C   5)     96.6286         0.003792   
    152. D(C  15,C  14,P   6,C   7)    167.4973         0.003792   
    153. D(C  15,C  14,P   6,C   5)    -83.7078         0.003792   
    154. D(H  30,C  15,C  14,P   6)      0.1913         0.023584   
    155. D(C  16,C  15,C  14,C  19)     -0.2561         0.023584   
    156. D(C  16,C  15,C  14,P   6)   -179.9415         0.023584   
    157. D(H  30,C  15,C  14,C  19)    179.8767         0.023584   
    158. D(H  31,C  16,C  15,H  30)     -0.0440         0.025272   
    159. D(H  31,C  16,C  15,C  14)   -179.9139         0.025272   
    160. D(C  17,C  16,C  15,H  30)   -179.9891         0.025272   
    161. D(C  17,C  16,C  15,C  14)      0.1410         0.025272   
    162. D(Cl 20,C  17,C  16,H  31)      0.1151         0.026919   
    163. D(Cl 20,C  17,C  16,C  15)   -179.9403         0.026919   
    164. D(C  18,C  17,C  16,H  31)   -179.9430         0.026919   
    165. D(C  18,C  17,C  16,C  15)      0.0016         0.026919   
    166. D(H  32,C  18,C  17,Cl 20)     -0.1106         0.026777   
    167. D(H  32,C  18,C  17,C  16)    179.9475         0.026777   
    168. D(C  19,C  18,C  17,Cl 20)    179.9204         0.026777   
    169. D(C  19,C  18,C  17,C  16)     -0.0215         0.026777   
    170. D(H  33,C  19,C  18,H  32)      0.2843         0.025040   
    171. D(H  33,C  19,C  18,C  17)   -179.7463         0.025040   
    172. D(C  14,C  19,C  18,H  32)    179.9299         0.025040   
    173. D(C  14,C  19,C  18,C  17)     -0.1008         0.025040   
    174. D(H  33,C  19,C  14,C  15)    179.8680         0.024336   
    175. D(H  33,C  19,C  14,P   6)     -0.4688         0.024336   
    176. D(C  18,C  19,C  14,C  15)      0.2354         0.024336   
    177. D(C  18,C  19,C  14,P   6)    179.8986         0.024336   
    -----------------------------------------------------------------

Number of atoms                         .... 34
Number of degrees of freedom            .... 177


         *************************************************************
         *                GEOMETRY OPTIMIZATION CYCLE   1            *
         *************************************************************
---------------------------------
CARTESIAN COORDINATES (ANGSTROEM)
---------------------------------
  C     -0.698366   -2.421055   -1.635688
  C     -1.190981   -3.686835   -1.301863
  C     -1.868795   -3.868670   -0.101375
  C     -2.056891   -2.796557    0.765082
  C     -1.562564   -1.530736    0.428945
  C     -0.872772   -1.320769   -0.775245
  P     -0.194841    0.286292   -1.302955
  C      1.555433    0.216422   -0.800587
  C      2.423215    1.202669   -1.306233
  C      3.780320    1.215771   -0.967999
  C      4.289289    0.238459   -0.119777
  C      3.452953   -0.749039    0.391047
  C      2.094951   -0.759803    0.051398
  Cl     5.956737    0.251256    0.300201
  C     -0.940584    1.483326   -0.148966
  C     -2.231063    1.962272   -0.443382
  C     -2.870003    2.883537    0.392880
  C     -2.223880    3.341317    1.535960
  C     -0.946901    2.885540    1.847643
  C     -0.309643    1.963166    1.009326
  Cl    -3.005903    4.472782    2.568021
  Cl    -2.474944   -5.423284    0.314181
  H     -0.171022   -2.303898   -2.581626
  H     -1.041600   -4.520023   -1.983350
  H     -2.586858   -2.933935    1.704111
  H     -1.726683   -0.720448    1.134815
  H      2.048395    1.978710   -1.972481
  H      4.428567    1.989251   -1.371047
  H      3.846682   -1.515420    1.053730
  H      1.474457   -1.545596    0.474800
  H     -2.757680    1.618812   -1.332948
  H     -3.867098    3.236400    0.143419
  H     -0.437766    3.241324    2.739669
  H      0.685839    1.628762    1.290296

----------------------------
CARTESIAN COORDINATES (A.U.)
----------------------------
  NO LB      ZA    FRAG     MASS         X           Y           Z
   0 C     6.0000    0    12.011   -1.319720   -4.575131   -3.091002
   1 C     6.0000    0    12.011   -2.250628   -6.967108   -2.460165
   2 C     6.0000    0    12.011   -3.531511   -7.310727   -0.191571
   3 C     6.0000    0    12.011   -3.886961   -5.284727    1.445795
   4 C     6.0000    0    12.011   -2.952818   -2.892672    0.810589
   5 C     6.0000    0    12.011   -1.649300   -2.495892   -1.465001
   6 P    15.0000    0    30.974   -0.368196    0.541013   -2.462228
   7 C     6.0000    0    12.011    2.939342    0.408978   -1.512890
   8 C     6.0000    0    12.011    4.579213    2.272715   -2.468423
   9 C     6.0000    0    12.011    7.143769    2.297474   -1.829253
  10 C     6.0000    0    12.011    8.105582    0.450622   -0.226346
  11 C     6.0000    0    12.011    6.525136   -1.415479    0.738972
  12 C     6.0000    0    12.011    3.958884   -1.435820    0.097128
  13 Cl   17.0000    0    35.453   11.256602    0.474805    0.567298
  14 C     6.0000    0    12.011   -1.777446    2.803080   -0.281505
  15 C     6.0000    0    12.011   -4.216098    3.708157   -0.837871
  16 C     6.0000    0    12.011   -5.423520    5.449095    0.742436
  17 C     6.0000    0    12.011   -4.202524    6.314174    2.902544
  18 C     6.0000    0    12.011   -1.789384    5.452880    3.491539
  19 C     6.0000    0    12.011   -0.585140    3.709846    1.907350
  20 Cl   17.0000    0    35.453   -5.680333    8.452333    4.852856
  21 Cl   17.0000    0    35.453   -4.676966  -10.248522    0.593716
  22 H     1.0000    0     1.008   -0.323185   -4.353736   -4.878566
  23 H     1.0000    0     1.008   -1.968339   -8.541606   -3.747988
  24 H     1.0000    0     1.008   -4.888453   -5.544334    3.220303
  25 H     1.0000    0     1.008   -3.262958   -1.361449    2.144490
  26 H     1.0000    0     1.008    3.870906    3.739220   -3.727449
  27 H     1.0000    0     1.008    8.368779    3.759140   -2.590903
  28 H     1.0000    0     1.008    7.269176   -2.863729    1.991261
  29 H     1.0000    0     1.008    2.786320   -2.920753    0.897242
  30 H     1.0000    0     1.008   -5.211260    3.059111   -2.518907
  31 H     1.0000    0     1.008   -7.307756    6.115910    0.271023
  32 H     1.0000    0     1.008   -0.827258    6.125215    5.177224
  33 H     1.0000    0     1.008    1.296048    3.077914    2.438306

--------------------------------
INTERNAL COORDINATES (ANGSTROEM)
--------------------------------
 C      0   0   0     0.000000000000     0.00000000     0.00000000
 C      1   0   0     1.398680691670     0.00000000     0.00000000
 C      2   1   0     1.390563635353   119.73978162     0.00000000
 C      3   2   1     1.391241935407   120.18526707     0.00000000
 C      4   3   2     1.399875019328   119.96914430     0.00000000
 C      5   4   3     1.403557159667   120.98595339   359.89907413
 P      6   5   4     1.822282454117   124.27848031   179.89862007
 C      7   6   5     1.822282771526   104.10354510    96.63090373
 C      8   7   6     1.407624460518   117.78998101   167.50053132
 C      9   8   7     1.398680764930   121.18863426   180.05842134
 C     10   9   8     1.390564183916   119.73976008     0.14098907
 C     11  10   9     1.391240943861   120.18524468     0.00000000
 C     12  11  10     1.399873829636   119.96921516     0.00000000
 Cl    11  10   9     1.719572073627   119.91204279   180.05983777
 C      7   6   5     1.822282533343   104.10350767   347.83613484
 C     15   7   6     1.407624275655   117.79000601   276.29223838
 C     16  15   7     1.398680684241   121.18862366   180.05851288
 C     17  16  15     1.390564398339   119.73975951     0.14104808
 C     18  17  16     1.391242010816   120.18527593     0.00000000
 C     19  18  17     1.399873903939   119.96912872     0.00000000
 Cl    18  17  16     1.719570564552   119.91206747   180.05970788
 Cl     3   2   1     1.719572065467   119.91211809   180.05980007
 H      1   2   3     1.089319125339   118.36515054   180.01082374
 H      2   1   3     1.086711303739   119.72038020   179.94538619
 H      4   3   2     1.086974332178   120.43433617   179.94763619
 H      5   4   3     1.087085160420   117.69545850   180.25350045
 H      9   8   7     1.089319082540   120.44609388     0.19126297
 H     10   9   8     1.086712093295   119.72039184   180.08609225
 H     12  11  10     1.086973376441   120.43422125   179.94753074
 H     13  12  11     1.087084493721   117.69551159   180.25368980
 H     16  15   7     1.089319927590   120.44607889     0.19131769
 H     17  16  15     1.086711335321   119.72044317   180.08612538
 H     19  18  17     1.086973361015   120.43426315   179.94752548
 H     20  19  18     1.087085363916   117.69549413   180.25365311

---------------------------
INTERNAL COORDINATES (A.U.)
---------------------------
 C      0   0   0     0.000000000000     0.00000000     0.00000000
 C      1   0   0     2.643123456060     0.00000000     0.00000000
 C      2   1   0     2.627784442606   119.73978162     0.00000000
 C      3   2   1     2.629066243945   120.18526707     0.00000000
 C      4   3   2     2.645380408248   119.96914430     0.00000000
 C      5   4   3     2.652338645075   120.98595339   359.89907413
 P      6   5   4     3.443614776931   124.27848031   179.89862007
 C      7   6   5     3.443615376747   104.10354510    96.63090373
 C      8   7   6     2.660024729788   117.78998101   167.50053132
 C      9   8   7     2.643123594501   121.18863426   180.05842134
 C     10   9   8     2.627785479240   119.73976008     0.14098907
 C     11  10   9     2.629064370196   120.18524468     0.00000000
 C     12  11  10     2.645378160056   119.96921516     0.00000000
 Cl    11  10   9     3.249520286694   119.91204279   180.05983777
 C      7   6   5     3.443614926646   104.10350767   347.83613484
 C     15   7   6     2.660024380447   117.79000601   276.29223838
 C     16  15   7     2.643123442021   121.18862366   180.05851288
 C     17  16  15     2.627785884442   119.73975951     0.14104808
 C     18  17  16     2.629066386448   120.18527593     0.00000000
 C     19  18  17     2.645378300468   119.96912872     0.00000000
 Cl    18  17  16     3.249517434956   119.91206747   180.05970788
 Cl     3   2   1     3.249520271273   119.91211809   180.05980007
 H      1   2   3     2.058514819333   118.36515054   180.01082374
 H      2   1   3     2.053586750703   119.72038020   179.94538619
 H      4   3   2     2.054083802419   120.43433617   179.94763619
 H      5   4   3     2.054293237443   117.69545850   180.25350045
 H      9   8   7     2.058514738454   120.44609388     0.19126297
 H     10   9   8     2.053588242747   119.72039184   180.08609225
 H     12  11  10     2.054081996337   120.43422125   179.94753074
 H     13  12  11     2.054291977565   117.69551159   180.25368980
 H     16  15   7     2.058516335368   120.44607889     0.19131769
 H     17  16  15     2.053586810384   119.72044317   180.08612538
 H     19  18  17     2.054081967187   120.43426315   179.94752548
 H     20  19  18     2.054293621995   117.69549413   180.25365311

---------------------
BASIS SET INFORMATION
---------------------
There are 4 groups of distinct atoms

 Group   1 Type C   : 7s4p1d contracted to 3s2p1d pattern {511/31/1}
 Group   2 Type P   : 10s7p1d contracted to 4s3p1d pattern {5311/511/1}
 Group   3 Type Cl  : 10s7p1d contracted to 4s3p1d pattern {5311/511/1}
 Group   4 Type H   : 4s1p contracted to 2s1p pattern {31/1}

Atom   0C    basis set group =>   1
Atom   1C    basis set group =>   1
Atom   2C    basis set group =>   1
Atom   3C    basis set group =>   1
Atom   4C    basis set group =>   1
Atom   5C    basis set group =>   1
Atom   6P    basis set group =>   2
Atom   7C    basis set group =>   1
Atom   8C    basis set group =>   1
Atom   9C    basis set group =>   1
Atom  10C    basis set group =>   1
Atom  11C    basis set group =>   1
Atom  12C    basis set group =>   1
Atom  13Cl   basis set group =>   3
Atom  14C    basis set group =>   1
Atom  15C    basis set group =>   1
Atom  16C    basis set group =>   1
Atom  17C    basis set group =>   1
Atom  18C    basis set group =>   1
Atom  19C    basis set group =>   1
Atom  20Cl   basis set group =>   3
Atom  21Cl   basis set group =>   3
Atom  22H    basis set group =>   4
Atom  23H    basis set group =>   4
Atom  24H    basis set group =>   4
Atom  25H    basis set group =>   4
Atom  26H    basis set group =>   4
Atom  27H    basis set group =>   4
Atom  28H    basis set group =>   4
Atom  29H    basis set group =>   4
Atom  30H    basis set group =>   4
Atom  31H    basis set group =>   4
Atom  32H    basis set group =>   4
Atom  33H    basis set group =>   4
---------------------------------
AUXILIARY/J BASIS SET INFORMATION
---------------------------------
There are 4 groups of distinct atoms

 Group   1 Type C   : 12s5p4d2f1g contracted to 6s4p3d1f1g pattern {711111/2111/211/2/1}
 Group   2 Type P   : 14s5p5d2f1g contracted to 8s4p3d1f1g pattern {71111111/2111/311/2/1}
 Group   3 Type Cl  : 14s5p5d2f1g contracted to 8s4p3d1f1g pattern {71111111/2111/311/2/1}
 Group   4 Type H   : 5s2p1d contracted to 3s1p1d pattern {311/2/1}

Atom   0C    basis set group =>   1
Atom   1C    basis set group =>   1
Atom   2C    basis set group =>   1
Atom   3C    basis set group =>   1
Atom   4C    basis set group =>   1
Atom   5C    basis set group =>   1
Atom   6P    basis set group =>   2
Atom   7C    basis set group =>   1
Atom   8C    basis set group =>   1
Atom   9C    basis set group =>   1
Atom  10C    basis set group =>   1
Atom  11C    basis set group =>   1
Atom  12C    basis set group =>   1
Atom  13Cl   basis set group =>   3
Atom  14C    basis set group =>   1
Atom  15C    basis set group =>   1
Atom  16C    basis set group =>   1
Atom  17C    basis set group =>   1
Atom  18C    basis set group =>   1
Atom  19C    basis set group =>   1
Atom  20Cl   basis set group =>   3
Atom  21Cl   basis set group =>   3
Atom  22H    basis set group =>   4
Atom  23H    basis set group =>   4
Atom  24H    basis set group =>   4
Atom  25H    basis set group =>   4
Atom  26H    basis set group =>   4
Atom  27H    basis set group =>   4
Atom  28H    basis set group =>   4
Atom  29H    basis set group =>   4
Atom  30H    basis set group =>   4
Atom  31H    basis set group =>   4
Atom  32H    basis set group =>   4
Atom  33H    basis set group =>   4


           ************************************************************
           *        Program running with 6 parallel MPI-processes     *
           *              working on a common directory               *
           ************************************************************
------------------------------------------------------------------------------
                             ORCA STARTUP CALCULATIONS
                           -- RI-GTO INTEGRALS CHOSEN --
------------------------------------------------------------------------------
------------------------------------------------------------------------------
                   ___                                                        
                  /   \      - P O W E R E D   B Y -                         
                 /     \                                                     
                 |  |  |   _    _      __       _____    __    __             
                 |  |  |  | |  | |    /  \     |  _  \  |  |  /  |          
                  \  \/   | |  | |   /    \    | | | |  |  | /  /          
                 / \  \   | |__| |  /  /\  \   | |_| |  |  |/  /          
                |  |  |   |  __  | /  /__\  \  |    /   |      \           
                |  |  |   | |  | | |   __   |  |    \   |  |\   \          
                \     /   | |  | | |  |  |  |  | |\  \  |  | \   \       
                 \___/    |_|  |_| |__|  |__|  |_| \__\ |__|  \__/        
                                                                              
                      - O R C A' S   B I G   F R I E N D -                    
                                      &                                       
                       - I N T E G R A L  F E E D E R -                       
                                                                              
 v1 FN, 2020, v2 2021, v3 2022-2024                                           
------------------------------------------------------------------------------


----------------------
SHARK INTEGRAL PACKAGE
----------------------

Number of atoms                             ...     34
Number of basis functions                   ...    384
Number of shells                            ...    176
Maximum angular momentum                    ...      2
Integral batch strategy                     ... SHARK/LIBINT Hybrid
RI-J (if used) integral strategy            ... SPLIT-RIJ (Revised 2003 algorithm where possible)
Printlevel                                  ...      1
Contraction scheme used                     ... SEGMENTED contraction
Prescreening option                         ... SCHWARTZ
   Thresh                                   ... 2.500e-11
   Tcut                                     ... 2.500e-12
   Tpresel                                  ... 2.500e-12 
Coulomb Range Separation                    ... NOT USED
Exchange Range Separation                   ... NOT USED
Multipole approximations                    ... NOT USED
Finite Nucleus Model                        ... NOT USED
CABS basis                                  ... NOT available
Auxiliary Coulomb fitting basis             ... AVAILABLE
   # of basis functions in Aux-J            ...   1218
   # of shells in Aux-J                     ...    398
   Maximum angular momentum in Aux-J        ...      4
Auxiliary J/K fitting basis                 ... NOT available
Auxiliary Correlation fitting basis         ... NOT available
Auxiliary 'external' fitting basis          ... NOT available

Checking pre-screening integrals            ... done (  0.0 sec) Dimension = 176
Check shell pair data                       ... done (  0.0 sec)
Shell pair information
Shell pair cut-off parameter TPreSel        ...   2.5e-12
Total number of shell pairs                 ...     15576
Shell pairs after pre-screening             ...     11089
Total number of primitive shell pairs       ...     61088
Primitive shell pairs kept                  ...     26842
          la=0 lb=0:   3256 shell pairs
          la=1 lb=0:   4126 shell pairs
          la=1 lb=1:   1351 shell pairs
          la=2 lb=0:   1342 shell pairs
          la=2 lb=1:    875 shell pairs
          la=2 lb=2:    139 shell pairs

Calculating one electron integrals          ... done (  0.0 sec)
Calculating RI/J V-Matrix + Cholesky decomp.... done (  0.1 sec)
Calculating Nuclear repulsion               ... done (  0.0 sec) ENN=   2098.887953899335 Eh

Diagonalization of the overlap matrix:
Smallest eigenvalue                        ... 2.527e-04
Time for diagonalization                   ...    0.019 sec
Threshold for overlap eigenvalues          ... 1.000e-07
Number of eigenvalues below threshold      ... 0
Time for construction of square roots      ...    0.011 sec
Total time needed                          ...    0.031 sec

-------------------
DFT GRID GENERATION
-------------------

General Integration Accuracy     IntAcc      ... 4.388
Radial Grid Type                 RadialGrid  ... OptM3 with GC (2021)
Angular Grid (max. ang.)         AngularGrid ... 4 (Lebedev-302)
Angular grid pruning method      GridPruning ... 4 (adaptive)
Weight generation scheme         WeightScheme... mBecke (2022)
Basis function cutoff            BFCut       ... 1.0000e-11
Integration weight cutoff        WCut        ... 1.0000e-14
Partially contracted basis set               ... off
Rotationally invariant grid construction     ... off
Angular grids for H and He will be reduced by one unit

Total number of grid points                  ...   174865
Total number of batches                      ...     2749
Average number of points per batch           ...       63
Average number of grid points per atom       ...     5143
Initializing property integral containers    ... done (  0.0 sec)

SHARK setup successfully completed in   1.4 seconds

Maximum memory used throughout the entire STARTUP-calculation: 47.9 MB


           ************************************************************
           *        Program running with 6 parallel MPI-processes     *
           *              working on a common directory               *
           ************************************************************
-------------------------------------------------------------------------------
                                 ORCA GUESS
                   Start orbitals & Density for SCF / CASSCF
-------------------------------------------------------------------------------

------------
SCF SETTINGS
------------
Hamiltonian:
 Density Functional     Method          .... DFT(GTOs)
 Exchange Functional    Exchange        .... B88
   X-Alpha parameter    XAlpha          ....  0.666667
   Becke's b parameter  XBeta           ....  0.004200
 Correlation Functional Correlation     .... P86
 LDA part of GGA corr.  LDAOpt          .... PW91-LDA
 Gradients option       PostSCFGGA      .... off
   NL short-range parameter             ....  4.400000
 RI-approximation to the Coulomb term is turned on
   Number of AuxJ basis functions       .... 1218


General Settings:
 Integral files         IntName         .... data/geom_opt_P_BP86/70874/70874
 Hartree-Fock type      HFTyp           .... RHF
 Total Charge           Charge          ....    0
 Multiplicity           Mult            ....    1
 Number of Electrons    NEL             ....  186
 Basis Dimension        Dim             ....  384
 Nuclear Repulsion      ENuc            ....   2098.8879538993 Eh

Convergence Acceleration:
 AO-DIIS                CNVDIIS         .... on
   Start iteration      DIISMaxIt       ....    12
   Startup error        DIISStart       ....  0.200000
   # of expansion vecs  DIISMaxEq       ....     5
   Bias factor          DIISBfac        ....   1.050
   Max. coefficient     DIISMaxC        ....  10.000
 MO-DIIS                CNVKDIIS        .... off
 Trust-Rad. Augm. Hess. CNVTRAH         .... auto
   Auto Start mean grad. ratio tolernc. ....  1.125000
   Auto Start start iteration           ....    50
   Auto Start num. interpolation iter.  ....    10
   Max. Number of Micro iterations      ....    24
   Max. Number of Macro iterations      .... Maxiter - #DIIS iter
   Number of Davidson start vectors     ....     2
   Converg. threshold    (grad. norm)   ....   1.000e-05
   Grad. Scal. Fac. for Micro threshold ....   0.100
   Minimum threshold for Micro iter.    ....   1.000e-02
   NR start threshold (gradient norm)   ....   1.000e-04
   Initial trust radius                 ....   0.400
   Minimum AH scaling param. (alpha)    ....   1.000
   Maximum AH scaling param. (alpha)    .... 1000.000
   Quad. conv. algorithm                .... NR
   White noise on init. David. guess    .... on
   Maximum white noise                  ....   0.010
   Pseudo random numbers                .... off
   Inactive MOs                         .... canonical
   Orbital update algorithm             .... Taylor
   Preconditioner                       .... Diag
   Full preconditioner red. dimension   ....   250
 SOSCF                  CNVSOSCF        .... on
   Start iteration      SOSCFMaxIt      ....   150
   Startup grad/error   SOSCFStart      ....  0.003300
   Hessian update       SOSCFHessUp     .... L-BFGS
 Level Shifting         CNVShift        .... on
   Level shift para.    LevelShift      ....    0.2500
   Turn off err/grad.   ShiftErr        ....    0.0010
 Zerner damping         CNVZerner       .... off
 Static damping         CNVDamp         .... on
   Fraction old density DampFac         ....    0.7000
   Max. Damping (<1)    DampMax         ....    0.9800
   Min. Damping (>=0)   DampMin         ....    0.0000
   Turn off err/grad.   DampErr         ....    0.1000

SCF Procedure:
 Maximum # iterations   MaxIter         ....   125
 SCF integral mode      SCFMode         .... Direct
   Integral package                     .... SHARK and LIBINT hybrid scheme
 Reset frequency        DirectResetFreq ....    20
 Integral Threshold     Thresh          ....  2.500e-11 Eh
 Primitive CutOff       TCut            ....  2.500e-12 Eh

Convergence Tolerance:
 Convergence Check Mode ConvCheckMode   .... Total+1el-Energy
 Convergence forced     ConvForced      .... 0
 Energy Change          TolE            ....  1.000e-08 Eh
 1-El. energy change                    ....  1.000e-05 Eh
 Orbital Gradient       TolG            ....  1.000e-05
 Orbital Rotation angle TolX            ....  1.000e-05
 DIIS Error             TolErr          ....  5.000e-07

------------------------------
INITIAL GUESS: MODEL POTENTIAL
------------------------------
Loading Hartree-Fock densities                     ... done
Calculating cut-offs                               ... done
Initializing the effective Hamiltonian             ... done
Setting up the integral package (SHARK)            ... done
Starting the Coulomb interaction                   ... done (   0.2 sec)
Making the grid                                    ... done (   0.2 sec)
Mapping shells                                     ... done
Starting the XC term evaluation                    ... done (   0.1 sec)
  promolecular density results
     # of electrons  =    185.989426078
     EX              =   -201.357238958
     EC              =     -7.316547428
     EX+EC           =   -208.673786386
Transforming the Hamiltonian                       ... done (   0.0 sec)
Diagonalizing the Hamiltonian                      ... done (   0.0 sec)
Back transforming the eigenvectors                 ... done (   0.0 sec)
Now organizing SCF variables                       ... done
                      ------------------
                      INITIAL GUESS DONE (   0.7 sec)
                      ------------------
             **** ENERGY FILE WAS UPDATED (data/geom_opt_P_BP86/70874/70874.en.tmp) ****
Finished Guess after   0.8 sec
Maximum memory used throughout the entire GUESS-calculation: 26.6 MB


           ************************************************************
           *        Program running with 6 parallel MPI-processes     *
           *              working on a common directory               *
           ************************************************************

-------------------------------------------------------------------------------------------
                                      ORCA LEAN-SCF
                              memory conserving SCF solver
-------------------------------------------------------------------------------------------

----------------------------------------D-I-I-S--------------------------------------------
Iteration    Energy (Eh)           Delta-E    RMSDP     MaxDP     DIISErr   Damp  Time(sec)
-------------------------------------------------------------------------------------------
               ***  Starting incremental Fock matrix formation  ***
    1    -2413.9252989567926306     0.00e+00  1.96e-03  5.28e-02  1.03e-01  0.700   1.0
    2    -2414.0750583894173360    -1.50e-01  1.35e-03  4.82e-02  4.94e-02  0.700   0.9
                               ***Turning on AO-DIIS***
    3    -2414.1275160799136756    -5.25e-02  5.51e-04  2.71e-02  1.70e-02  0.700   1.0
    4    -2414.1584619702075543    -3.09e-02  1.06e-03  5.25e-02  9.89e-03  0.000   0.9
    5    -2414.2286838149670984    -7.02e-02  2.22e-04  9.95e-03  4.27e-03  0.000   0.9
                              *** Initializing SOSCF ***
---------------------------------------S-O-S-C-F--------------------------------------
Iteration    Energy (Eh)           Delta-E    RMSDP     MaxDP     MaxGrad    Time(sec)
--------------------------------------------------------------------------------------
    6    -2414.2293113395312503    -6.28e-04  7.17e-05  3.08e-03  8.13e-04     1.0
               *** Restarting incremental Fock matrix formation ***
    7    -2414.2293498586527676    -3.85e-05  6.98e-05  2.07e-03  3.68e-04     1.0
    8    -2414.2293355054175663     1.44e-05  3.51e-05  9.80e-04  8.97e-04     0.8
    9    -2414.2293570955112045    -2.16e-05  2.67e-05  8.72e-04  2.57e-04     0.8
   10    -2414.2293548066259063     2.29e-06  1.32e-05  6.01e-04  2.63e-04     0.8
   11    -2414.2293588431944045    -4.04e-06  7.05e-06  3.09e-04  2.73e-05     0.7
   12    -2414.2293588690931756    -2.59e-08  3.49e-06  1.91e-04  2.99e-05     0.8
   13    -2414.2293589349833383    -6.59e-08  1.66e-06  7.78e-05  6.65e-06     0.8
   14    -2414.2293589510250058    -1.60e-08  8.64e-07  3.59e-05  1.37e-05     0.7
   15    -2414.2293589532923761    -2.27e-09  7.62e-07  3.47e-05  3.72e-06     0.7
                 **** Energy Check signals convergence ****

               *****************************************************
               *                     SUCCESS                       *
               *           SCF CONVERGED AFTER  15 CYCLES          *
               *****************************************************

             **** ENERGY FILE WAS UPDATED (data/geom_opt_P_BP86/70874/70874.en.tmp) ****

----------------
TOTAL SCF ENERGY
----------------

Total Energy       :      -2414.22935895329238 Eh          -65694.52070 eV

Components:
Nuclear Repulsion  :       2098.88795389933466 Eh           57113.64483 eV
Electronic Energy  :      -4513.11731285262704 Eh         -122808.16553 eV
One Electron Energy:      -7489.60721390868275 Eh         -203802.57341 eV
Two Electron Energy:       2976.48990105605571 Eh           80994.40788 eV

Virial components:
Potential Energy   :      -4816.39221751661353 Eh         -131060.69524 eV
Kinetic Energy     :       2402.16285856332070 Eh           65366.17453 eV
Virial Ratio       :          2.00502318164939

DFT components:
N(Alpha)           :       92.999969031463 electrons
N(Beta)            :       92.999969031463 electrons
N(Total)           :      185.999938062925 electrons
E(X)               :     -202.909215736179 Eh       
E(C)               :       -7.318969557247 Eh       
E(XC)              :     -210.228185293427 Eh       

---------------
SCF CONVERGENCE
---------------

  Last Energy change         ...    2.2674e-09  Tolerance :   1.0000e-08
  Last MAX-Density change    ...    3.4723e-05  Tolerance :   1.0000e-07
  Last RMS-Density change    ...    7.6222e-07  Tolerance :   5.0000e-09
  Last DIIS Error            ...    8.1269e-04  Tolerance :   5.0000e-07
  Last Orbital Gradient      ...    3.7246e-06  Tolerance :   1.0000e-05
  Last Orbital Rotation      ...    1.1871e-05  Tolerance :   1.0000e-05


----------------
ORBITAL ENERGIES
----------------

  NO   OCC          E(Eh)            E(eV) 
   0   2.0000    -100.707813     -2740.3989 
   1   2.0000    -100.707812     -2740.3989 
   2   2.0000    -100.707812     -2740.3989 
   3   2.0000     -76.353928     -2077.6960 
   4   2.0000      -9.978037      -271.5162 
   5   2.0000      -9.978029      -271.5160 
   6   2.0000      -9.978028      -271.5159 
   7   2.0000      -9.937106      -270.4024 
   8   2.0000      -9.937100      -270.4022 
   9   2.0000      -9.937097      -270.4022 
  10   2.0000      -9.936704      -270.3915 
  11   2.0000      -9.936702      -270.3914 
  12   2.0000      -9.936633      -270.3895 
  13   2.0000      -9.935553      -270.3601 
  14   2.0000      -9.935525      -270.3594 
  15   2.0000      -9.935520      -270.3592 
  16   2.0000      -9.934903      -270.3425 
  17   2.0000      -9.934895      -270.3422 
  18   2.0000      -9.934893      -270.3422 
  19   2.0000      -9.934378      -270.3282 
  20   2.0000      -9.934372      -270.3280 
  21   2.0000      -9.934365      -270.3278 
  22   2.0000      -9.193555      -250.1693 
  23   2.0000      -9.193554      -250.1693 
  24   2.0000      -9.193554      -250.1693 
  25   2.0000      -7.024303      -191.1410 
  26   2.0000      -7.024300      -191.1409 
  27   2.0000      -7.024299      -191.1409 
  28   2.0000      -7.013338      -190.8426 
  29   2.0000      -7.013337      -190.8426 
  30   2.0000      -7.013336      -190.8426 
  31   2.0000      -7.012588      -190.8222 
  32   2.0000      -7.012586      -190.8222 
  33   2.0000      -7.012584      -190.8221 
  34   2.0000      -6.323255      -172.0645 
  35   2.0000      -4.544622      -123.6654 
  36   2.0000      -4.544621      -123.6654 
  37   2.0000      -4.540895      -123.5640 
  38   2.0000      -0.825648       -22.4670 
  39   2.0000      -0.824618       -22.4390 
  40   2.0000      -0.824614       -22.4389 
  41   2.0000      -0.778836       -21.1932 
  42   2.0000      -0.768622       -20.9153 
  43   2.0000      -0.768617       -20.9151 
  44   2.0000      -0.698963       -19.0198 
  45   2.0000      -0.690453       -18.7882 
  46   2.0000      -0.690451       -18.7881 
  47   2.0000      -0.690149       -18.7799 
  48   2.0000      -0.666796       -18.1444 
  49   2.0000      -0.666793       -18.1444 
  50   2.0000      -0.589818       -16.0498 
  51   2.0000      -0.567137       -15.4326 
  52   2.0000      -0.567134       -15.4325 
  53   2.0000      -0.566725       -15.4214 
  54   2.0000      -0.545324       -14.8390 
  55   2.0000      -0.545321       -14.8389 
  56   2.0000      -0.519916       -14.1476 
  57   2.0000      -0.477625       -12.9968 
  58   2.0000      -0.477618       -12.9967 
  59   2.0000      -0.451886       -12.2964 
  60   2.0000      -0.436912       -11.8890 
  61   2.0000      -0.436766       -11.8850 
  62   2.0000      -0.436764       -11.8850 
  63   2.0000      -0.419561       -11.4168 
  64   2.0000      -0.419559       -11.4168 
  65   2.0000      -0.411214       -11.1897 
  66   2.0000      -0.394697       -10.7403 
  67   2.0000      -0.394695       -10.7402 
  68   2.0000      -0.394025       -10.7220 
  69   2.0000      -0.391042       -10.6408 
  70   2.0000      -0.391041       -10.6408 
  71   2.0000      -0.368644       -10.0313 
  72   2.0000      -0.367927       -10.0118 
  73   2.0000      -0.367923       -10.0117 
  74   2.0000      -0.357948        -9.7403 
  75   2.0000      -0.331071        -9.0089 
  76   2.0000      -0.331071        -9.0089 
  77   2.0000      -0.329302        -8.9608 
  78   2.0000      -0.316754        -8.6193 
  79   2.0000      -0.316753        -8.6193 
  80   2.0000      -0.309794        -8.4299 
  81   2.0000      -0.301999        -8.2178 
  82   2.0000      -0.301998        -8.2178 
  83   2.0000      -0.277415        -7.5488 
  84   2.0000      -0.277369        -7.5476 
  85   2.0000      -0.277369        -7.5476 
  86   2.0000      -0.252923        -6.8824 
  87   2.0000      -0.248371        -6.7585 
  88   2.0000      -0.248370        -6.7585 
  89   2.0000      -0.246793        -6.7156 
  90   2.0000      -0.232853        -6.3363 
  91   2.0000      -0.232852        -6.3362 
  92   2.0000      -0.194445        -5.2911 
  93   0.0000      -0.071064        -1.9338 
  94   0.0000      -0.071063        -1.9337 
  95   0.0000      -0.069613        -1.8943 
  96   0.0000      -0.055328        -1.5055 
  97   0.0000      -0.055325        -1.5055 
  98   0.0000      -0.053572        -1.4578 
  99   0.0000       0.004546         0.1237 
 100   0.0000       0.004555         0.1240 
 101   0.0000       0.006960         0.1894 
 102   0.0000       0.033587         0.9139 
 103   0.0000       0.033588         0.9140 
*Only the first 10 virtual orbitals were printed.

                    ********************************
                    * MULLIKEN POPULATION ANALYSIS *
                    ********************************

-----------------------
MULLIKEN ATOMIC CHARGES
-----------------------
   0 C :    0.000966
   1 C :    0.026500
   2 C :    0.039620
   3 C :    0.032671
   4 C :   -0.011400
   5 C :   -0.119228
   6 P :    0.290934
   7 C :   -0.119090
   8 C :    0.001003
   9 C :    0.026618
  10 C :    0.039434
  11 C :    0.032754
  12 C :   -0.011621
  13 Cl:   -0.075110
  14 C :   -0.119128
  15 C :    0.000976
  16 C :    0.026521
  17 C :    0.039647
  18 C :    0.032598
  19 C :   -0.011472
  20 Cl:   -0.075119
  21 Cl:   -0.075113
  22 H :    0.005438
  23 H :   -0.002909
  24 H :   -0.005154
  25 H :    0.011617
  26 H :    0.005424
  27 H :   -0.002906
  28 H :   -0.005125
  29 H :    0.011650
  30 H :    0.005382
  31 H :   -0.002882
  32 H :   -0.005158
  33 H :    0.011664
Sum of atomic charges:   -0.0000000

--------------------------------
MULLIKEN REDUCED ORBITAL CHARGES
--------------------------------
  0 C s       :     3.228685  s :     3.228685
      pz      :     0.887938  p :     2.737635
      px      :     0.936670
      py      :     0.913027
      dz2     :     0.006575  d :     0.032714
      dxz     :     0.004176
      dyz     :     0.008653
      dx2y2   :     0.006436
      dxy     :     0.006874

  1 C s       :     3.231569  s :     3.231569
      pz      :     0.912279  p :     2.709966
      px      :     0.976929
      py      :     0.820758
      dz2     :     0.006864  d :     0.031965
      dxz     :     0.004791
      dyz     :     0.009470
      dx2y2   :     0.005943
      dxy     :     0.004897

  2 C s       :     2.973112  s :     2.973112
      pz      :     1.045070  p :     2.935076
      px      :     1.022057
      py      :     0.867949
      dz2     :     0.011434  d :     0.052192
      dxz     :     0.006583
      dyz     :     0.013845
      dx2y2   :     0.009958
      dxy     :     0.010372

  3 C s       :     3.231667  s :     3.231667
      pz      :     0.851918  p :     2.703685
      px      :     0.943920
      py      :     0.907847
      dz2     :     0.006072  d :     0.031978
      dxz     :     0.004006
      dyz     :     0.009144
      dx2y2   :     0.006138
      dxy     :     0.006618

  4 C s       :     3.244383  s :     3.244383
      pz      :     0.923189  p :     2.734144
      px      :     0.966715
      py      :     0.844239
      dz2     :     0.006780  d :     0.032873
      dxz     :     0.004349
      dyz     :     0.010406
      dx2y2   :     0.005827
      dxy     :     0.005511

  5 C s       :     3.066232  s :     3.066232
      pz      :     0.997450  p :     3.018198
      px      :     1.027454
      py      :     0.993295
      dz2     :     0.008415  d :     0.034798
      dxz     :     0.005494
      dyz     :     0.010457
      dx2y2   :     0.005170
      dxy     :     0.005262

  6 P s       :     5.655005  s :     5.655005
      pz      :     3.306822  p :     8.877127
      px      :     2.778153
      py      :     2.792152
      dz2     :     0.020052  d :     0.176935
      dxz     :     0.031480
      dyz     :     0.035166
      dx2y2   :     0.051942
      dxy     :     0.038294

  7 C s       :     3.066127  s :     3.066127
      pz      :     1.004062  p :     3.018166
      px      :     0.989008
      py      :     1.025095
      dz2     :     0.005804  d :     0.034798
      dxz     :     0.007413
      dyz     :     0.005277
      dx2y2   :     0.008894
      dxy     :     0.007410

  8 C s       :     3.228612  s :     3.228612
      pz      :     0.926601  p :     2.737671
      px      :     0.895205
      py      :     0.915865
      dz2     :     0.003354  d :     0.032714
      dxz     :     0.007318
      dyz     :     0.004515
      dx2y2   :     0.008769
      dxy     :     0.008759

  9 C s       :     3.231506  s :     3.231506
      pz      :     0.958818  p :     2.709911
      px      :     0.847398
      py      :     0.903695
      dz2     :     0.004948  d :     0.031965
      dxz     :     0.006795
      dyz     :     0.004160
      dx2y2   :     0.006853
      dxy     :     0.009209

 10 C s       :     2.973204  s :     2.973204
      pz      :     1.037621  p :     2.935170
      px      :     0.835522
      py      :     1.062027
      dz2     :     0.007883  d :     0.052192
      dxz     :     0.010878
      dyz     :     0.006097
      dx2y2   :     0.015021
      dxy     :     0.012313

 11 C s       :     3.231589  s :     3.231589
      pz      :     0.920812  p :     2.703679
      px      :     0.883845
      py      :     0.899022
      dz2     :     0.003455  d :     0.031978
      dxz     :     0.007183
      dyz     :     0.004233
      dx2y2   :     0.007730
      dxy     :     0.009378

 12 C s       :     3.244438  s :     3.244438
      pz      :     0.943101  p :     2.734310
      px      :     0.863759
      py      :     0.927450
      dz2     :     0.004803  d :     0.032873
      dxz     :     0.007161
      dyz     :     0.004115
      dx2y2   :     0.007512
      dxy     :     0.009280

 13 Cls       :     5.940133  s :     5.940133
      pz      :     3.877923  p :    11.096709
      px      :     3.283421
      py      :     3.935365
      dz2     :     0.005098  d :     0.038268
      dxz     :     0.010594
      dyz     :     0.000623
      dx2y2   :     0.014511
      dxy     :     0.007443

 14 C s       :     3.066218  s :     3.066218
      pz      :     0.986280  p :     3.018111
      px      :     1.017550
      py      :     1.014281
      dz2     :     0.008192  d :     0.034798
      dxz     :     0.008222
      dyz     :     0.005848
      dx2y2   :     0.005917
      dxy     :     0.006619

 15 C s       :     3.228672  s :     3.228672
      pz      :     0.880244  p :     2.737639
      px      :     0.928136
      py      :     0.929259
      dz2     :     0.005862  d :     0.032714
      dxz     :     0.008547
      dyz     :     0.004514
      dx2y2   :     0.006936
      dxy     :     0.006855

 16 C s       :     3.231550  s :     3.231550
      pz      :     0.941227  p :     2.709965
      px      :     0.832423
      py      :     0.936315
      dz2     :     0.008351  d :     0.031965
      dxz     :     0.006900
      dyz     :     0.005914
      dx2y2   :     0.005392
      dxy     :     0.005409

 17 C s       :     2.973146  s :     2.973146
      pz      :     0.969649  p :     2.935016
      px      :     1.016630
      py      :     0.948737
      dz2     :     0.010468  d :     0.052192
      dxz     :     0.012533
      dyz     :     0.009606
      dx2y2   :     0.009573
      dxy     :     0.010011

 18 C s       :     3.231670  s :     3.231670
      pz      :     0.846911  p :     2.703754
      px      :     0.919708
      py      :     0.937136
      dz2     :     0.006070  d :     0.031978
      dxz     :     0.007534
      dyz     :     0.004645
      dx2y2   :     0.007077
      dxy     :     0.006652

 19 C s       :     3.244406  s :     3.244406
      pz      :     0.929393  p :     2.734193
      px      :     0.871818
      py      :     0.932983
      dz2     :     0.008101  d :     0.032873
      dxz     :     0.007359
      dyz     :     0.006307
      dx2y2   :     0.006087
      dxy     :     0.005018

 20 Cls       :     5.940131  s :     5.940131
      pz      :     3.681741  p :    11.096720
      px      :     3.797372
      py      :     3.617606
      dz2     :     0.005763  d :     0.038269
      dxz     :     0.007531
      dyz     :     0.010904
      dx2y2   :     0.006564
      dxy     :     0.007507

 21 Cls       :     5.940128  s :     5.940128
      pz      :     3.899258  p :    11.096716
      px      :     3.827510
      py      :     3.369949
      dz2     :     0.004948  d :     0.038268
      dxz     :     0.001553
      dyz     :     0.008416
      dx2y2   :     0.011497
      dxy     :     0.011854

 22 H s       :     0.972048  s :     0.972048
      pz      :     0.011607  p :     0.022514
      px      :     0.007018
      py      :     0.003889

 23 H s       :     0.980308  s :     0.980308
      pz      :     0.007835  p :     0.022601
      px      :     0.004849
      py      :     0.009918

 24 H s       :     0.982596  s :     0.982596
      pz      :     0.011503  p :     0.022558
      px      :     0.007164
      py      :     0.003891

 25 H s       :     0.965189  s :     0.965189
      pz      :     0.008067  p :     0.023194
      px      :     0.004849
      py      :     0.010278

 26 H s       :     0.972062  s :     0.972062
      pz      :     0.008293  p :     0.022514
      px      :     0.005110
      py      :     0.009111

 27 H s       :     0.980304  s :     0.980304
      pz      :     0.005879  p :     0.022602
      px      :     0.007519
      py      :     0.009204

 28 H s       :     0.982568  s :     0.982568
      pz      :     0.008296  p :     0.022558
      px      :     0.005159
      py      :     0.009103

 29 H s       :     0.965155  s :     0.965155
      pz      :     0.005926  p :     0.023195
      px      :     0.007773
      py      :     0.009496

 30 H s       :     0.972104  s :     0.972104
      pz      :     0.010944  p :     0.022514
      px      :     0.006053
      py      :     0.005516

 31 H s       :     0.980281  s :     0.980281
      pz      :     0.004504  p :     0.022601
      px      :     0.012513
      py      :     0.005583

 32 H s       :     0.982600  s :     0.982600
      pz      :     0.011008  p :     0.022558
      px      :     0.005945
      py      :     0.005605

 33 H s       :     0.965142  s :     0.965142
      pz      :     0.004655  p :     0.023194
      px      :     0.012937
      py      :     0.005602



                     *******************************
                     * LOEWDIN POPULATION ANALYSIS *
                     *******************************

----------------------
LOEWDIN ATOMIC CHARGES
----------------------
   0 C :   -0.021127
   1 C :   -0.044347
   2 C :   -0.131401
   3 C :   -0.044423
   4 C :   -0.025899
   5 C :   -0.183366
   6 P :    0.510845
   7 C :   -0.183352
   8 C :   -0.021136
   9 C :   -0.044343
  10 C :   -0.131416
  11 C :   -0.044415
  12 C :   -0.025921
  13 Cl:    0.139948
  14 C :   -0.183344
  15 C :   -0.021139
  16 C :   -0.044340
  17 C :   -0.131398
  18 C :   -0.044429
  19 C :   -0.025910
  20 Cl:    0.139944
  21 Cl:    0.139944
  22 H :    0.033360
  23 H :    0.036394
  24 H :    0.035740
  25 H :    0.034845
  26 H :    0.033358
  27 H :    0.036394
  28 H :    0.035745
  29 H :    0.034846
  30 H :    0.033352
  31 H :    0.036397
  32 H :    0.035741
  33 H :    0.034851

-------------------------------
LOEWDIN REDUCED ORBITAL CHARGES
-------------------------------
  0 C s       :     2.869544  s :     2.869544
      pz      :     1.027563  p :     3.062503
      px      :     0.978056
      py      :     1.056884
      dz2     :     0.017877  d :     0.089080
      dxz     :     0.010044
      dyz     :     0.025400
      dx2y2   :     0.018502
      dxy     :     0.017257

  1 C s       :     2.868238  s :     2.868238
      pz      :     1.032842  p :     3.088043
      px      :     1.001419
      py      :     1.053781
      dz2     :     0.019194  d :     0.088066
      dxz     :     0.013471
      dyz     :     0.026769
      dx2y2   :     0.015861
      dxy     :     0.012773

  2 C s       :     2.904166  s :     2.904166
      pz      :     1.097814  p :     3.101286
      px      :     1.032570
      py      :     0.970901
      dz2     :     0.027951  d :     0.125949
      dxz     :     0.016538
      dyz     :     0.035843
      dx2y2   :     0.023052
      dxy     :     0.022565

  3 C s       :     2.868835  s :     2.868835
      pz      :     1.028783  p :     3.087518
      px      :     0.998550
      py      :     1.060184
      dz2     :     0.016413  d :     0.088070
      dxz     :     0.009596
      dyz     :     0.027250
      dx2y2   :     0.017920
      dxy     :     0.016891

  4 C s       :     2.868600  s :     2.868600
      pz      :     1.031029  p :     3.067662
      px      :     0.989832
      py      :     1.046801
      dz2     :     0.018710  d :     0.089636
      dxz     :     0.012162
      dyz     :     0.029125
      dx2y2   :     0.015274
      dxy     :     0.014366

  5 C s       :     2.914084  s :     2.914084
      pz      :     1.074040  p :     3.178483
      px      :     1.030040
      py      :     1.074403
      dz2     :     0.021666  d :     0.090799
      dxz     :     0.014675
      dyz     :     0.029416
      dx2y2   :     0.012969
      dxy     :     0.012073

  6 P s       :     5.233836  s :     5.233836
      pz      :     3.367268  p :     9.008583
      px      :     2.813314
      py      :     2.828001
      dz2     :     0.028395  d :     0.246735
      dxz     :     0.042491
      dyz     :     0.048116
      dx2y2   :     0.074926
      dxy     :     0.052807

  7 C s       :     2.914082  s :     2.914082
      pz      :     1.036836  p :     3.178472
      px      :     1.080899
      py      :     1.060736
      dz2     :     0.012476  d :     0.090799
      dxz     :     0.018668
      dyz     :     0.015300
      dx2y2   :     0.022874
      dxy     :     0.021481

  8 C s       :     2.869538  s :     2.869538
      pz      :     0.990841  p :     3.062517
      px      :     1.053696
      py      :     1.017980
      dz2     :     0.008348  d :     0.089081
      dxz     :     0.018744
      dyz     :     0.011497
      dx2y2   :     0.025364
      dxy     :     0.025128

  9 C s       :     2.868236  s :     2.868236
      pz      :     1.007587  p :     3.088039
      px      :     1.058739
      py      :     1.021714
      dz2     :     0.011639  d :     0.088067
      dxz     :     0.018555
      dyz     :     0.011926
      dx2y2   :     0.020523
      dxy     :     0.025424

 10 C s       :     2.904163  s :     2.904163
      pz      :     1.056924  p :     3.101305
      px      :     0.948179
      py      :     1.096202
      dz2     :     0.017094  d :     0.125948
      dxz     :     0.025397
      dyz     :     0.016356
      dx2y2   :     0.035137
      dxy     :     0.031964

 11 C s       :     2.868831  s :     2.868831
      pz      :     1.005035  p :     3.087513
      px      :     1.061070
      py      :     1.021408
      dz2     :     0.008532  d :     0.088071
      dxz     :     0.018694
      dyz     :     0.010969
      dx2y2   :     0.022807
      dxy     :     0.027068

 12 C s       :     2.868598  s :     2.868598
      pz      :     0.990116  p :     3.067686
      px      :     1.051271
      py      :     1.026299
      dz2     :     0.011298  d :     0.089637
      dxz     :     0.019429
      dyz     :     0.011428
      dx2y2   :     0.022130
      dxy     :     0.025352

 13 Cls       :     5.750516  s :     5.750516
      pz      :     3.857479  p :    11.065006
      px      :     3.300382
      py      :     3.907144
      dz2     :     0.006001  d :     0.044530
      dxz     :     0.011961
      dyz     :     0.000658
      dx2y2   :     0.017810
      dxy     :     0.008099

 14 C s       :     2.914086  s :     2.914086
      pz      :     1.066616  p :     3.178459
      px      :     1.068046
      py      :     1.043798
      dz2     :     0.020792  d :     0.090799
      dxz     :     0.022942
      dyz     :     0.014993
      dx2y2   :     0.015421
      dxy     :     0.016651

 15 C s       :     2.869544  s :     2.869544
      pz      :     1.022507  p :     3.062517
      px      :     1.041994
      py      :     0.998015
      dz2     :     0.015666  d :     0.089079
      dxz     :     0.023347
      dyz     :     0.012344
      dx2y2   :     0.017974
      dxy     :     0.019748

 16 C s       :     2.868240  s :     2.868240
      pz      :     1.036798  p :     3.088033
      px      :     1.033510
      py      :     1.017726
      dz2     :     0.022233  d :     0.088067
      dxz     :     0.020195
      dyz     :     0.017602
      dx2y2   :     0.013513
      dxy     :     0.014524

 17 C s       :     2.904167  s :     2.904167
      pz      :     1.034242  p :     3.101282
      px      :     1.074938
      py      :     0.992101
      dz2     :     0.025607  d :     0.125949
      dxz     :     0.031390
      dyz     :     0.022115
      dx2y2   :     0.022858
      dxy     :     0.023979

 18 C s       :     2.868835  s :     2.868835
      pz      :     1.030273  p :     3.087525
      px      :     1.040082
      py      :     1.017170
      dz2     :     0.016126  d :     0.088070
      dxz     :     0.021045
      dyz     :     0.012826
      dx2y2   :     0.018847
      dxy     :     0.019226

 19 C s       :     2.868602  s :     2.868602
      pz      :     1.027537  p :     3.067672
      px      :     1.036451
      py      :     1.003684
      dz2     :     0.021349  d :     0.089636
      dxz     :     0.021015
      dyz     :     0.018683
      dx2y2   :     0.015172
      dxy     :     0.013418

 20 Cls       :     5.750514  s :     5.750514
      pz      :     3.671926  p :    11.065012
      px      :     3.777255
      py      :     3.615832
      dz2     :     0.006236  d :     0.044530
      dxz     :     0.008927
      dyz     :     0.013180
      dx2y2   :     0.007270
      dxy     :     0.008916

 21 Cls       :     5.750515  s :     5.750515
      pz      :     3.872359  p :    11.065012
      px      :     3.812206
      py      :     3.380447
      dz2     :     0.005935  d :     0.044530
      dxz     :     0.001710
      dyz     :     0.009593
      dx2y2   :     0.013507
      dxy     :     0.013785

 22 H s       :     0.897760  s :     0.897760
      pz      :     0.035929  p :     0.068880
      px      :     0.021270
[...]
      px      :     1.046846
      py      :     1.025282
      dz2     :     0.011901  d :     0.087738
      dxz     :     0.019042
      dyz     :     0.011532
      dx2y2   :     0.020664
      dxy     :     0.024598

 13 Cls       :     5.765374  s :     5.765374
      pz      :     3.845203  p :    11.072828
      px      :     3.315657
      py      :     3.911968
      dz2     :     0.005384  d :     0.040733
      dxz     :     0.011718
      dyz     :     0.000783
      dx2y2   :     0.015944
      dxy     :     0.006904

 14 C s       :     2.922555  s :     2.922555
      pz      :     1.065661  p :     3.168938
      px      :     1.067065
      py      :     1.036211
      dz2     :     0.020157  d :     0.087851
      dxz     :     0.022805
      dyz     :     0.013760
      dx2y2   :     0.015187
      dxy     :     0.015943

 15 C s       :     2.875269  s :     2.875269
      pz      :     1.024299  p :     3.063220
      px      :     1.044410
      py      :     0.994512
      dz2     :     0.016292  d :     0.087756
      dxz     :     0.023894
      dyz     :     0.011785
      dx2y2   :     0.017123
      dxy     :     0.018663

 16 C s       :     2.876506  s :     2.876506
      pz      :     1.036953  p :     3.083431
      px      :     1.033508
      py      :     1.012970
      dz2     :     0.022256  d :     0.085367
      dxz     :     0.020683
      dyz     :     0.016424
      dx2y2   :     0.012359
      dxy     :     0.013645

 17 C s       :     2.917660  s :     2.917660
      pz      :     1.019687  p :     3.083332
      px      :     1.072513
      py      :     0.991132
      dz2     :     0.024411  d :     0.117514
      dxz     :     0.030504
      dyz     :     0.020040
      dx2y2   :     0.020812
      dxy     :     0.021747

 18 C s       :     2.876666  s :     2.876666
      pz      :     1.031405  p :     3.083239
      px      :     1.038729
      py      :     1.013105
      dz2     :     0.016549  d :     0.085542
      dxz     :     0.020759
      dyz     :     0.012180
      dx2y2   :     0.018061
      dxy     :     0.017994

 19 C s       :     2.875310  s :     2.875310
      pz      :     1.030759  p :     3.065798
      px      :     1.037584
      py      :     0.997455
      dz2     :     0.021988  d :     0.087732
      dxz     :     0.020965
      dyz     :     0.017903
      dx2y2   :     0.014039
      dxy     :     0.012838

 20 Cls       :     5.765393  s :     5.765393
      pz      :     3.642910  p :    11.072956
      px      :     3.787585
      py      :     3.642461
      dz2     :     0.006059  d :     0.040728
      dxz     :     0.008702
      dyz     :     0.012648
      dx2y2   :     0.005950
      dxy     :     0.007369

 21 Cls       :     5.765394  s :     5.765394
      pz      :     3.861406  p :    11.072871
      px      :     3.826729
      py      :     3.384736
      dz2     :     0.005221  d :     0.040727
      dxz     :     0.001671
      dyz     :     0.009636
      dx2y2   :     0.012197
      dxy     :     0.012002

 22 H s       :     0.897323  s :     0.897323
      pz      :     0.036134  p :     0.066706
      px      :     0.019682
      py      :     0.010890

 23 H s       :     0.892820  s :     0.892820
      pz      :     0.022153  p :     0.067316
      px      :     0.013727
      py      :     0.031436

 24 H s       :     0.893094  s :     0.893094
      pz      :     0.036136  p :     0.067357
      px      :     0.020372
      py      :     0.010849

 25 H s       :     0.891935  s :     0.891935
      pz      :     0.022708  p :     0.069169
      px      :     0.013613
      py      :     0.032848

 26 H s       :     0.897316  s :     0.897316
      pz      :     0.025211  p :     0.066715
      px      :     0.014238
      py      :     0.027267

 27 H s       :     0.892816  s :     0.892816
      pz      :     0.016072  p :     0.067315
      px      :     0.023673
      py      :     0.027570

 28 H s       :     0.893093  s :     0.893093
      pz      :     0.025463  p :     0.067353
      px      :     0.014407
      py      :     0.027483

 29 H s       :     0.891969  s :     0.891969
      pz      :     0.016150  p :     0.069144
      px      :     0.024985
      py      :     0.028010

 30 H s       :     0.897347  s :     0.897347
      pz      :     0.032988  p :     0.066701
      px      :     0.018394
      py      :     0.015320

 31 H s       :     0.892829  s :     0.892829
      pz      :     0.012145  p :     0.067314
      px      :     0.038883
      py      :     0.016286

 32 H s       :     0.893121  s :     0.893121
      pz      :     0.033474  p :     0.067354
      px      :     0.018123
      py      :     0.015757

 33 H s       :     0.891906  s :     0.891906
      pz      :     0.012522  p :     0.069201
      px      :     0.039972
      py      :     0.016706



                      *****************************
                      * MAYER POPULATION ANALYSIS *
                      *****************************

  NA   - Mulliken gross atomic population
  ZA   - Total nuclear charge
  QA   - Mulliken gross atomic charge
  VA   - Mayer's total valence
  BVA  - Mayer's bonded valence
  FA   - Mayer's free valence

  ATOM       NA         ZA         QA         VA         BVA        FA
  0 C      5.9997     6.0000     0.0003     3.8671     3.8671    -0.0000
  1 C      5.9707     6.0000     0.0293     3.9004     3.9004    -0.0000
  2 C      5.9801     6.0000     0.0199     3.8686     3.8686    -0.0000
  3 C      5.9645     6.0000     0.0355     3.8757     3.8757    -0.0000
  4 C      6.0100     6.0000    -0.0100     3.8789     3.8789    -0.0000
  5 C      6.1473     6.0000    -0.1473     3.8013     3.8013    -0.0000
  6 P     14.6863    15.0000     0.3137     2.9856     2.9856    -0.0000
  7 C      6.1476     6.0000    -0.1476     3.8008     3.8008    -0.0000
  8 C      5.9999     6.0000     0.0001     3.8675     3.8675    -0.0000
  9 C      5.9706     6.0000     0.0294     3.9002     3.9002    -0.0000
 10 C      5.9801     6.0000     0.0199     3.8684     3.8684    -0.0000
 11 C      5.9645     6.0000     0.0355     3.8760     3.8760    -0.0000
 12 C      6.0100     6.0000    -0.0100     3.8791     3.8791    -0.0000
 13 Cl    17.0812    17.0000    -0.0812     1.1649     1.1649    -0.0000
 14 C      6.1474     6.0000    -0.1474     3.8010     3.8010    -0.0000
 15 C      6.0000     6.0000     0.0000     3.8677     3.8677    -0.0000
 16 C      5.9706     6.0000     0.0294     3.9005     3.9005    -0.0000
 17 C      5.9801     6.0000     0.0199     3.8685     3.8685    -0.0000
 18 C      5.9646     6.0000     0.0354     3.8757     3.8757    -0.0000
 19 C      6.0101     6.0000    -0.0101     3.8794     3.8794    -0.0000
 20 Cl    17.0814    17.0000    -0.0814     1.1648     1.1648    -0.0000
 21 Cl    17.0813    17.0000    -0.0813     1.1649     1.1649    -0.0000
 22 H      0.9867     1.0000     0.0133     0.9909     0.9909    -0.0000
 23 H      0.9928     1.0000     0.0072     0.9977     0.9977    -0.0000
 24 H      0.9947     1.0000     0.0053     0.9975     0.9975    -0.0000
 25 H      0.9764     1.0000     0.0236     0.9910     0.9910     0.0000
 26 H      0.9866     1.0000     0.0134     0.9909     0.9909    -0.0000
 27 H      0.9928     1.0000     0.0072     0.9976     0.9976    -0.0000
 28 H      0.9947     1.0000     0.0053     0.9974     0.9974    -0.0000
 29 H      0.9767     1.0000     0.0233     0.9912     0.9912    -0.0000
 30 H      0.9867     1.0000     0.0133     0.9908     0.9908    -0.0000
 31 H      0.9928     1.0000     0.0072     0.9977     0.9977    -0.0000
 32 H      0.9948     1.0000     0.0052     0.9975     0.9975    -0.0000
 33 H      0.9764     1.0000     0.0236     0.9910     0.9910    -0.0000

  Mayer bond orders larger than 0.100000
B(  0-C ,  1-C ) :   1.3930 B(  0-C ,  5-C ) :   1.3500 B(  0-C , 22-H ) :   0.9683 
B(  1-C ,  2-C ) :   1.3733 B(  1-C , 23-H ) :   0.9772 B(  2-C ,  3-C ) :   1.3758 
B(  2-C , 21-Cl) :   0.9873 B(  3-C ,  4-C ) :   1.3697 B(  3-C , 24-H ) :   0.9770 
B(  4-C ,  5-C ) :   1.3699 B(  4-C , 25-H ) :   0.9636 B(  5-C ,  6-P ) :   0.9358 
B(  6-P ,  7-C ) :   0.9356 B(  6-P , 14-C ) :   0.9351 B(  7-C ,  8-C ) :   1.3500 
B(  7-C , 12-C ) :   1.3698 B(  8-C ,  9-C ) :   1.3930 B(  8-C , 26-H ) :   0.9682 
B(  9-C , 10-C ) :   1.3732 B(  9-C , 27-H ) :   0.9772 B( 10-C , 11-C ) :   1.3758 
B( 10-C , 13-Cl) :   0.9874 B( 11-C , 12-C ) :   1.3699 B( 11-C , 28-H ) :   0.9769 
B( 12-C , 29-H ) :   0.9637 B( 14-C , 15-C ) :   1.3496 B( 14-C , 19-C ) :   1.3708 
B( 15-C , 16-C ) :   1.3936 B( 15-C , 30-H ) :   0.9683 B( 16-C , 17-C ) :   1.3729 
B( 16-C , 31-H ) :   0.9772 B( 17-C , 18-C ) :   1.3763 B( 17-C , 20-Cl) :   0.9872 
B( 18-C , 19-C ) :   1.3693 B( 18-C , 32-H ) :   0.9769 B( 19-C , 33-H ) :   0.9635 


-------
TIMINGS
-------

Total SCF time: 0 days 0 hours 0 min 4 sec 

Total time                  ....       4.646 sec
Sum of individual times     ....       4.565 sec  ( 98.3%)

SCF preparation             ....       0.121 sec  (  2.6%)
Fock matrix formation       ....       4.001 sec  ( 86.1%)
  Startup                   ....       0.023 sec  (  0.6% of F)
  Split-RI-J                ....       1.485 sec  ( 37.1% of F)
  XC integration            ....       2.419 sec  ( 60.5% of F)
    Basis function eval.    ....       0.715 sec  ( 29.6% of XC)
    Density eval.           ....       0.738 sec  ( 30.5% of XC)
    XC-Functional eval.     ....       0.070 sec  (  2.9% of XC)
    XC-Potential eval.      ....       0.554 sec  ( 22.9% of XC)
Diagonalization             ....       0.000 sec  (  0.0%)
Density matrix formation    ....       0.050 sec  (  1.1%)
Total Energy calculation    ....       0.017 sec  (  0.4%)
Population analysis         ....       0.098 sec  (  2.1%)
Orbital Transformation      ....       0.042 sec  (  0.9%)
Orbital Orthonormalization  ....       0.000 sec  (  0.0%)
DIIS solution               ....       0.053 sec  (  1.1%)
SOSCF solution              ....       0.183 sec  (  3.9%)
Finished LeanSCF after   4.7 sec

Maximum memory used throughout the entire LEANSCF-calculation: 39.0 MB


-------------------------------------------------------------------------------
                          DFT DISPERSION CORRECTION                            
                                                                               
                              DFTD3 V3.1  Rev 1                                
                          USING Becke-Johnson damping                          
-------------------------------------------------------------------------------
The BP86 functional is recognized
Active option DFTDOPT                   ...         4   

molecular C6(AA) [au] = 23079.734325 


            DFT-D V3
 parameters
 s6 scaling factor         :     1.0000 
 a1 scaling factor         :     0.3946 
 s8 scaling factor         :     3.2822 
 a2 scaling factor         :     4.8516 
 ad hoc parameters k1-k3   :    16.0000     1.3333    -4.0000 

 Edisp/kcal,au: -58.588169394351  -0.093366181016 
 E6   /kcal   : -20.636832678 
 E8   /kcal   : -37.951336716 
 % E8         :  64.776450789 

-------------------------   ----------------
Dispersion correction           -0.093366181
-------------------------   ----------------


-------------------------   --------------------
FINAL SINGLE POINT ENERGY     -2414.328454749917
-------------------------   --------------------

                                *** OPTIMIZATION RUN DONE ***



           ************************************************************
           *        Program running with 6 parallel MPI-processes     *
           *              working on a common directory               *
           ************************************************************

------------------------------------------------------------------------------
                              ORCA PROPERTY CALCULATIONS
------------------------------------------------------------------------------

GBWName                                 ... data/geom_opt_P_BP86/70874/70874.gbw
Number of atoms                         ...     34
Number of basis functions               ...    384
Max core memory                         ...   1024 MB

Electric properties:
Dipole moment                           ... YES
Quadrupole moment                       ...  NO
Static polarizability (Dipole/Dipole)   ...  NO
Static polarizability (Dipole/Quad.)    ...  NO
Static polarizability (Quad./Quad.)     ...  NO
Static polarizability (Velocity)        ...  NO

Atomic electric properties:
Dipole moment                           ...  NO
Quadrupole moment                       ...  NO
Static polarizability                   ...  NO

Choice of electric origin               ... Center of mass
Position of electric origin             ...     0.051525    -0.075025     0.344749

General magnetic properties:
Magnetizability                         ...  NO

EPR properties:
g-Tensor (aka g-matrix)                 ...  NO
Zero-Field splitting spin-orbit         ...  NO
Zero-field splitting spin-spin          ...  NO
Hyperfine couplings                     ...  NO (   0 nuclei)
Quadrupole couplings                    ...  NO (   0 nuclei)
Contact density                         ...  NO (   0 nuclei)

NMR properties:
Chemical shifts                         ...  NO (   0 nuclei)
Spin-rotation constants                 ...  NO (   0 nuclei)
Spin-spin couplings                     ...  NO (   0 nuclei,    0 pairs)

Choice of magnetic origin               ... GIAO
Position of magnetic origin             ...     0.000000     0.000000     0.000000

Properties with geometric perturbations:
SCF Hessian                             ...  NO
IR spectrum                             ...  NO
VCD spectrum                            ...  NO
X-ray spectroscopy properties:
SCF XES/XAS/RIXS spectra                ...  NO


-------------
DIPOLE MOMENT
-------------

Method             : SCF
Type of density    : Electron Density
Multiplicity       :   1
Irrep              :   0
Energy             : -2414.2350885689002098 Eh
Relativity type    : 
Basis              : AO
                                X                 Y                 Z
Electronic contribution:      0.808737006      -1.178386518       5.396860077
Nuclear contribution   :     -0.824731804       1.201509707      -5.518903439
                        -----------------------------------------
Total Dipole Moment    :     -0.015994798       0.023123190      -0.122043362
                        -----------------------------------------
Magnitude (a.u.)       :      0.125240160
Magnitude (Debye)      :      0.318335188



--------------------
Rotational spectrum 
--------------------
 
Rotational constants in cm-1:             0.005077             0.005065             0.002877 
Rotational constants in MHz :           152.193146           151.857001            86.241645 

Dipole components along the rotational axes: 
x,y,z [a.u.] :    -0.002263    -0.003549    -0.125169 
x,y,z [Debye]:    -0.005751    -0.009022    -0.318155 

 

Dipole moment calculation done in   0.0 sec 

Maximum memory used throughout the entire PROP-calculation: 20.0 MB

--------------------------------
SUGGESTED CITATIONS FOR THIS RUN
--------------------------------

Below you find a list of papers that are relevant to this ORCA run
We neither can nor want to force you to cite these papers, but we appreciate if you do
You receive ORCA, which is the product of decades of hard work by many enthusiastic individuals, for free
The only thing we kindly ask in return is that you cite our papers,
We deeply appreciate it, if you show your appreciation for ORCA by not just citing the generic ORCA reference.

Please note that relegating all ORCA citations to the supporting information does *not* help us.
SI sections are not indexed - citations you put there will not count into any citation statistics
But we need these citations in order to attract the funding resources that allow us to do what we are doing

Therefore, if you are a happy ORCA user, please consider citing a few of the papers listed below in the main body of your paper

In addition to the list printed below, the program has created the file data/geom_opt_P_BP86/70874/70874.bibtex that contains the list in bibtex format
You can import this file easily into all common literature databanks and citation aid programs


List of essential papers. We consider these as the minimum necessary citations

  1. Neese,F.
     Software update: the ORCA program system, version 5.0
     WIRES Comput. Molec. Sci., 2022 12(1)e1606
     doi.org/10.1002/wcms.1606

List of papers to cite with high priority. The work reported in these papers was absolutely
necessary for this run to complete.
Our perspective: the developers of density functionals and basis sets usually get cited in chemistry papers
Good! But without the algorithms to do something with them, the functionals or basis sets would not do anything.
Hence, in our opinion, the algorithm design and method developments papers are equally worthy of getting cited

  1. Neese,F.
     An improvement of the resolution of the identity approximation for the formation of the Coulomb matrix
     J. Comp. Chem., 2003 24(14)1740-1747
     doi.org/10.1002/jcc.10318
  2. Neese,F.
     The SHARK Integral Generation and Digestion System
     J. Comp. Chem., 2022  1-16
     doi.org/10.1002/jcc.26942
  3. Grimme,S.; Antony,J.; Ehrlich,S.; Krieg,H.
     A consistent and accurate ab initio parametrization of density functional dispersion correction (DFT-D) for the 94 elements H-Pu
     J. Chem. Phys., 2010 132 154104-XXXX
     doi.org/10.1063/1.3382344
  4. Grimme,S.; Ehrlich,S.; Goerigk,L.
     Effect of the damping function in dispersion corrected density functional theory
     J. Comput. Chem., 2011 32(7)1456-1465
     doi.org/10.1002/jcc.21759

List of suggested additional citations. These are papers that are important in the 'surrounding' of 
of this run, or papers that preceded the highly important papers. If you like your results we are grateful for a citation.

  1. Neese,F.
     The ORCA program system
     WIRES Comput. Molec. Sci., 2012 2(1)73-78
     doi.org/10.1002/wcms.81
  2. Neese,F.
     Software update: the ORCA program system, version 4.0
     WIRES Comput. Molec. Sci., 2018 8(1)1-6
     doi.org/10.1002/wcms.1327
  3. Neese,F.; Wennmohs,F.; Becker,U.; Riplinger,C.
     The ORCA quantum chemistry program package
     J. Chem. Phys., 2020 152 Art. No. L224108
     doi.org/10.1063/5.0004608

List of optional additional citations

  1. Neese,F.
     Approximate second-order SCF convergence for spin unrestricted wavefunctions
     Chem. Phys. Lett., 2000 325(1-3)93-98
     doi.org/10.1016/s0009-2614(00)00662-x

Timings for individual modules:

Sum of individual times          ...      132.651 sec (=   2.211 min)
Startup calculation              ...       11.461 sec (=   0.191 min)   8.6 %
SCF iterations                   ...       81.961 sec (=   1.366 min)  61.8 %
Property calculations            ...        0.176 sec (=   0.003 min)   0.1 %
SCF Gradient evaluation          ...       38.940 sec (=   0.649 min)  29.4 %
Geometry relaxation              ...        0.113 sec (=   0.002 min)   0.1 %
                             ****ORCA TERMINATED NORMALLY****
TOTAL RUN TIME: 0 days 0 hours 2 minutes 14 seconds 171 msec
