
                                 *****************
                                 * O   R   C   A *
                                 *****************

                                            #,                                       
                                            ###                                      
                                            ####                                     
                                            #####                                    
                                            ######                                   
                                           ########,                                 
                                     ,,################,,,,,                         
                               ,,#################################,,                 
                          ,,##########################################,,             
                       ,#########################################, ''#####,          
                    ,#############################################,,   '####,        
                  ,##################################################,,,,####,       
                ,###########''''           ''''###############################       
              ,#####''   ,,,,##########,,,,          '''####'''          '####       
            ,##' ,,,,###########################,,,                        '##       
           ' ,,###''''                  '''############,,,                           
         ,,##''                                '''############,,,,        ,,,,,,###''
      ,#''                                            '''#######################'''  
     '                                                          ''''####''''         
             ,#######,   #######,   ,#######,      ##                                
            ,#'     '#,  ##    ##  ,#'     '#,    #''#        ,####,   ,####,        
            ##       ##  ##   ,#'  ##            #'  '#       #'       #'  '#        
            ##       ##  #######   ##           ,######,      #####,   #    #        
            '#,     ,#'  ##    ##  '#,     ,#' ,#      #,     #,   #   #,  ,#        
             '#######'   ##     ##  '#######'  #'      '#     '####' # '####'        



                #########################################################
                #                        -***-                          #
                #          Department of theory and spectroscopy        #
                #                                                       #
                #                      Frank Neese                      #
                #                                                       #
                #     Directorship, Architecture, Infrastructure        #
                #                    SHARK, DRIVERS                     #
                #        Core code/Algorithms in most modules           #
                #                                                       #
                #        Max Planck Institute fuer Kohlenforschung      #
                #                Kaiser Wilhelm Platz 1                 #
                #                 D-45470 Muelheim/Ruhr                 #
                #                      Germany                          #
                #                                                       #
                #                  All rights reserved                  #
                #                        -***-                          #
                #########################################################


                         Program Version 6.0.0  -   RELEASE   -


 With contributions from (in alphabetic order):
   Daniel Aravena         : Magnetic Suceptibility
   Michael Atanasov       : Ab Initio Ligand Field Theory (pilot matlab implementation)
   Alexander A. Auer      : GIAO ZORA, VPT2 properties, NMR spectrum
   Ute Becker             : All parallelization in ORCA, NUMFREQ, NUMCALC
   Giovanni Bistoni       : ED, misc. LED, open-shell LED, HFLD
   Martin Brehm           : Molecular dynamics
   Dmytro Bykov           : pre 5.0 version of the SCF Hessian
   Marcos Casanova-Páez   : Triplet and SCS-CIS(D). UHF-(DLPNO)-IP/EA/STEOM-CCSD. UHF-CVS-IP/STEOM-CCSD
   Vijay G. Chilkuri      : MRCI spin determinant printing, contributions to CSF-ICE
   Pauline Colinet        : FMM embedding
   Dipayan Datta          : RHF DLPNO-CCSD density
   Achintya Kumar Dutta   : EOM-CC, STEOM-CC
   Nicolas Foglia         : Exact transition moments, OPA infrastructure, MCD improvements
   Dmitry Ganyushin       : Spin-Orbit,Spin-Spin,Magnetic field MRCI
   Miquel Garcia          : C-PCM and meta-GGA Hessian, CCSD/C-PCM, Gaussian charge scheme
   Tiago L. C. Gouveia    : GS-ROHF, GS-ROCIS
   Yang Guo               : DLPNO-NEVPT2, F12-NEVPT2, CIM, IAO-localization
   Andreas Hansen         : Spin unrestricted coupled pair/coupled cluster methods
   Ingolf Harden          : AUTO-CI MPn and infrastructure 
   Benjamin Helmich-Paris : MC-RPA, TRAH-(SCF,CASSCF), AVAS, COSX integrals, SCF dyn. polar.
   Lee Huntington         : MR-EOM, pCC
   Robert Izsak           : Overlap fitted RIJCOSX, COSX-SCS-MP3, EOM
   Riya Kayal             : Wick's Theorem for AUTO-CI, AUTO-CI UHF-CCSDT
   Emily Kempfer          : AUTO-CI, RHF CISDT and CCSDT
   Christian Kollmar      : KDIIS, OOCD, Brueckner-CCSD(T), CCSD density, CASPT2, CASPT2-K, improved NEVPT2
   Axel Koslowski         : Symmetry handling
   Simone Kossmann        : Meta GGA functionals, TD-DFT gradient, OOMP2, (MP2 Hessian; deprecated post 5.0)
   Lucas Lang             : DCDCAS
   Marvin Lechner         : AUTO-CI (C++ implementation), FIC-MRCC
   Spencer Leger          : CASSCF response
   Dagmar Lenk            : GEPOL surface, SMD, ORCA-2-JSON
   Dimitrios Liakos       : Extrapolation schemes; Compound Job, initial MDCI parallelization
   Dimitrios Manganas     : Further ROCIS development; embedding schemes. LFT, Crystal Embedding
   Dimitrios Pantazis     : SARC Basis sets
   Anastasios Papadopoulos: AUTO-CI, single reference methods and gradients
   Taras Petrenko         : pre 6.0 DFT Hessian and TD-DFT gradient, (ASA, deprecated), ECA, 1-Electron XAS/XES, NRVS
   Peter Pinski           : DLPNO-MP2, DLPNO-MP2 Gradient
   Christoph Reimann      : Effective Core Potentials
   Marius Retegan         : Local ZFS, SOC
   Christoph Riplinger    : Optimizer, TS searches, QM/MM, DLPNO-CCSD(T), (RO)-DLPNO pert. Triples
   Michael Roemelt        : Original ROCIS implementation
   Masaaki Saitow         : Open-shell DLPNO-CCSD energy and density
   Barbara Sandhoefer     : DKH picture change effects
   Kantharuban Sivalingam : CASSCF convergence/infrastructure, NEVPT2 and variants, FIC-MRCI
   Bernardo de Souza      : ESD, SOC TD-DFT
   Georgi Stoychev        : AutoAux, RI-MP2 NMR, DLPNO-MP2 response, X2C
   Van Anh Tran           : RI-MP2 g-tensors
   Willem Van den Heuvel  : Paramagnetic NMR
   Zikuan Wang            : NOTCH, Electric field optimization 
   Frank Wennmohs         : Technical directorship and infrastructure
   Hang Xu                : AUTO-CI-Response properties 


 We gratefully acknowledge several colleagues who have allowed us to
 interface, adapt or use parts of their codes:
   Stefan Grimme, W. Hujo, H. Kruse, P. Pracht,  : VdW corrections, initial TS optimization,
                  C. Bannwarth, S. Ehlert,         DFT functionals, gCP, sTDA/sTD-DF
                  L. Wittmann, M. Mueller
   Ed Valeev, F. Pavosevic, A. Kumar             : LibInt (2-el integral package), F12 methods
   Garnet Chan, S. Sharma, J. Yang, R. Olivares  : DMRG
   Ulf Ekstrom                                   : XCFun DFT Library
   Mihaly Kallay                                 : mrcc  (arbitrary order and MRCC methods)
   Frank Weinhold                                : gennbo (NPA and NBO analysis)
   Simon Mueller                                 : openCOSMO-RS
   Christopher J. Cramer and Donald G. Truhlar   : smd solvation model
   Lars Goerigk                                  : TD-DFT with DH, B97 family of functionals
   V. Asgeirsson, H. Jonsson                     : NEB implementation
   FAccTs GmbH                                   : IRC, NEB, NEB-TS, DLPNO-Multilevel, CI-OPT
                                                   MM, QMMM, 2- and 3-layer-ONIOM, Crystal-QMMM,
                                                   LR-CPCM, SF, NACMEs, symmetry and pop. for TD-DFT,
                                                   nearIR, NL-DFT gradient (VV10), updates on ESD,
                                                   ML-optimized integration grids, MBIS, APM,
                                                   GOAT, DOCKER, SOLVATOR, interface openCOSMO-RS
   S Lehtola, MJT Oliveira, MAL Marques          : LibXC Library
   Liviu Ungur et al                             : ANISO software


 Your calculation uses the libint2 library for the computation of 2-el integrals
 For citations please refer to: http://libint.valeyev.net

 Your ORCA version has been built with support for libXC version: 6.2.2
 For citations please refer to: https://libxc.gitlab.io

 This ORCA versions uses:
   CBLAS   interface :  Fast vector & matrix operations
   LAPACKE interface :  Fast linear algebra routines
   Shared memory     :  Shared parallel matrices


Your calculation utilizes the atom-pairwise dispersion correction
with the Becke-Johnson damping scheme (D3BJ)


Warning: RI is on but no J-basis has been assigned. Assigning Def2/J (nothing to worry about!)
================================================================================

----- Orbital basis set information -----
Your calculation utilizes the basis: def2-SVP
   F. Weigend and R. Ahlrichs, Phys. Chem. Chem. Phys. 7, 3297 (2005).

----- AuxJ basis set information -----
Your calculation utilizes the auxiliary basis: def2/J
   F. Weigend, Phys. Chem. Chem. Phys. 8, 1057 (2006).

================================================================================
                                        WARNINGS
                       Please study these warnings very carefully!
================================================================================


WARNING: Geometry Optimization
  ===> : Switching off AutoStart
         For restart on a previous wavefunction, please use MOREAD

================================================================================
                                       INPUT FILE
================================================================================
NAME = data/geom_opt_PO_BP86/603962/603962.inp
|  1> ! RI BP86 def2-SVP D3BJ TIGHTSCF Opt
|  2> %pal
|  3> nprocs 6
|  4> end
|  5> 
|  6> * xyz 0 1
|  7> C      4.270367   -0.632994   -0.090137
|  8> C      3.856916   -0.399678   -1.400404
|  9> C      2.511241   -0.151085   -1.673609
| 10> C      1.564100   -0.133028   -0.638691
| 11> C      1.994249   -0.368315    0.675396
| 12> C      3.340270   -0.616238    0.947648
| 13> P     -0.174509    0.165619   -1.014460
| 14> O     -0.418336    0.255381   -2.518860
| 15> C     -1.089290   -1.230491   -0.287461
| 16> C     -1.360856   -2.339006   -1.089878
| 17> C     -2.052652   -3.415593   -0.543571
| 18> C     -2.455249   -3.362104    0.784972
| 19> C     -2.149197   -2.228260    1.517526
| 20> N     -1.480265   -1.167472    1.016370
| 21> C     -0.727111    1.667758   -0.160173
| 22> C     -2.001179    2.160085   -0.448484
| 23> C     -2.440340    3.318327    0.185813
| 24> C     -1.600434    3.960255    1.086736
| 25> C     -0.348233    3.417071    1.316050
| 26> N      0.106606    2.296096    0.716577
| 27> H      5.318868   -0.823172    0.123198
| 28> H      4.582178   -0.408434   -2.209849
| 29> H      2.196142    0.031857   -2.699517
| 30> H      1.277536   -0.346487    1.494891
| 31> H      3.662453   -0.790834    1.970828
| 32> H     -1.037267   -2.357688   -2.127019
| 33> H     -2.274683   -4.288677   -1.150962
| 34> H     -2.995073   -4.185357    1.239435
| 35> H     -2.442914   -2.140287    2.559894
| 36> H     -2.637582    1.646733   -1.163174
| 37> H     -3.428718    3.716794   -0.024544
| 38> H     -1.912589    4.864670    1.596431
| 39> H      0.345552    3.884555    2.009030
| 40> **                         ****END OF INPUT****
================================================================================

                       *****************************
                       * Geometry Optimization Run *
                       *****************************

Geometry optimization settings:
Update method            Update   .... BFGS
Choice of coordinates    CoordSys .... (2022) Redundant Internals
Initial Hessian          InHess   .... Almloef's Model
Max. no of cycles        MaxIter  .... 99

Convergence Tolerances:
Energy Change            TolE     ....  5.0000e-06 Eh
Max. Gradient            TolMAXG  ....  3.0000e-04 Eh/bohr
RMS Gradient             TolRMSG  ....  1.0000e-04 Eh/bohr
Max. Displacement        TolMAXD  ....  4.0000e-03 bohr
RMS Displacement         TolRMSD  ....  2.0000e-03 bohr
Strict Convergence                .... False

------------------------------------------------------------------------------
                        ORCA OPTIMIZATION COORDINATE SETUP
------------------------------------------------------------------------------

The optimization will be done in redundant internal coordinates (2022)
Making redundant internal coordinates   ...  (2022 redundants) done
Evaluating the initial hessian          ...  (Almloef) done
Evaluating the coordinates              ...  done
Calculating the B-matrix                .... done
Calculating the G-matrix                .... done
Diagonalizing the G-matrix              .... done
Small eigenvalue found = 5.898e-03
Small eigenvalue found = 7.444e-03
Small eigenvalue found = 1.044e-02
Small eigenvalue found = 2.656e-02
The first mode is                       ....   77
The number of degrees of freedom        ....   93

    -----------------------------------------------------------------
                    Redundant Internal Coordinates


    -----------------------------------------------------------------
         Definition                    Initial Value    Approx d2E/dq
    -----------------------------------------------------------------
      1. B(C   1,C   0)                  1.3936         0.616542   
      2. B(C   2,C   1)                  1.3954         0.612412   
      3. B(C   3,C   2)                  1.4030         0.595621   
      4. B(C   4,C   3)                  1.4026         0.596593   
      5. B(C   5,C   4)                  1.3955         0.612348   
      6. B(C   5,C   0)                  1.3937         0.616395   
      7. B(P   6,C   3)                  1.8037         0.459494   
      8. B(O   7,P   6)                  1.5267         1.138459   
      9. B(C   8,P   6)                  1.8206         0.431803   
     10. B(C   9,C   8)                  1.3951         0.613101   
     11. B(C  10,C   9)                  1.3914         0.621527   
     12. B(C  11,C  10)                  1.3892         0.626556   
     13. B(C  12,C  11)                  1.3842         0.638340   
     14. B(N  13,C  12)                  1.3505         0.646944   
     15. B(N  13,C   8)                  1.3626         0.618749   
     16. B(C  14,P   6)                  1.8143         0.441904   
     17. B(C  15,C  14)                  1.3960         0.611222   
     18. B(C  16,C  15)                  1.3917         0.620996   
     19. B(C  17,C  16)                  1.3889         0.627216   
     20. B(C  18,C  17)                  1.3841         0.638564   
     21. B(N  19,C  18)                  1.3501         0.647884   
     22. B(N  19,C  14)                  1.3633         0.617271   
     23. B(H  20,C   0)                  1.0868         0.364420   
     24. B(H  21,C   1)                  1.0869         0.364267   
     25. B(H  22,C   2)                  1.0887         0.361839   
     26. B(H  23,C   4)                  1.0889         0.361544   
     27. B(H  24,C   5)                  1.0868         0.364328   
     28. B(H  25,C   9)                  1.0866         0.364613   
     29. B(H  26,C  10)                  1.0865         0.364751   
     30. B(H  27,C  11)                  1.0843         0.367729   
     31. B(H  28,C  12)                  1.0865         0.364724   
     32. B(H  29,C  15)                  1.0860         0.365477   
     33. B(H  30,C  16)                  1.0862         0.365109   
     34. B(H  31,C  17)                  1.0841         0.368038   
     35. B(H  32,C  18)                  1.0863         0.364996   
     36. A(C   1,C   0,H  20)          120.0061         0.353287   
     37. A(C   1,C   0,C   5)          120.0062         0.433175   
     38. A(C   5,C   0,H  20)          119.9870         0.353273   
     39. A(C   2,C   1,H  21)          119.9417         0.352861   
     40. A(C   0,C   1,H  21)          120.0588         0.353262   
     41. A(C   0,C   1,C   2)          119.9993         0.432670   
     42. A(C   3,C   2,H  22)          119.8381         0.350809   
     43. A(C   1,C   2,C   3)          120.5887         0.429995   
     44. A(C   1,C   2,H  22)          119.5731         0.352462   
     45. A(C   2,C   3,C   4)          118.8100         0.427982   
     46. A(C   2,C   3,P   6)          119.9460         0.435677   
     47. A(C   4,C   3,P   6)          121.2382         0.435805   
     48. A(C   5,C   4,H  23)          119.4459         0.352407   
     49. A(C   3,C   4,C   5)          120.5578         0.430113   
     50. A(C   3,C   4,H  23)          119.9922         0.350857   
     51. A(C   0,C   5,C   4)          120.0380         0.432644   
     52. A(C   4,C   5,H  24)          119.8777         0.352864   
     53. A(C   0,C   5,H  24)          120.0834         0.353258   
     54. A(O   7,P   6,C  14)          111.5106         0.517777   
     55. A(C   8,P   6,C  14)          107.0883         0.435646   
     56. A(C   3,P   6,C   8)          105.9132         0.438723   
     57. A(O   7,P   6,C   8)          110.9981         0.515539   
     58. A(C   3,P   6,O   7)          111.6531         0.521582   
     59. A(C   3,P   6,C  14)          109.4263         0.440558   
     60. A(P   6,C   8,C   9)          118.5183         0.433079   
     61. A(C   9,C   8,N  13)          122.0880         0.430205   
     62. A(P   6,C   8,N  13)          119.3928         0.430957   
     63. A(C   8,C   9,C  10)          119.0602         0.433385   
     64. A(C  10,C   9,H  25)          120.6309         0.353801   
     65. A(C   8,C   9,H  25)          120.3088         0.352984   
     66. A(C   9,C  10,C  11)          119.3250         0.435081   
     67. A(C  11,C  10,H  26)          120.4195         0.354307   
     68. A(C   9,C  10,H  26)          120.2555         0.353824   
     69. A(C  10,C  11,C  12)          118.2670         0.437178   
     70. A(C  12,C  11,H  27)          120.6775         0.355920   
     71. A(C  10,C  11,H  27)          121.0554         0.354796   
     72. A(N  13,C  12,H  28)          115.2331         0.354034   
     73. A(C  11,C  12,H  28)          120.9496         0.355424   
     74. A(C  11,C  12,N  13)          123.8173         0.436825   
     75. A(C   8,N  13,C  12)          117.4425         0.431538   
     76. A(C  15,C  14,N  19)          121.8982         0.429783   
     77. A(P   6,C  14,N  19)          119.8779         0.432565   
     78. A(P   6,C  14,C  15)          118.2121         0.434644   
     79. A(C  16,C  15,H  29)          120.5611         0.353892   
     80. A(C  14,C  15,H  29)          120.2685         0.352943   
     81. A(C  14,C  15,C  16)          119.1696         0.433079   
     82. A(C  17,C  16,H  30)          120.4178         0.354430   
     83. A(C  15,C  16,H  30)          120.2766         0.353832   
     84. A(C  15,C  16,C  17)          119.3054         0.435097   
     85. A(C  18,C  17,H  31)          120.6661         0.355991   
     86. A(C  16,C  17,H  31)          121.0927         0.354910   
     87. A(C  16,C  17,C  18)          118.2409         0.437289   
     88. A(C  17,C  18,N  19)          123.8535         0.436967   
     89. A(N  19,C  18,H  32)          115.1751         0.354166   
     90. A(C  17,C  18,H  32)          120.9713         0.355490   
     91. A(C  14,N  19,C  18)          117.5291         0.431465   
     92. D(H  21,C   1,C   0,C   5)    179.7444         0.026286   
     93. D(C   2,C   1,C   0,C   5)     -0.0888         0.026286   
     94. D(C   2,C   1,C   0,H  20)   -179.7867         0.026286   
     95. D(H  21,C   1,C   0,H  20)      0.0466         0.026286   
     96. D(H  22,C   2,C   1,C   0)    179.9034         0.025914   
     97. D(H  22,C   2,C   1,H  21)      0.0699         0.025914   
     98. D(C   3,C   2,C   1,C   0)      0.0064         0.025914   
     99. D(C   3,C   2,C   1,H  21)   -179.8271         0.025914   
    100. D(P   6,C   3,C   2,H  22)      1.0175         0.024438   
    101. D(P   6,C   3,C   2,C   1)   -179.0858         0.024438   
    102. D(C   4,C   3,C   2,H  22)   -179.8496         0.024438   
    103. D(C   4,C   3,C   2,C   1)      0.0471         0.024438   
    104. D(H  23,C   4,C   3,C   2)    179.2384         0.024522   
    105. D(C   5,C   4,C   3,P   6)    179.1024         0.024522   
    106. D(C   5,C   4,C   3,C   2)     -0.0189         0.024522   
    107. D(H  23,C   4,C   3,P   6)     -1.6404         0.024522   
    108. D(H  24,C   5,C   4,H  23)      0.3464         0.025909   
    109. D(C   0,C   5,C   4,H  23)   -179.3241         0.025909   
    110. D(C   0,C   5,C   4,C   3)     -0.0629         0.025909   
    111. D(H  24,C   5,C   0,H  20)      0.1450         0.026272   
    112. D(C   4,C   5,C   0,C   1)      0.1169         0.026272   
    113. D(H  24,C   5,C   4,C   3)    179.6076         0.025909   
    114. D(C   4,C   5,C   0,H  20)    179.8148         0.026272   
    115. D(H  24,C   5,C   0,C   1)   -179.5529         0.026272   
    116. D(C  14,P   6,C   3,C   2)   -119.1130         0.004383   
    117. D(C   8,P   6,C   3,C   4)    -53.3465         0.004383   
    118. D(C   8,P   6,C   3,C   2)    125.7649         0.004383   
    119. D(O   7,P   6,C   3,C   4)   -174.2834         0.004383   
    120. D(O   7,P   6,C   3,C   2)      4.8280         0.004383   
    121. D(C   9,C   8,P   6,O   7)     28.3079         0.004035   
    122. D(C   9,C   8,P   6,C   3)    -93.0521         0.004035   
    123. D(N  13,C   8,P   6,O   7)   -152.0390         0.004035   
    124. D(N  13,C   8,P   6,C   3)     86.6010         0.004035   
    125. D(C   9,C   8,P   6,C  14)    150.2384         0.004035   
    126. D(H  25,C   9,C   8,N  13)    179.8693         0.025976   
    127. D(H  25,C   9,C   8,P   6)     -0.4874         0.025976   
    128. D(C  10,C   9,C   8,N  13)     -0.0054         0.025976   
    129. D(C  10,C   9,C   8,P   6)    179.6379         0.025976   
    130. D(H  26,C  10,C   9,H  25)      0.1154         0.026739   
    131. D(H  26,C  10,C   9,C   8)    179.9896         0.026739   
    132. D(C  11,C  10,C   9,H  25)   -179.9068         0.026739   
    133. D(C  11,C  10,C   9,C   8)     -0.0326         0.026739   
    134. D(H  27,C  11,C  10,H  26)      0.0321         0.027200   
    135. D(H  27,C  11,C  10,C   9)   -179.9457         0.027200   
    136. D(C  12,C  11,C  10,H  26)   -179.9829         0.027200   
    137. D(C  12,C  11,C  10,C   9)      0.0393         0.027200   
    138. D(H  28,C  12,C  11,H  27)     -0.0063         0.028301   
    139. D(H  28,C  12,C  11,C  10)   -179.9914         0.028301   
    140. D(N  13,C  12,C  11,H  27)    179.9761         0.028301   
    141. D(N  13,C  12,C  11,C  10)     -0.0090         0.028301   
    142. D(C   8,N  13,C  12,H  28)    179.9553         0.030908   
    143. D(C   8,N  13,C  12,C  11)     -0.0281         0.030908   
    144. D(C  12,N  13,C   8,C   9)      0.0351         0.028081   
    145. D(C  12,N  13,C   8,P   6)   -179.6052         0.028081   
    146. D(N  19,C  14,P   6,O   7)   -130.2885         0.004160   
    147. D(N  19,C  14,P   6,C   3)     -6.2639         0.004160   
    148. D(C  15,C  14,P   6,C   8)    -73.1200         0.004160   
    149. D(C  15,C  14,P   6,O   7)     48.4886         0.004160   
    150. D(C  15,C  14,P   6,C   3)    172.5132         0.004160   
    151. D(H  29,C  15,C  14,N  19)    179.0372         0.025808   
    152. D(H  29,C  15,C  14,P   6)      0.2862         0.025808   
    153. D(C  16,C  15,C  14,N  19)     -0.6380         0.025808   
    154. D(C  16,C  15,C  14,P   6)   -179.3890         0.025808   
    155. D(H  30,C  16,C  15,H  29)      0.3725         0.026690   
    156. D(H  30,C  16,C  15,C  14)   -179.9532         0.026690   
    157. D(C  17,C  16,C  15,H  29)   -179.4478         0.026690   
    158. D(C  17,C  16,C  15,C  14)      0.2264         0.026690   
    159. D(H  31,C  17,C  16,H  30)      0.1249         0.027261   
    160. D(H  31,C  17,C  16,C  15)    179.9449         0.027261   
    161. D(C  18,C  17,C  16,H  30)   -179.6870         0.027261   
    162. D(C  18,C  17,C  16,C  15)      0.1331         0.027261   
    163. D(H  32,C  18,C  17,H  31)     -0.0234         0.028322   
    164. D(H  32,C  18,C  17,C  16)    179.7892         0.028322   
    165. D(N  19,C  18,C  17,H  31)   -179.9276         0.028322   
    166. D(N  19,C  18,C  17,C  16)     -0.1150         0.028322   
    167. D(C  14,N  19,C  18,H  32)    179.8182         0.031005   
    168. D(C  14,N  19,C  18,C  17)     -0.2725         0.031005   
    169. D(C  18,N  19,C  14,C  15)      0.6507         0.027937   
    170. D(C  18,N  19,C  14,P   6)    179.3814         0.027937   
    -----------------------------------------------------------------

Number of atoms                         .... 33
Number of degrees of freedom            .... 170


         *************************************************************
         *                GEOMETRY OPTIMIZATION CYCLE   1            *
         *************************************************************
---------------------------------
CARTESIAN COORDINATES (ANGSTROEM)
---------------------------------
  C      4.270367   -0.632994   -0.090137
  C      3.856916   -0.399678   -1.400404
  C      2.511241   -0.151085   -1.673609
  C      1.564100   -0.133028   -0.638691
  C      1.994249   -0.368315    0.675396
  C      3.340270   -0.616238    0.947648
  P     -0.174509    0.165619   -1.014460
  O     -0.418336    0.255381   -2.518860
  C     -1.089290   -1.230491   -0.287461
  C     -1.360856   -2.339006   -1.089878
  C     -2.052652   -3.415593   -0.543571
  C     -2.455249   -3.362104    0.784972
  C     -2.149197   -2.228260    1.517526
  N     -1.480265   -1.167472    1.016370
  C     -0.727111    1.667758   -0.160173
  C     -2.001179    2.160085   -0.448484
  C     -2.440340    3.318327    0.185813
  C     -1.600434    3.960255    1.086736
  C     -0.348233    3.417071    1.316050
  N      0.106606    2.296096    0.716577
  H      5.318868   -0.823172    0.123198
  H      4.582178   -0.408434   -2.209849
  H      2.196142    0.031857   -2.699517
  H      1.277536   -0.346487    1.494891
  H      3.662453   -0.790834    1.970828
  H     -1.037267   -2.357688   -2.127019
  H     -2.274683   -4.288677   -1.150962
  H     -2.995073   -4.185357    1.239435
  H     -2.442914   -2.140287    2.559894
  H     -2.637582    1.646733   -1.163174
  H     -3.428718    3.716794   -0.024544
  H     -1.912589    4.864670    1.596431
  H      0.345552    3.884555    2.009030

----------------------------
CARTESIAN COORDINATES (A.U.)
----------------------------
  NO LB      ZA    FRAG     MASS         X           Y           Z
   0 C     6.0000    0    12.011    8.069824   -1.196185   -0.170334
   1 C     6.0000    0    12.011    7.288515   -0.755282   -2.646380
   2 C     6.0000    0    12.011    4.745558   -0.285509   -3.162663
   3 C     6.0000    0    12.011    2.955721   -0.251386   -1.206951
   4 C     6.0000    0    12.011    3.768584   -0.696014    1.276313
   5 C     6.0000    0    12.011    6.312196   -1.164521    1.790795
   6 P    15.0000    0    30.974   -0.329774    0.312975   -1.917052
   7 O     8.0000    0    15.999   -0.790540    0.482600   -4.759956
   8 C     6.0000    0    12.011   -2.058460   -2.325291   -0.543223
   9 C     6.0000    0    12.011   -2.571645   -4.420081   -2.059571
  10 C     6.0000    0    12.011   -3.878950   -6.454535   -1.027200
  11 C     6.0000    0    12.011   -4.639748   -6.353456    1.483382
  12 C     6.0000    0    12.011   -4.061394   -4.210801    2.867709
  13 N     7.0000    0    14.007   -2.797295   -2.206202    1.920661
  14 C     6.0000    0    12.011   -1.374041    3.151606   -0.302683
  15 C     6.0000    0    12.011   -3.781680    4.081969   -0.847512
  16 C     6.0000    0    12.011   -4.611574    6.270729    0.351136
  17 C     6.0000    0    12.011   -3.024382    7.483797    2.053633
  18 C     6.0000    0    12.011   -0.658065    6.457328    2.486974
  19 N     7.0000    0    14.007    0.201456    4.338993    1.354134
  20 H     1.0000    0     1.008   10.051204   -1.555570    0.232810
  21 H     1.0000    0     1.008    8.659062   -0.771828   -4.176009
  22 H     1.0000    0     1.008    4.150107    0.060201   -5.101348
  23 H     1.0000    0     1.008    2.414193   -0.654766    2.824935
  24 H     1.0000    0     1.008    6.921033   -1.494460    3.724325
  25 H     1.0000    0     1.008   -1.960151   -4.455385   -4.019483
  26 H     1.0000    0     1.008   -4.298528   -8.104425   -2.175003
  27 H     1.0000    0     1.008   -5.659868   -7.909179    2.342193
  28 H     1.0000    0     1.008   -4.616438   -4.044556    4.837499
  29 H     1.0000    0     1.008   -4.984308    3.111874   -2.198080
  30 H     1.0000    0     1.008   -6.479338    7.023723   -0.046381
  31 H     1.0000    0     1.008   -3.614269    9.192894    3.016817
  32 H     1.0000    0     1.008    0.652999    7.340745    3.796516

--------------------------------
INTERNAL COORDINATES (ANGSTROEM)
--------------------------------
 C      0   0   0     0.000000000000     0.00000000     0.00000000
 C      1   0   0     1.393620355960     0.00000000     0.00000000
 C      2   1   0     1.395449983804   119.99929045     0.00000000
 C      3   2   1     1.403017247169   120.58865131     0.00000000
 C      4   3   2     1.402573626637   118.80997567     0.04710965
 C      1   2   3     1.393685365917   120.00621032   359.91119077
 P      4   3   2     1.803650084371   119.94600963   180.91419870
 O      7   4   3     1.526672257747   111.65310478     4.82799580
 C      7   4   3     1.820569953630   105.91318566   125.76488656
 C      9   7   4     1.395143949372   118.51830644   266.94786910
 C     10   9   7     1.391428263488   119.06015102   179.63788750
 C     11  10   9     1.389234292831   119.32501113   359.96744918
 C     12  11  10     1.384162348121   118.26703068     0.03930077
 N     13  12  11     1.350517877669   123.81729440     0.00000000
 C      7   4   3     1.814275840134   109.42629574   240.88699593
 C     15   7   4     1.395979360977   118.21207573   172.51321088
 C     16  15   7     1.391660734049   119.16961592   180.61097111
 C     17  16  15     1.388947766458   119.30536584     0.22644055
 C     18  17  16     1.384066874415   118.24094142     0.13311539
 N     19  18  17     1.350122714524   123.85353868   359.88503579
 H      1   2   3     1.086753808786   120.00611817   180.21332109
 H      2   1   3     1.086868365629   120.05876181   179.83324980
 H      3   2   1     1.088688375812   119.57313861   179.90335039
 H      5   4   3     1.088910483455   119.99220029   179.23835862
 H      6   1   2     1.086822414705   120.08344536   180.44708063
 H     10   9   7     1.086609548976   120.30879623   359.51256904
 H     11  10   9     1.086506908813   120.25550146   179.98963646
 H     12  11  10     1.084293351153   121.05544052   180.05427471
 H     13  12  11     1.086526563063   120.94956978   180.00857397
 H     16  15   7     1.085965400191   120.26849563     0.28618655
 H     17  16  15     1.086239885303   120.27658129   180.04677678
 H     18  17  16     1.084064679470   121.09268593   179.94493594
 H     19  18  17     1.086324167494   120.97134655   179.78921793

---------------------------
INTERNAL COORDINATES (A.U.)
---------------------------
 C      0   0   0     0.000000000000     0.00000000     0.00000000
 C      1   0   0     2.633560807422     0.00000000     0.00000000
 C      2   1   0     2.637018302975   119.99929045     0.00000000
 C      3   2   1     2.651318358318   120.58865131     0.00000000
 C      4   3   2     2.650480037006   118.80997567     0.04710965
 C      1   2   3     2.633683658436   120.00621032   359.91119077
 P      4   3   2     3.408404700885   119.94600963   180.91419870
 O      7   4   3     2.884992463396   111.65310478     4.82799580
 C      7   4   3     3.440378620007   105.91318566   125.76488656
 C      9   7   4     2.636439981711   118.51830644   266.94786910
 C     10   9   7     2.629418352990   119.06015102   179.63788750
 C     11  10   9     2.625272349303   119.32501113   359.96744918
 C     12  11  10     2.615687762834   118.26703068     0.03930077
 N     13  12  11     2.552108927759   123.81729440     0.00000000
 C      7   4   3     3.428484469243   109.42629574   240.88699593
 C     15   7   4     2.638018680853   118.21207573   172.51321088
 C     16  15   7     2.629857658685   119.16961592   180.61097111
 C     17  16  15     2.624730892927   119.30536584     0.22644055
 C     18  17  16     2.615507343677   118.24094142     0.13311539
 N     19  18  17     2.551362177638   123.85353868   359.88503579
 H      1   2   3     2.053667073601   120.00611817   180.21332109
 H      2   1   3     2.053883554661   120.05876181   179.83324980
 H      3   2   1     2.057322875469   119.57313861   179.90335039
 H      5   4   3     2.057742598086   119.99220029   179.23835862
 H      6   1   2     2.053796719999   120.08344536   180.44708063
 H     10   9   7     2.053394462068   120.30879623   359.51256904
 H     11  10   9     2.053200500270   120.25550146   179.98963646
 H     12  11  10     2.049017482510   121.05544052   180.05427471
 H     13  12  11     2.053237641420   120.94956978   180.00857397
 H     16  15   7     2.052177197276   120.26849563     0.28618655
 H     17  16  15     2.052695898964   120.27658129   180.04677678
 H     18  17  16     2.048585355656   121.09268593   179.94493594
 H     19  18  17     2.052855169223   120.97134655   179.78921793

---------------------
BASIS SET INFORMATION
---------------------
There are 5 groups of distinct atoms

 Group   1 Type C   : 7s4p1d contracted to 3s2p1d pattern {511/31/1}
 Group   2 Type P   : 10s7p1d contracted to 4s3p1d pattern {5311/511/1}
 Group   3 Type O   : 7s4p1d contracted to 3s2p1d pattern {511/31/1}
 Group   4 Type N   : 7s4p1d contracted to 3s2p1d pattern {511/31/1}
 Group   5 Type H   : 4s1p contracted to 2s1p pattern {31/1}

Atom   0C    basis set group =>   1
Atom   1C    basis set group =>   1
Atom   2C    basis set group =>   1
Atom   3C    basis set group =>   1
Atom   4C    basis set group =>   1
Atom   5C    basis set group =>   1
Atom   6P    basis set group =>   2
Atom   7O    basis set group =>   3
Atom   8C    basis set group =>   1
Atom   9C    basis set group =>   1
Atom  10C    basis set group =>   1
Atom  11C    basis set group =>   1
Atom  12C    basis set group =>   1
Atom  13N    basis set group =>   4
Atom  14C    basis set group =>   1
Atom  15C    basis set group =>   1
Atom  16C    basis set group =>   1
Atom  17C    basis set group =>   1
Atom  18C    basis set group =>   1
Atom  19N    basis set group =>   4
Atom  20H    basis set group =>   5
Atom  21H    basis set group =>   5
Atom  22H    basis set group =>   5
Atom  23H    basis set group =>   5
Atom  24H    basis set group =>   5
Atom  25H    basis set group =>   5
Atom  26H    basis set group =>   5
Atom  27H    basis set group =>   5
Atom  28H    basis set group =>   5
Atom  29H    basis set group =>   5
Atom  30H    basis set group =>   5
Atom  31H    basis set group =>   5
Atom  32H    basis set group =>   5
---------------------------------
AUXILIARY/J BASIS SET INFORMATION
---------------------------------
There are 5 groups of distinct atoms

 Group   1 Type C   : 12s5p4d2f1g contracted to 6s4p3d1f1g pattern {711111/2111/211/2/1}
 Group   2 Type P   : 14s5p5d2f1g contracted to 8s4p3d1f1g pattern {71111111/2111/311/2/1}
 Group   3 Type O   : 12s5p4d2f1g contracted to 6s4p3d1f1g pattern {711111/2111/211/2/1}
 Group   4 Type N   : 12s5p4d2f1g contracted to 6s4p3d1f1g pattern {711111/2111/211/2/1}
 Group   5 Type H   : 5s2p1d contracted to 3s1p1d pattern {311/2/1}

Atom   0C    basis set group =>   1
Atom   1C    basis set group =>   1
Atom   2C    basis set group =>   1
Atom   3C    basis set group =>   1
Atom   4C    basis set group =>   1
Atom   5C    basis set group =>   1
Atom   6P    basis set group =>   2
Atom   7O    basis set group =>   3
Atom   8C    basis set group =>   1
Atom   9C    basis set group =>   1
Atom  10C    basis set group =>   1
Atom  11C    basis set group =>   1
Atom  12C    basis set group =>   1
Atom  13N    basis set group =>   4
Atom  14C    basis set group =>   1
Atom  15C    basis set group =>   1
Atom  16C    basis set group =>   1
Atom  17C    basis set group =>   1
Atom  18C    basis set group =>   1
Atom  19N    basis set group =>   4
Atom  20H    basis set group =>   5
Atom  21H    basis set group =>   5
Atom  22H    basis set group =>   5
Atom  23H    basis set group =>   5
Atom  24H    basis set group =>   5
Atom  25H    basis set group =>   5
Atom  26H    basis set group =>   5
Atom  27H    basis set group =>   5
Atom  28H    basis set group =>   5
Atom  29H    basis set group =>   5
Atom  30H    basis set group =>   5
Atom  31H    basis set group =>   5
Atom  32H    basis set group =>   5


           ************************************************************
           *        Program running with 6 parallel MPI-processes     *
           *              working on a common directory               *
           ************************************************************
------------------------------------------------------------------------------
                             ORCA STARTUP CALCULATIONS
                           -- RI-GTO INTEGRALS CHOSEN --
------------------------------------------------------------------------------
------------------------------------------------------------------------------
                   ___                                                        
                  /   \      - P O W E R E D   B Y -                         
                 /     \                                                     
                 |  |  |   _    _      __       _____    __    __             
                 |  |  |  | |  | |    /  \     |  _  \  |  |  /  |          
                  \  \/   | |  | |   /    \    | | | |  |  | /  /          
                 / \  \   | |__| |  /  /\  \   | |_| |  |  |/  /          
                |  |  |   |  __  | /  /__\  \  |    /   |      \           
                |  |  |   | |  | | |   __   |  |    \   |  |\   \          
                \     /   | |  | | |  |  |  |  | |\  \  |  | \   \       
                 \___/    |_|  |_| |__|  |__|  |_| \__\ |__|  \__/        
                                                                              
                      - O R C A' S   B I G   F R I E N D -                    
                                      &                                       
                       - I N T E G R A L  F E E D E R -                       
                                                                              
 v1 FN, 2020, v2 2021, v3 2022-2024                                           
------------------------------------------------------------------------------


----------------------
SHARK INTEGRAL PACKAGE
----------------------

Number of atoms                             ...     33
Number of basis functions                   ...    349
Number of shells                            ...    161
Maximum angular momentum                    ...      2
Integral batch strategy                     ... SHARK/LIBINT Hybrid
RI-J (if used) integral strategy            ... SPLIT-RIJ (Revised 2003 algorithm where possible)
Printlevel                                  ...      1
Contraction scheme used                     ... SEGMENTED contraction
Prescreening option                         ... SCHWARTZ
   Thresh                                   ... 2.500e-11
   Tcut                                     ... 2.500e-12
   Tpresel                                  ... 2.500e-12 
Coulomb Range Separation                    ... NOT USED
Exchange Range Separation                   ... NOT USED
Multipole approximations                    ... NOT USED
Finite Nucleus Model                        ... NOT USED
CABS basis                                  ... NOT available
Auxiliary Coulomb fitting basis             ... AVAILABLE
   # of basis functions in Aux-J            ...   1125
   # of shells in Aux-J                     ...    367
   Maximum angular momentum in Aux-J        ...      4
Auxiliary J/K fitting basis                 ... NOT available
Auxiliary Correlation fitting basis         ... NOT available
Auxiliary 'external' fitting basis          ... NOT available

Checking pre-screening integrals            ... done (  0.0 sec) Dimension = 161
Check shell pair data                       ... done (  0.0 sec)
Shell pair information
Shell pair cut-off parameter TPreSel        ...   2.5e-12
Total number of shell pairs                 ...     13041
Shell pairs after pre-screening             ...     10095
Total number of primitive shell pairs       ...     48825
Primitive shell pairs kept                  ...     24169
          la=0 lb=0:   3012 shell pairs
          la=1 lb=0:   3739 shell pairs
          la=1 lb=1:   1194 shell pairs
          la=2 lb=0:   1253 shell pairs
          la=2 lb=1:    771 shell pairs
          la=2 lb=2:    126 shell pairs

Calculating one electron integrals          ... done (  0.0 sec)
Calculating RI/J V-Matrix + Cholesky decomp.... done (  0.1 sec)
Calculating Nuclear repulsion               ... done (  0.0 sec) ENN=   1584.258811468183 Eh

Diagonalization of the overlap matrix:
Smallest eigenvalue                        ... 2.930e-04
Time for diagonalization                   ...    0.016 sec
Threshold for overlap eigenvalues          ... 1.000e-07
Number of eigenvalues below threshold      ... 0
Time for construction of square roots      ...    0.010 sec
Total time needed                          ...    0.027 sec

-------------------
DFT GRID GENERATION
-------------------

General Integration Accuracy     IntAcc      ... 4.388
Radial Grid Type                 RadialGrid  ... OptM3 with GC (2021)
Angular Grid (max. ang.)         AngularGrid ... 4 (Lebedev-302)
Angular grid pruning method      GridPruning ... 4 (adaptive)
Weight generation scheme         WeightScheme... mBecke (2022)
Basis function cutoff            BFCut       ... 1.0000e-11
Integration weight cutoff        WCut        ... 1.0000e-14
Partially contracted basis set               ... off
Rotationally invariant grid construction     ... off
Angular grids for H and He will be reduced by one unit

Total number of grid points                  ...   162687
Total number of batches                      ...     2560
Average number of points per batch           ...       63
Average number of grid points per atom       ...     4930
Initializing property integral containers    ... done (  0.0 sec)

SHARK setup successfully completed in   1.6 seconds

Maximum memory used throughout the entire STARTUP-calculation: 44.0 MB


           ************************************************************
           *        Program running with 6 parallel MPI-processes     *
           *              working on a common directory               *
           ************************************************************
-------------------------------------------------------------------------------
                                 ORCA GUESS
                   Start orbitals & Density for SCF / CASSCF
-------------------------------------------------------------------------------

------------
SCF SETTINGS
------------
Hamiltonian:
 Density Functional     Method          .... DFT(GTOs)
 Exchange Functional    Exchange        .... B88
   X-Alpha parameter    XAlpha          ....  0.666667
   Becke's b parameter  XBeta           ....  0.004200
 Correlation Functional Correlation     .... P86
 LDA part of GGA corr.  LDAOpt          .... PW91-LDA
 Gradients option       PostSCFGGA      .... off
   NL short-range parameter             ....  4.400000
 RI-approximation to the Coulomb term is turned on
   Number of AuxJ basis functions       .... 1125


General Settings:
 Integral files         IntName         .... data/geom_opt_PO_BP86/603962/603962
 Hartree-Fock type      HFTyp           .... RHF
 Total Charge           Charge          ....    0
 Multiplicity           Mult            ....    1
 Number of Electrons    NEL             ....  146
 Basis Dimension        Dim             ....  349
 Nuclear Repulsion      ENuc            ....   1584.2588114682 Eh

Convergence Acceleration:
 AO-DIIS                CNVDIIS         .... on
   Start iteration      DIISMaxIt       ....    12
   Startup error        DIISStart       ....  0.200000
   # of expansion vecs  DIISMaxEq       ....     5
   Bias factor          DIISBfac        ....   1.050
   Max. coefficient     DIISMaxC        ....  10.000
 MO-DIIS                CNVKDIIS        .... off
 Trust-Rad. Augm. Hess. CNVTRAH         .... auto
   Auto Start mean grad. ratio tolernc. ....  1.125000
   Auto Start start iteration           ....    50
   Auto Start num. interpolation iter.  ....    10
   Max. Number of Micro iterations      ....    24
   Max. Number of Macro iterations      .... Maxiter - #DIIS iter
   Number of Davidson start vectors     ....     2
   Converg. threshold    (grad. norm)   ....   1.000e-05
   Grad. Scal. Fac. for Micro threshold ....   0.100
   Minimum threshold for Micro iter.    ....   1.000e-02
   NR start threshold (gradient norm)   ....   1.000e-04
   Initial trust radius                 ....   0.400
   Minimum AH scaling param. (alpha)    ....   1.000
   Maximum AH scaling param. (alpha)    .... 1000.000
   Quad. conv. algorithm                .... NR
   White noise on init. David. guess    .... on
   Maximum white noise                  ....   0.010
   Pseudo random numbers                .... off
   Inactive MOs                         .... canonical
   Orbital update algorithm             .... Taylor
   Preconditioner                       .... Diag
   Full preconditioner red. dimension   ....   250
 SOSCF                  CNVSOSCF        .... on
   Start iteration      SOSCFMaxIt      ....   150
   Startup grad/error   SOSCFStart      ....  0.003300
   Hessian update       SOSCFHessUp     .... L-BFGS
 Level Shifting         CNVShift        .... on
   Level shift para.    LevelShift      ....    0.2500
   Turn off err/grad.   ShiftErr        ....    0.0010
 Zerner damping         CNVZerner       .... off
 Static damping         CNVDamp         .... on
   Fraction old density DampFac         ....    0.7000
   Max. Damping (<1)    DampMax         ....    0.9800
   Min. Damping (>=0)   DampMin         ....    0.0000
   Turn off err/grad.   DampErr         ....    0.1000

SCF Procedure:
 Maximum # iterations   MaxIter         ....   125
 SCF integral mode      SCFMode         .... Direct
   Integral package                     .... SHARK and LIBINT hybrid scheme
 Reset frequency        DirectResetFreq ....    20
 Integral Threshold     Thresh          ....  2.500e-11 Eh
 Primitive CutOff       TCut            ....  2.500e-12 Eh

Convergence Tolerance:
 Convergence Check Mode ConvCheckMode   .... Total+1el-Energy
 Convergence forced     ConvForced      .... 0
 Energy Change          TolE            ....  1.000e-08 Eh
 1-El. energy change                    ....  1.000e-05 Eh
 Orbital Gradient       TolG            ....  1.000e-05
 Orbital Rotation angle TolX            ....  1.000e-05
 DIIS Error             TolErr          ....  5.000e-07

------------------------------
INITIAL GUESS: MODEL POTENTIAL
------------------------------
Loading Hartree-Fock densities                     ... done
Calculating cut-offs                               ... done
Initializing the effective Hamiltonian             ... done
Setting up the integral package (SHARK)            ... done
Starting the Coulomb interaction                   ... done (   0.1 sec)
Making the grid                                    ... done (   0.3 sec)
Mapping shells                                     ... done
Starting the XC term evaluation                    ... done (   0.2 sec)
  promolecular density results
     # of electrons  =    145.989372397
     EX              =   -130.093151098
     EC              =     -5.437691132
     EX+EC           =   -135.530842231
Transforming the Hamiltonian                       ... done (   0.0 sec)
Diagonalizing the Hamiltonian                      ... done (   0.0 sec)
Back transforming the eigenvectors                 ... done (   0.0 sec)
Now organizing SCF variables                       ... done
                      ------------------
                      INITIAL GUESS DONE (   0.6 sec)
                      ------------------
             **** ENERGY FILE WAS UPDATED (data/geom_opt_PO_BP86/603962/603962.en.tmp) ****
Finished Guess after   0.7 sec
Maximum memory used throughout the entire GUESS-calculation: 25.0 MB


           ************************************************************
           *        Program running with 6 parallel MPI-processes     *
           *              working on a common directory               *
           ************************************************************

-------------------------------------------------------------------------------------------
                                      ORCA LEAN-SCF
                              memory conserving SCF solver
-------------------------------------------------------------------------------------------

----------------------------------------D-I-I-S--------------------------------------------
Iteration    Energy (Eh)           Delta-E    RMSDP     MaxDP     DIISErr   Damp  Time(sec)
-------------------------------------------------------------------------------------------
               ***  Starting incremental Fock matrix formation  ***
    1    -1142.5513447699022436     0.00e+00  3.46e-03  1.63e-01  3.33e-01  0.700   0.9
    2    -1142.7604754560852598    -2.09e-01  1.97e-03  6.81e-02  7.45e-02  0.700   0.8
                               ***Turning on AO-DIIS***
    3    -1142.8224383607944219    -6.20e-02  7.20e-04  1.84e-02  3.34e-02  0.700   0.8
    4    -1142.8675384818484417    -4.51e-02  1.22e-03  4.99e-02  2.27e-02  0.000   0.8
    5    -1142.9687594065826488    -1.01e-01  3.17e-04  9.06e-03  6.58e-03  0.000   0.9
    6    -1142.9697298060054891    -9.70e-04  1.24e-04  3.18e-03  5.27e-03  0.000   0.8
                              *** Initializing SOSCF ***
---------------------------------------S-O-S-C-F--------------------------------------
Iteration    Energy (Eh)           Delta-E    RMSDP     MaxDP     MaxGrad    Time(sec)
--------------------------------------------------------------------------------------
    7    -1142.9698469879785989    -1.17e-04  4.26e-05  1.33e-03  1.49e-03     0.8
               *** Restarting incremental Fock matrix formation ***
    8    -1142.9698625226192235    -1.55e-05  4.03e-05  1.52e-03  1.49e-04     0.9
    9    -1142.9698598058457719     2.72e-06  2.64e-05  9.94e-04  2.80e-04     0.7
   10    -1142.9698645895632581    -4.78e-06  1.52e-05  1.13e-03  5.51e-05     0.7
   11    -1142.9698640453520966     5.44e-07  8.14e-06  4.47e-04  1.29e-04     0.7
   12    -1142.9698648716926073    -8.26e-07  7.52e-06  5.68e-04  4.61e-05     0.7
   13    -1142.9698646618312523     2.10e-07  4.27e-06  3.23e-04  7.30e-05     0.7
   14    -1142.9698649587462569    -2.97e-07  3.05e-06  2.16e-04  1.59e-05     0.8
   15    -1142.9698649355023008     2.32e-08  1.89e-06  1.51e-04  2.46e-05     0.7
   16    -1142.9698649706492688    -3.51e-08  6.68e-07  2.76e-05  3.91e-06     0.6
   17    -1142.9698649625252074     8.12e-09  4.25e-07  1.74e-05  8.80e-06     0.6
                 **** Energy Check signals convergence ****

               *****************************************************
               *                     SUCCESS                       *
               *           SCF CONVERGED AFTER  17 CYCLES          *
               *****************************************************

             **** ENERGY FILE WAS UPDATED (data/geom_opt_PO_BP86/603962/603962.en.tmp) ****

----------------
TOTAL SCF ENERGY
----------------

Total Energy       :      -1142.96986496252521 Eh          -31101.79121 eV

Components:
Nuclear Repulsion  :       1584.25881146818301 Eh           43109.87392 eV
Electronic Energy  :      -2727.22867643070822 Eh          -74211.66513 eV
One Electron Energy:      -4706.87015645938027 Eh         -128080.44844 eV
Two Electron Energy:       1979.64148002867205 Eh           53868.78331 eV

Virial components:
Potential Energy   :      -2276.23420802773944 Eh          -61939.48174 eV
Kinetic Energy     :       1133.26434306521446 Eh           30837.69053 eV
Virial Ratio       :          2.00856421712789

DFT components:
N(Alpha)           :       72.999956560491 electrons
N(Beta)            :       72.999956560491 electrons
N(Total)           :      145.999913120983 electrons
E(X)               :     -131.832852097746 Eh       
E(C)               :       -5.447040591402 Eh       
E(XC)              :     -137.279892689148 Eh       

---------------
SCF CONVERGENCE
---------------

  Last Energy change         ...   -8.1241e-09  Tolerance :   1.0000e-08
  Last MAX-Density change    ...    1.7365e-05  Tolerance :   1.0000e-07
  Last RMS-Density change    ...    4.2465e-07  Tolerance :   5.0000e-09
  Last DIIS Error            ...    1.4851e-03  Tolerance :   5.0000e-07
  Last Orbital Gradient      ...    8.8019e-06  Tolerance :   1.0000e-05
  Last Orbital Rotation      ...    1.4095e-05  Tolerance :   1.0000e-05


----------------
ORBITAL ENERGIES
----------------

  NO   OCC          E(Eh)            E(eV) 
   0   2.0000     -76.410222     -2079.2278 
   1   2.0000     -18.711154      -509.1564 
   2   2.0000     -14.024265      -381.6197 
   3   2.0000     -14.018875      -381.4730 
   4   2.0000      -9.958211      -270.9767 
   5   2.0000      -9.956776      -270.9377 
   6   2.0000      -9.955135      -270.8930 
   7   2.0000      -9.953635      -270.8522 
   8   2.0000      -9.943426      -270.5744 
   9   2.0000      -9.940196      -270.4865 
  10   2.0000      -9.936659      -270.3902 
  11   2.0000      -9.935190      -270.3503 
  12   2.0000      -9.933740      -270.3108 
  13   2.0000      -9.932870      -270.2871 
  14   2.0000      -9.919354      -269.9193 
  15   2.0000      -9.918864      -269.9060 
  16   2.0000      -9.918662      -269.9005 
  17   2.0000      -9.918254      -269.8894 
  18   2.0000      -9.916275      -269.8356 
  19   2.0000      -9.916260      -269.8352 
  20   2.0000      -6.370438      -173.3484 
  21   2.0000      -4.591481      -124.9405 
  22   2.0000      -4.591410      -124.9386 
  23   2.0000      -4.591390      -124.9381 
  24   2.0000      -0.867146       -23.5963 
  25   2.0000      -0.859315       -23.3832 
  26   2.0000      -0.840443       -22.8696 
  27   2.0000      -0.774968       -21.0879 
  28   2.0000      -0.737640       -20.0722 
  29   2.0000      -0.734000       -19.9731 
  30   2.0000      -0.707699       -19.2575 
  31   2.0000      -0.696584       -18.9550 
  32   2.0000      -0.677460       -18.4346 
  33   2.0000      -0.670697       -18.2506 
  34   2.0000      -0.605541       -16.4776 
  35   2.0000      -0.578401       -15.7391 
  36   2.0000      -0.575187       -15.6516 
  37   2.0000      -0.571551       -15.5527 
  38   2.0000      -0.549249       -14.9458 
  39   2.0000      -0.542193       -14.7538 
  40   2.0000      -0.512106       -13.9351 
  41   2.0000      -0.482739       -13.1360 
  42   2.0000      -0.474522       -12.9124 
  43   2.0000      -0.454811       -12.3760 
  44   2.0000      -0.449444       -12.2300 
  45   2.0000      -0.443777       -12.0758 
  46   2.0000      -0.420774       -11.4498 
  47   2.0000      -0.411404       -11.1949 
  48   2.0000      -0.407381       -11.0854 
  49   2.0000      -0.398706       -10.8493 
  50   2.0000      -0.393474       -10.7070 
  51   2.0000      -0.385586       -10.4923 
  52   2.0000      -0.375447       -10.2164 
  53   2.0000      -0.373806       -10.1718 
  54   2.0000      -0.370757       -10.0888 
  55   2.0000      -0.362125        -9.8539 
  56   2.0000      -0.360521        -9.8103 
  57   2.0000      -0.345542        -9.4027 
  58   2.0000      -0.337417        -9.1816 
  59   2.0000      -0.323350        -8.7988 
  60   2.0000      -0.312197        -8.4953 
  61   2.0000      -0.305180        -8.3044 
  62   2.0000      -0.295936        -8.0528 
  63   2.0000      -0.275945        -7.5088 
  64   2.0000      -0.271039        -7.3754 
  65   2.0000      -0.259779        -7.0690 
  66   2.0000      -0.252898        -6.8817 
  67   2.0000      -0.237849        -6.4722 
  68   2.0000      -0.234875        -6.3913 
  69   2.0000      -0.229520        -6.2456 
  70   2.0000      -0.224052        -6.0968 
  71   2.0000      -0.209520        -5.7013 
  72   2.0000      -0.204318        -5.5598 
  73   0.0000      -0.083949        -2.2844 
  74   0.0000      -0.077750        -2.1157 
  75   0.0000      -0.067729        -1.8430 
  76   0.0000      -0.062201        -1.6926 
  77   0.0000      -0.051320        -1.3965 
  78   0.0000      -0.039256        -1.0682 
  79   0.0000       0.034814         0.9473 
  80   0.0000       0.043359         1.1799 
  81   0.0000       0.044228         1.2035 
  82   0.0000       0.050062         1.3623 
  83   0.0000       0.061846         1.6829 
*Only the first 10 virtual orbitals were printed.

                    ********************************
                    * MULLIKEN POPULATION ANALYSIS *
                    ********************************

-----------------------
MULLIKEN ATOMIC CHARGES
-----------------------
   0 C :    0.016007
   1 C :    0.007652
   2 C :   -0.004598
   3 C :   -0.104990
   4 C :    0.033377
   5 C :    0.004867
   6 P :    0.648064
   7 O :   -0.464449
   8 C :   -0.164905
   9 C :    0.037430
  10 C :    0.047331
  11 C :    0.000417
  12 C :    0.026963
  13 N :   -0.097425
  14 C :   -0.127152
  15 C :    0.036562
  16 C :    0.048895
  17 C :   -0.002734
  18 C :    0.031629
  19 N :   -0.096021
  20 H :   -0.002504
  21 H :   -0.001366
  22 H :    0.009205
  23 H :    0.000306
  24 H :   -0.004346
  25 H :    0.021434
  26 H :    0.014856
  27 H :    0.010251
  28 H :    0.018786
  29 H :    0.017323
  30 H :    0.012648
  31 H :    0.008621
  32 H :    0.017869
Sum of atomic charges:   -0.0000000

--------------------------------
MULLIKEN REDUCED ORBITAL CHARGES
--------------------------------
  0 C s       :     3.167996  s :     3.167996
      pz      :     0.963384  p :     2.782860
      px      :     0.853762
      py      :     0.965714
      dz2     :     0.010133  d :     0.033136
      dxz     :     0.009939
      dyz     :     0.006173
      dx2y2   :     0.004175
      dxy     :     0.002716

  1 C s       :     3.170999  s :     3.170999
      pz      :     0.891625  p :     2.788654
      px      :     0.907516
      py      :     0.989513
      dz2     :     0.007725  d :     0.032696
      dxz     :     0.012380
      dyz     :     0.004004
      dx2y2   :     0.004352
      dxy     :     0.004235

  2 C s       :     3.248734  s :     3.248734
      pz      :     0.874907  p :     2.723132
      px      :     0.904977
      py      :     0.943249
      dz2     :     0.008327  d :     0.032731
      dxz     :     0.010441
      dyz     :     0.002917
      dx2y2   :     0.005067
      dxy     :     0.005979

  3 C s       :     3.052130  s :     3.052130
      pz      :     0.990710  p :     3.019738
      px      :     0.997487
      py      :     1.031541
      dz2     :     0.009811  d :     0.033122
      dxz     :     0.009555
      dyz     :     0.006216
      dx2y2   :     0.004556
      dxy     :     0.002984

  4 C s       :     3.219571  s :     3.219571
      pz      :     0.911861  p :     2.714213
      px      :     0.858208
      py      :     0.944144
      dz2     :     0.007668  d :     0.032839
      dxz     :     0.012107
      dyz     :     0.004122
      dx2y2   :     0.004370
      dxy     :     0.004571

  5 C s       :     3.170623  s :     3.170623
      pz      :     0.848852  p :     2.791854
      px      :     0.953716
      py      :     0.989286
      dz2     :     0.008656  d :     0.032656
      dxz     :     0.010491
      dyz     :     0.002941
      dx2y2   :     0.005057
      dxy     :     0.005511

  6 P s       :     5.210416  s :     5.210416
      pz      :     2.787685  p :     8.673266
      px      :     2.951172
      py      :     2.934410
      dz2     :     0.089292  d :     0.468254
      dxz     :     0.114526
      dyz     :     0.144075
      dx2y2   :     0.066123
      dxy     :     0.054238

  7 O s       :     3.825602  s :     3.825602
      pz      :     1.333114  p :     4.627313
      px      :     1.643823
      py      :     1.650377
      dz2     :     0.004822  d :     0.011534
      dxz     :     0.003292
      dyz     :     0.003169
      dx2y2   :     0.000118
      dxy     :     0.000133

  8 C s       :     3.140053  s :     3.140053
      pz      :     0.950633  p :     2.974653
      px      :     0.995425
      py      :     1.028595
      dz2     :     0.013900  d :     0.050199
      dxz     :     0.010000
      dyz     :     0.016500
      dx2y2   :     0.004298
      dxy     :     0.005501

  9 C s       :     3.198392  s :     3.198392
      pz      :     0.872735  p :     2.732608
      px      :     0.929039
      py      :     0.930833
      dz2     :     0.007640  d :     0.031571
      dxz     :     0.004346
      dyz     :     0.008379
      dx2y2   :     0.005718
      dxy     :     0.005488

 10 C s       :     3.145348  s :     3.145348
      pz      :     0.927550  p :     2.773683
      px      :     0.946838
      py      :     0.899296
      dz2     :     0.008141  d :     0.033637
      dxz     :     0.006100
      dyz     :     0.010508
      dx2y2   :     0.004873
      dxy     :     0.004015

 11 C s       :     3.162210  s :     3.162210
      pz      :     0.947106  p :     2.805280
      px      :     0.950078
      py      :     0.908097
      dz2     :     0.008151  d :     0.032093
      dxz     :     0.005879
      dyz     :     0.010039
      dx2y2   :     0.003607
      dxy     :     0.004417

 12 C s       :     3.139707  s :     3.139707
      pz      :     0.910293  p :     2.782858
      px      :     0.941808
      py      :     0.930757
      dz2     :     0.012864  d :     0.050472
      dxz     :     0.006530
      dyz     :     0.011861
      dx2y2   :     0.009693
      dxy     :     0.009523

 13 N s       :     3.517315  s :     3.517315
      pz      :     1.137503  p :     3.553679
      px      :     1.085473
      py      :     1.330703
      dz2     :     0.007687  d :     0.026431
      dxz     :     0.004082
      dyz     :     0.005473
      dx2y2   :     0.004349
      dxy     :     0.004840

 14 C s       :     3.121269  s :     3.121269
      pz      :     0.959646  p :     2.955783
      px      :     0.991714
      py      :     1.004423
      dz2     :     0.007328  d :     0.050100
      dxz     :     0.010989
      dyz     :     0.008678
      dx2y2   :     0.013078
      dxy     :     0.010027

 15 C s       :     3.187031  s :     3.187031
      pz      :     0.909773  p :     2.744724
      px      :     0.926911
      py      :     0.908039
      dz2     :     0.004171  d :     0.031683
      dxz     :     0.006138
      dyz     :     0.005277
      dx2y2   :     0.007675
      dxy     :     0.008423

 16 C s       :     3.139982  s :     3.139982
      pz      :     0.950438  p :     2.777542
      px      :     0.878546
      py      :     0.948557
      dz2     :     0.006314  d :     0.033581
      dxz     :     0.005270
      dyz     :     0.006092
      dx2y2   :     0.008039
      dxy     :     0.007866

 17 C s       :     3.163297  s :     3.163297
      pz      :     0.947331  p :     2.807306
      px      :     0.961885
      py      :     0.898090
      dz2     :     0.004719  d :     0.032131
      dxz     :     0.006736
      dyz     :     0.004990
      dx2y2   :     0.008228
      dxy     :     0.007458

 18 C s       :     3.137461  s :     3.137461
      pz      :     0.929404  p :     2.780385
      px      :     0.919832
      py      :     0.931149
      dz2     :     0.006316  d :     0.050525
      dxz     :     0.008744
      dyz     :     0.009045
      dx2y2   :     0.011357
      dxy     :     0.015064

 19 N s       :     3.515244  s :     3.515244
      pz      :     1.049169  p :     3.554289
      px      :     1.436804
      py      :     1.068315
      dz2     :     0.004407  d :     0.026489
      dxz     :     0.006184
      dyz     :     0.003773
      dx2y2   :     0.005470
      dxy     :     0.006654

 20 H s       :     0.980205  s :     0.980205
      pz      :     0.004131  p :     0.022299
      px      :     0.012985
      py      :     0.005183

 21 H s       :     0.978985  s :     0.978985
      pz      :     0.009259  p :     0.022381
      px      :     0.008125
      py      :     0.004997

 22 H s       :     0.967956  s :     0.967956
      pz      :     0.012914  p :     0.022839
      px      :     0.005004
      py      :     0.004921

 23 H s       :     0.976830  s :     0.976830
      pz      :     0.009515  p :     0.022864
      px      :     0.008486
      py      :     0.004864

 24 H s       :     0.981971  s :     0.981971
      pz      :     0.012527  p :     0.022375
      px      :     0.004604
      py      :     0.005244

 25 H s       :     0.955548  s :     0.955548
      pz      :     0.013834  p :     0.023019
      px      :     0.005269
      py      :     0.003916

 26 H s       :     0.962819  s :     0.962819
      pz      :     0.007023  p :     0.022326
      px      :     0.004804
      py      :     0.010499

 27 H s       :     0.967183  s :     0.967183
      pz      :     0.005564  p :     0.022567
      px      :     0.007124
      py      :     0.009879

 28 H s       :     0.960686  s :     0.960686
      pz      :     0.013079  p :     0.020527
      px      :     0.004541
      py      :     0.002908

 29 H s       :     0.959835  s :     0.959835
      pz      :     0.009116  p :     0.022842
      px      :     0.007351
      py      :     0.006376

 30 H s       :     0.964983  s :     0.964983
      pz      :     0.004645  p :     0.022370
      px      :     0.012350
      py      :     0.005374

 31 H s       :     0.968793  s :     0.968793
      pz      :     0.006610  p :     0.022586
      px      :     0.004753
      py      :     0.011223

 32 H s       :     0.961597  s :     0.961597
      pz      :     0.007912  p :     0.020535
      px      :     0.008019
      py      :     0.004604



                     *******************************
                     * LOEWDIN POPULATION ANALYSIS *
                     *******************************

----------------------
LOEWDIN ATOMIC CHARGES
----------------------
   0 C :   -0.017460
   1 C :   -0.029939
   2 C :   -0.010398
   3 C :   -0.183821
   4 C :   -0.010995
   5 C :   -0.029487
   6 P :    0.876506
   7 O :   -0.500933
   8 C :   -0.146061
   9 C :   -0.023965
  10 C :    0.002604
  11 C :   -0.037049
  12 C :    0.017052
  13 N :   -0.087835
  14 C :   -0.135922
  15 C :   -0.022673
  16 C :    0.001925
  17 C :   -0.036195
  18 C :    0.018909
  19 N :   -0.077261
  20 H :    0.030318
  21 H :    0.031696
  22 H :    0.034760
  23 H :    0.030596
  24 H :    0.030704
  25 H :    0.040196
  26 H :    0.037419
  27 H :    0.036405
  28 H :    0.025296
  29 H :    0.037805
  30 H :    0.036708
  31 H :    0.035808
  32 H :    0.025285

-------------------------------
LOEWDIN REDUCED ORBITAL CHARGES
-------------------------------
  0 C s       :     2.864959  s :     2.864959
      pz      :     1.068878  p :     3.062965
      px      :     1.039982
      py      :     0.954104
      dz2     :     0.029675  d :     0.089536
      dxz     :     0.030020
      dyz     :     0.013928
      dx2y2   :     0.010571
      dxy     :     0.005343

  1 C s       :     2.863184  s :     2.863184
      pz      :     1.050829  p :     3.077884
      px      :     1.052137
      py      :     0.974918
      dz2     :     0.023355  d :     0.088871
      dxz     :     0.035264
      dyz     :     0.008706
      dx2y2   :     0.012227
      dxy     :     0.009319

  2 C s       :     2.868040  s :     2.868040
      pz      :     1.052436  p :     3.053354
      px      :     1.056516
      py      :     0.944403
      dz2     :     0.023562  d :     0.089004
      dxz     :     0.031218
      dyz     :     0.005897
      dx2y2   :     0.014953
      dxy     :     0.013374

  3 C s       :     2.911507  s :     2.911507
      pz      :     1.090223  p :     3.183533
      px      :     1.075519
      py      :     1.017790
      dz2     :     0.028632  d :     0.088781
      dxz     :     0.029367
      dyz     :     0.013635
      dx2y2   :     0.011304
      dxy     :     0.005842

  4 C s       :     2.867522  s :     2.867522
      pz      :     1.052356  p :     3.053607
      px      :     1.057828
      py      :     0.943423
      dz2     :     0.022953  d :     0.089866
      dxz     :     0.035497
      dyz     :     0.009088
      dx2y2   :     0.012326
      dxy     :     0.010002

  5 C s       :     2.863275  s :     2.863275
      pz      :     1.041303  p :     3.077455
      px      :     1.062323
      py      :     0.973829
      dz2     :     0.024314  d :     0.088757
      dxz     :     0.031408
      dyz     :     0.005849
      dx2y2   :     0.014847
      dxy     :     0.012338

  6 P s       :     4.947218  s :     4.947218
      pz      :     2.775300  p :     8.520523
      px      :     2.874019
      py      :     2.871204
      dz2     :     0.131737  d :     0.655752
      dxz     :     0.151269
      dyz     :     0.199478
      dx2y2   :     0.097300
      dxy     :     0.075968

  7 O s       :     3.670882  s :     3.670882
      pz      :     1.463014  p :     4.812126
      px      :     1.674911
      py      :     1.674201
      dz2     :     0.009812  d :     0.017925
      dxz     :     0.004168
      dyz     :     0.003644
      dx2y2   :     0.000130
      dxy     :     0.000171

  8 C s       :     2.924280  s :     2.924280
      pz      :     1.027811  p :     3.098505
      px      :     0.993363
      py      :     1.077331
      dz2     :     0.036515  d :     0.123276
      dxz     :     0.021883
      dyz     :     0.042423
      dx2y2   :     0.009984
      dxy     :     0.012470

  9 C s       :     2.870869  s :     2.870869
      pz      :     1.049867  p :     3.063835
      px      :     0.969553
      py      :     1.044416
      dz2     :     0.022347  d :     0.089261
      dxz     :     0.010831
      dyz     :     0.025615
      dx2y2   :     0.015050
      dxy     :     0.015416

 10 C s       :     2.864222  s :     2.864222
      pz      :     1.052411  p :     3.042537
      px      :     0.961218
      py      :     1.028907
      dz2     :     0.023856  d :     0.090637
      dxz     :     0.015767
      dyz     :     0.028963
      dx2y2   :     0.011467
      dxy     :     0.010584

 11 C s       :     2.868047  s :     2.868047
      pz      :     1.059499  p :     3.079499
      px      :     0.979926
      py      :     1.040075
      dz2     :     0.024603  d :     0.089503
      dxz     :     0.014966
      dyz     :     0.029077
      dx2y2   :     0.009333
      dxy     :     0.011524

 12 C s       :     2.864904  s :     2.864904
      pz      :     1.028612  p :     2.991887
      px      :     0.949338
      py      :     1.013938
      dz2     :     0.032775  d :     0.126156
      dxz     :     0.014746
      dyz     :     0.031541
      dx2y2   :     0.023036
      dxy     :     0.024059

 13 N s       :     3.245698  s :     3.245698
      pz      :     1.261053  p :     3.785006
      px      :     1.124168
      py      :     1.399785
      dz2     :     0.018596  d :     0.057131
      dxz     :     0.009559
      dyz     :     0.012000
      dx2y2   :     0.007353
      dxy     :     0.009624

 14 C s       :     2.919457  s :     2.919457
      pz      :     0.995095  p :     3.093443
      px      :     1.054159
      py      :     1.044188
      dz2     :     0.015239  d :     0.123022
      dxz     :     0.028597
      dyz     :     0.020067
      dx2y2   :     0.033455
      dxy     :     0.025664

 15 C s       :     2.869565  s :     2.869565
      pz      :     0.991128  p :     3.063697
      px      :     1.046147
      py      :     1.026423
      dz2     :     0.010348  d :     0.089411
      dxz     :     0.017119
      dyz     :     0.014339
      dx2y2   :     0.022316
      dxy     :     0.025288

 16 C s       :     2.863554  s :     2.863554
      pz      :     0.991708  p :     3.044056
      px      :     1.028163
      py      :     1.024185
      dz2     :     0.014744  d :     0.090465
      dxz     :     0.014636
      dyz     :     0.017558
      dx2y2   :     0.021700
      dxy     :     0.021826

 17 C s       :     2.867858  s :     2.867858
      pz      :     1.001683  p :     3.078757
      px      :     1.059086
      py      :     1.017987
      dz2     :     0.011601  d :     0.089581
      dxz     :     0.019208
      dyz     :     0.013352
      dx2y2   :     0.022984
      dxy     :     0.022435

 18 C s       :     2.864170  s :     2.864170
      pz      :     0.968145  p :     2.990504
      px      :     1.041901
      py      :     0.980458
      dz2     :     0.014431  d :     0.126417
      dxz     :     0.021611
      dyz     :     0.021369
      dx2y2   :     0.028783
      dxy     :     0.040223

 19 N s       :     3.247001  s :     3.247001
      pz      :     1.121539  p :     3.773366
      px      :     1.477697
      py      :     1.174130
      dz2     :     0.008654  d :     0.056894
      dxz     :     0.012430
      dyz     :     0.010907
      dx2y2   :     0.010897
      dxy     :     0.014005

 20 H s       :     0.901679  s :     0.901679
      pz      :     0.013070  p :     0.068003
      px      :     0.039864
      py      :     0.015070

 21 H s       :     0.900171  s :     0.900171
      pz      :     0.028534  p :     0.068134
      px      :     0.025043
      py      :     0.014557

 22 H s       :     0.894057  s :     0.894057
      pz      :     0.040846  p :     0.071183
      px      :     0.015732
      py      :     0.014604

 23 H s       :     0.899681  s :     0.899681
      pz      :     0.029905  p :     0.069723
      px      :     0.026113
      py      :     0.013704

 24 H s       :     0.901098  s :     0.901098
      pz      :     0.038469  p :     0.068198
      px      :     0.014375
      py      :     0.015354

 25 H s       :     0.887769  s :     0.887769
      pz      :     0.043192  p :     0.072035
      px      :     0.016367
      py      :     0.012476

 26 H s       :     0.894558  s :     0.894558
      pz      :     0.021706  p :     0.068024
      px      :     0.014207
      py      :     0.032111

 27 H s       :     0.894104  s :     0.894104
      pz      :     0.017447  p :     0.069491
      px      :     0.021494
      py      :     0.030549

 28 H s       :     0.907724  s :     0.907724
      pz      :     0.041622  p :     0.066979
      px      :     0.014805
      py      :     0.010552

 29 H s       :     0.891396  s :     0.891396
      pz      :     0.027543  p :     0.070799
      px      :     0.023192
      py      :     0.020063

 30 H s       :     0.895271  s :     0.895271
      pz      :     0.013857  p :     0.068022
      px      :     0.037735
      py      :     0.016430

 31 H s       :     0.894696  s :     0.894696
      pz      :     0.020023  p :     0.069496
      px      :     0.015225
      py      :     0.034249

 32 H s       :     0.907789  s :     0.907789
      pz      :     0.025395  p :     0.066926
      px      :     0.025188
      py      :     0.016343



                      *****************************
                      * MAYER POPULATION ANALYSIS *
                      *****************************

  NA   - Mulliken gross atomic population
  ZA   - Total nuclear charge
  QA   - Mulliken gross atomic charge
  VA   - Mayer's total valence
  BVA  - Mayer's bonded valence
  FA   - Mayer's free valence

  ATOM       NA         ZA         QA         VA         BVA        FA
  0 C      5.9840     6.0000     0.0160     3.8248     3.8248    -0.0000
  1 C      5.9923     6.0000     0.0077     3.8316     3.8316    -0.0000
  2 C      6.0046     6.0000    -0.0046     3.9007     3.9007    -0.0000
[...]
      py      :     1.006964
      dz2     :     0.024179  d :     0.086900
      dxz     :     0.018743
      dyz     :     0.024044
      dx2y2   :     0.007721
      dxy     :     0.012212

 11 C s       :     2.882012  s :     2.882012
      pz      :     1.056193  p :     3.074786
      px      :     1.004543
      py      :     1.014051
      dz2     :     0.023447  d :     0.084161
      dxz     :     0.019443
      dyz     :     0.022428
      dx2y2   :     0.007342
      dxy     :     0.011501

 12 C s       :     2.873417  s :     2.873417
      pz      :     1.025126  p :     2.986327
      px      :     0.978981
      py      :     0.982219
      dz2     :     0.033961  d :     0.124530
      dxz     :     0.017366
      dyz     :     0.027862
      dx2y2   :     0.018586
      dxy     :     0.026756

 13 N s       :     3.230158  s :     3.230158
      pz      :     1.244222  p :     3.777640
      px      :     1.280866
      py      :     1.252552
      dz2     :     0.019383  d :     0.059528
      dxz     :     0.011684
      dyz     :     0.012244
      dx2y2   :     0.006884
      dxy     :     0.009334

 14 C s       :     2.922997  s :     2.922997
      pz      :     1.033361  p :     3.093829
      px      :     1.001061
      py      :     1.059406
      dz2     :     0.036471  d :     0.125418
      dxz     :     0.027485
      dyz     :     0.041403
      dx2y2   :     0.010124
      dxy     :     0.009935

 15 C s       :     2.881828  s :     2.881828
      pz      :     1.053343  p :     3.065866
      px      :     0.977701
      py      :     1.034822
      dz2     :     0.021912  d :     0.085731
      dxz     :     0.011135
      dyz     :     0.024344
      dx2y2   :     0.013034
      dxy     :     0.015307

 16 C s       :     2.875411  s :     2.875411
      pz      :     1.055125  p :     3.039555
      px      :     0.959821
      py      :     1.024609
      dz2     :     0.024483  d :     0.086900
      dxz     :     0.015449
      dyz     :     0.027416
      dx2y2   :     0.008162
      dxy     :     0.011390

 17 C s       :     2.881997  s :     2.881997
      pz      :     1.056490  p :     3.074811
      px      :     0.990293
      py      :     1.028028
      dz2     :     0.023525  d :     0.084164
      dxz     :     0.015886
      dyz     :     0.026062
      dx2y2   :     0.008501
      dxy     :     0.010190

 18 C s       :     2.873420  s :     2.873420
      pz      :     1.025076  p :     2.986359
      px      :     0.963566
      py      :     0.997717
      dz2     :     0.034527  d :     0.124536
      dxz     :     0.012381
      dyz     :     0.032623
      dx2y2   :     0.020277
      dxy     :     0.024727

 19 N s       :     3.230160  s :     3.230160
      pz      :     1.240726  p :     3.777741
      px      :     1.221327
      py      :     1.315687
      dz2     :     0.019431  d :     0.059517
      dxz     :     0.010783
      dyz     :     0.013398
      dx2y2   :     0.007891
      dxy     :     0.008013

 20 H s       :     0.901498  s :     0.901498
      pz      :     0.011967  p :     0.065696
      px      :     0.039936
      py      :     0.013793

 21 H s       :     0.900441  s :     0.900441
      pz      :     0.028393  p :     0.065882
      px      :     0.023507
      py      :     0.013982

 22 H s       :     0.893431  s :     0.893431
      pz      :     0.039752  p :     0.069939
      px      :     0.016950
      py      :     0.013238

 23 H s       :     0.893158  s :     0.893158
      pz      :     0.029849  p :     0.072705
      px      :     0.029151
      py      :     0.013706

 24 H s       :     0.901159  s :     0.901159
      pz      :     0.037746  p :     0.065858
      px      :     0.014189
      py      :     0.013923

 25 H s       :     0.885621  s :     0.885621
      pz      :     0.044023  p :     0.071369
      px      :     0.012628
      py      :     0.014718

 26 H s       :     0.894530  s :     0.894530
      pz      :     0.019525  p :     0.065775
      px      :     0.024429
      py      :     0.021821

 27 H s       :     0.894515  s :     0.894515
      pz      :     0.018079  p :     0.067001
      px      :     0.019341
      py      :     0.029581

 28 H s       :     0.907457  s :     0.907457
      pz      :     0.041281  p :     0.064249
      px      :     0.012340
      py      :     0.010628

 29 H s       :     0.885623  s :     0.885623
      pz      :     0.044345  p :     0.071376
      px      :     0.013079
      py      :     0.013952

 30 H s       :     0.894517  s :     0.894517
      pz      :     0.019223  p :     0.065777
      px      :     0.020595
      py      :     0.025959

 31 H s       :     0.894502  s :     0.894502
      pz      :     0.018433  p :     0.067002
      px      :     0.016352
      py      :     0.032217

 32 H s       :     0.907457  s :     0.907457
      pz      :     0.041432  p :     0.064247
      px      :     0.013183
      py      :     0.009632



                      *****************************
                      * MAYER POPULATION ANALYSIS *
                      *****************************

  NA   - Mulliken gross atomic population
  ZA   - Total nuclear charge
  QA   - Mulliken gross atomic charge
  VA   - Mayer's total valence
  BVA  - Mayer's bonded valence
  FA   - Mayer's free valence

  ATOM       NA         ZA         QA         VA         BVA        FA
  0 C      5.9884     6.0000     0.0116     3.8241     3.8241    -0.0000
  1 C      6.0058     6.0000    -0.0058     3.8371     3.8371    -0.0000
  2 C      5.9962     6.0000     0.0038     3.8789     3.8789    -0.0000
  3 C      6.1592     6.0000    -0.1592     3.7987     3.7987    -0.0000
  4 C      5.9737     6.0000     0.0263     3.8555     3.8555    -0.0000
  5 C      6.0023     6.0000    -0.0023     3.8329     3.8329    -0.0000
  6 P     14.3151    15.0000     0.6849     4.5865     4.5865    -0.0000
  7 O      8.4576     8.0000    -0.4576     2.1607     2.1607    -0.0000
  8 C      6.1784     6.0000    -0.1784     3.9088     3.9088    -0.0000
  9 C      5.9797     6.0000     0.0203     3.8626     3.8626    -0.0000
 10 C      5.9615     6.0000     0.0385     3.8745     3.8745    -0.0000
 11 C      6.0168     6.0000    -0.0168     3.8389     3.8389    -0.0000
 12 C      5.9803     6.0000     0.0197     4.0109     4.0109    -0.0000
 13 N      7.0624     7.0000    -0.0624     3.2020     3.2020    -0.0000
 14 C      6.1784     6.0000    -0.1784     3.9086     3.9086    -0.0000
 15 C      5.9796     6.0000     0.0204     3.8626     3.8626    -0.0000
 16 C      5.9617     6.0000     0.0383     3.8746     3.8746    -0.0000
 17 C      6.0167     6.0000    -0.0167     3.8387     3.8387    -0.0000
 18 C      5.9805     6.0000     0.0195     4.0110     4.0110    -0.0000
 19 N      7.0625     7.0000    -0.0625     3.2019     3.2019    -0.0000
 20 H      0.9949     1.0000     0.0051     0.9784     0.9784    -0.0000
 21 H      0.9939     1.0000     0.0061     0.9797     0.9797    -0.0000
 22 H      0.9824     1.0000     0.0176     1.0148     1.0148    -0.0000
 23 H      0.9733     1.0000     0.0267     1.0486     1.0486    -0.0000
 24 H      0.9967     1.0000     0.0033     0.9795     0.9795    -0.0000
 25 H      0.9681     1.0000     0.0319     1.0197     1.0197    -0.0000
 26 H      0.9772     1.0000     0.0228     0.9811     0.9811    -0.0000
 27 H      0.9812     1.0000     0.0188     0.9833     0.9833    -0.0000
 28 H      0.9744     1.0000     0.0256     0.9813     0.9813    -0.0000
 29 H      0.9682     1.0000     0.0318     1.0198     1.0198     0.0000
 30 H      0.9771     1.0000     0.0229     0.9811     0.9811     0.0000
 31 H      0.9812     1.0000     0.0188     0.9833     0.9833     0.0000
 32 H      0.9744     1.0000     0.0256     0.9813     0.9813    -0.0000

  Mayer bond orders larger than 0.100000
B(  0-C ,  1-C ) :   1.3849 B(  0-C ,  5-C ) :   1.3747 B(  0-C , 20-H ) :   0.9755 
B(  1-C ,  2-C ) :   1.3686 B(  1-C , 21-H ) :   0.9781 B(  2-C ,  3-C ) :   1.3809 
B(  2-C , 22-H ) :   0.9722 B(  3-C ,  4-C ) :   1.3677 B(  3-C ,  6-P ) :   0.8928 
B(  4-C ,  5-C ) :   1.3790 B(  4-C , 23-H ) :   0.9564 B(  5-C , 24-H ) :   0.9763 
B(  6-P ,  7-O ) :   1.8848 B(  6-P ,  8-C ) :   0.8331 B(  6-P , 14-C ) :   0.8331 
B(  8-C ,  9-C ) :   1.3716 B(  8-C , 13-N ) :   1.4928 B(  9-C , 10-C ) :   1.3834 
B(  9-C , 25-H ) :   0.9559 B( 10-C , 11-C ) :   1.4117 B( 10-C , 26-H ) :   0.9731 
B( 11-C , 12-C ) :   1.3668 B( 11-C , 27-H ) :   0.9626 B( 12-C , 13-N ) :   1.5245 
B( 12-C , 28-H ) :   0.9633 B( 14-C , 15-C ) :   1.3717 B( 14-C , 19-N ) :   1.4923 
B( 15-C , 16-C ) :   1.3833 B( 15-C , 29-H ) :   0.9560 B( 16-C , 17-C ) :   1.4118 
B( 16-C , 30-H ) :   0.9731 B( 17-C , 18-C ) :   1.3666 B( 17-C , 31-H ) :   0.9626 
B( 18-C , 19-N ) :   1.5246 B( 18-C , 32-H ) :   0.9633 

-------
TIMINGS
-------

Total SCF time: 0 days 0 hours 0 min 6 sec 

Total time                  ....       6.202 sec
Sum of individual times     ....       5.987 sec  ( 96.5%)

SCF preparation             ....       0.118 sec  (  1.9%)
Fock matrix formation       ....       5.256 sec  ( 84.7%)
  Startup                   ....       0.026 sec  (  0.5% of F)
  Split-RI-J                ....       1.833 sec  ( 34.9% of F)
  XC integration            ....       3.292 sec  ( 62.6% of F)
    Basis function eval.    ....       1.004 sec  ( 30.5% of XC)
    Density eval.           ....       1.003 sec  ( 30.5% of XC)
    XC-Functional eval.     ....       0.096 sec  (  2.9% of XC)
    XC-Potential eval.      ....       0.645 sec  ( 19.6% of XC)
Diagonalization             ....       0.000 sec  (  0.0%)
Density matrix formation    ....       0.062 sec  (  1.0%)
Total Energy calculation    ....       0.024 sec  (  0.4%)
Population analysis         ....       0.165 sec  (  2.7%)
Orbital Transformation      ....       0.069 sec  (  1.1%)
Orbital Orthonormalization  ....       0.000 sec  (  0.0%)
DIIS solution               ....       0.043 sec  (  0.7%)
SOSCF solution              ....       0.250 sec  (  4.0%)
Finished LeanSCF after   6.3 sec

Maximum memory used throughout the entire LEANSCF-calculation: 35.8 MB


-------------------------------------------------------------------------------
                          DFT DISPERSION CORRECTION                            
                                                                               
                              DFTD3 V3.1  Rev 1                                
                          USING Becke-Johnson damping                          
-------------------------------------------------------------------------------
The BP86 functional is recognized
Active option DFTDOPT                   ...         4   

molecular C6(AA) [au] = 16248.295755 


            DFT-D V3
 parameters
 s6 scaling factor         :     1.0000 
 a1 scaling factor         :     0.3946 
 s8 scaling factor         :     3.2822 
 a2 scaling factor         :     4.8516 
 ad hoc parameters k1-k3   :    16.0000     1.3333    -4.0000 

 Edisp/kcal,au: -49.131750063131  -0.078296419182 
 E6   /kcal   : -17.715645326 
 E8   /kcal   : -31.416104737 
 % E8         :  63.942572160 

-------------------------   ----------------
Dispersion correction           -0.078296419
-------------------------   ----------------


-------------------------   --------------------
FINAL SINGLE POINT ENERGY     -1143.060546851314
-------------------------   --------------------

                                *** OPTIMIZATION RUN DONE ***



           ************************************************************
           *        Program running with 6 parallel MPI-processes     *
           *              working on a common directory               *
           ************************************************************

------------------------------------------------------------------------------
                              ORCA PROPERTY CALCULATIONS
------------------------------------------------------------------------------

GBWName                                 ... data/geom_opt_PO_BP86/603962/603962.gbw
Number of atoms                         ...     33
Number of basis functions               ...    349
Max core memory                         ...   1024 MB

Electric properties:
Dipole moment                           ... YES
Quadrupole moment                       ...  NO
Static polarizability (Dipole/Dipole)   ...  NO
Static polarizability (Dipole/Quad.)    ...  NO
Static polarizability (Quad./Quad.)     ...  NO
Static polarizability (Velocity)        ...  NO

Atomic electric properties:
Dipole moment                           ...  NO
Quadrupole moment                       ...  NO
Static polarizability                   ...  NO

Choice of electric origin               ... Center of mass
Position of electric origin             ...    -0.098338     0.010189    -0.269547

General magnetic properties:
Magnetizability                         ...  NO

EPR properties:
g-Tensor (aka g-matrix)                 ...  NO
Zero-Field splitting spin-orbit         ...  NO
Zero-field splitting spin-spin          ...  NO
Hyperfine couplings                     ...  NO (   0 nuclei)
Quadrupole couplings                    ...  NO (   0 nuclei)
Contact density                         ...  NO (   0 nuclei)

NMR properties:
Chemical shifts                         ...  NO (   0 nuclei)
Spin-rotation constants                 ...  NO (   0 nuclei)
Spin-spin couplings                     ...  NO (   0 nuclei,    0 pairs)

Choice of magnetic origin               ... GIAO
Position of magnetic origin             ...     0.000000     0.000000     0.000000

Properties with geometric perturbations:
SCF Hessian                             ...  NO
IR spectrum                             ...  NO
VCD spectrum                            ...  NO
X-ray spectroscopy properties:
SCF XES/XAS/RIXS spectra                ...  NO


-------------
DIPOLE MOMENT
-------------

Method             : SCF
Type of density    : Electron Density
Multiplicity       :   1
Irrep              :   0
Energy             : -1142.9822504321311953 Eh
Relativity type    : 
Basis              : AO
                                X                 Y                 Z
Electronic contribution:     -1.995256670       0.189703451      -2.856664054
Nuclear contribution   :      1.313091047      -0.135518973       3.742865449
                        -----------------------------------------
Total Dipole Moment    :     -0.682165623       0.054184478       0.886201395
                        -----------------------------------------
Magnitude (a.u.)       :      1.119660131
Magnitude (Debye)      :      2.845949881



--------------------
Rotational spectrum 
--------------------
 
Rotational constants in cm-1:             0.011015             0.010467             0.007205 
Rotational constants in MHz :           330.227546           313.780581           216.015426 

Dipole components along the rotational axes: 
x,y,z [a.u.] :     0.807893     0.003180     0.775202 
x,y,z [Debye]:     2.053501     0.008084     1.970406 

 

Dipole moment calculation done in   0.0 sec 

Maximum memory used throughout the entire PROP-calculation: 18.2 MB

--------------------------------
SUGGESTED CITATIONS FOR THIS RUN
--------------------------------

Below you find a list of papers that are relevant to this ORCA run
We neither can nor want to force you to cite these papers, but we appreciate if you do
You receive ORCA, which is the product of decades of hard work by many enthusiastic individuals, for free
The only thing we kindly ask in return is that you cite our papers,
We deeply appreciate it, if you show your appreciation for ORCA by not just citing the generic ORCA reference.

Please note that relegating all ORCA citations to the supporting information does *not* help us.
SI sections are not indexed - citations you put there will not count into any citation statistics
But we need these citations in order to attract the funding resources that allow us to do what we are doing

Therefore, if you are a happy ORCA user, please consider citing a few of the papers listed below in the main body of your paper

In addition to the list printed below, the program has created the file data/geom_opt_PO_BP86/603962/603962.bibtex that contains the list in bibtex format
You can import this file easily into all common literature databanks and citation aid programs


List of essential papers. We consider these as the minimum necessary citations

  1. Neese,F.
     Software update: the ORCA program system, version 5.0
     WIRES Comput. Molec. Sci., 2022 12(1)e1606
     doi.org/10.1002/wcms.1606

List of papers to cite with high priority. The work reported in these papers was absolutely
necessary for this run to complete.
Our perspective: the developers of density functionals and basis sets usually get cited in chemistry papers
Good! But without the algorithms to do something with them, the functionals or basis sets would not do anything.
Hence, in our opinion, the algorithm design and method developments papers are equally worthy of getting cited

  1. Neese,F.
     An improvement of the resolution of the identity approximation for the formation of the Coulomb matrix
     J. Comp. Chem., 2003 24(14)1740-1747
     doi.org/10.1002/jcc.10318
  2. Neese,F.
     The SHARK Integral Generation and Digestion System
     J. Comp. Chem., 2022  1-16
     doi.org/10.1002/jcc.26942
  3. Grimme,S.; Antony,J.; Ehrlich,S.; Krieg,H.
     A consistent and accurate ab initio parametrization of density functional dispersion correction (DFT-D) for the 94 elements H-Pu
     J. Chem. Phys., 2010 132 154104-XXXX
     doi.org/10.1063/1.3382344
  4. Grimme,S.; Ehrlich,S.; Goerigk,L.
     Effect of the damping function in dispersion corrected density functional theory
     J. Comput. Chem., 2011 32(7)1456-1465
     doi.org/10.1002/jcc.21759

List of suggested additional citations. These are papers that are important in the 'surrounding' of 
of this run, or papers that preceded the highly important papers. If you like your results we are grateful for a citation.

  1. Neese,F.
     The ORCA program system
     WIRES Comput. Molec. Sci., 2012 2(1)73-78
     doi.org/10.1002/wcms.81
  2. Neese,F.
     Software update: the ORCA program system, version 4.0
     WIRES Comput. Molec. Sci., 2018 8(1)1-6
     doi.org/10.1002/wcms.1327
  3. Neese,F.; Wennmohs,F.; Becker,U.; Riplinger,C.
     The ORCA quantum chemistry program package
     J. Chem. Phys., 2020 152 Art. No. L224108
     doi.org/10.1063/5.0004608

List of optional additional citations

  1. Neese,F.
     Approximate second-order SCF convergence for spin unrestricted wavefunctions
     Chem. Phys. Lett., 2000 325(1-3)93-98
     doi.org/10.1016/s0009-2614(00)00662-x

Timings for individual modules:

Sum of individual times          ...      180.055 sec (=   3.001 min)
Startup calculation              ...       14.675 sec (=   0.245 min)   8.2 %
SCF iterations                   ...      113.683 sec (=   1.895 min)  63.1 %
Property calculations            ...        0.199 sec (=   0.003 min)   0.1 %
SCF Gradient evaluation          ...       51.337 sec (=   0.856 min)  28.5 %
Geometry relaxation              ...        0.161 sec (=   0.003 min)   0.1 %
                             ****ORCA TERMINATED NORMALLY****
TOTAL RUN TIME: 0 days 0 hours 3 minutes 2 seconds 175 msec
