
                                 *****************
                                 * O   R   C   A *
                                 *****************

                                            #,                                       
                                            ###                                      
                                            ####                                     
                                            #####                                    
                                            ######                                   
                                           ########,                                 
                                     ,,################,,,,,                         
                               ,,#################################,,                 
                          ,,##########################################,,             
                       ,#########################################, ''#####,          
                    ,#############################################,,   '####,        
                  ,##################################################,,,,####,       
                ,###########''''           ''''###############################       
              ,#####''   ,,,,##########,,,,          '''####'''          '####       
            ,##' ,,,,###########################,,,                        '##       
           ' ,,###''''                  '''############,,,                           
         ,,##''                                '''############,,,,        ,,,,,,###''
      ,#''                                            '''#######################'''  
     '                                                          ''''####''''         
             ,#######,   #######,   ,#######,      ##                                
            ,#'     '#,  ##    ##  ,#'     '#,    #''#        ,####,   ,####,        
            ##       ##  ##   ,#'  ##            #'  '#       #'       #'  '#        
            ##       ##  #######   ##           ,######,      #####,   #    #        
            '#,     ,#'  ##    ##  '#,     ,#' ,#      #,     #,   #   #,  ,#        
             '#######'   ##     ##  '#######'  #'      '#     '####' # '####'        



                #########################################################
                #                        -***-                          #
                #          Department of theory and spectroscopy        #
                #                                                       #
                #                      Frank Neese                      #
                #                                                       #
                #     Directorship, Architecture, Infrastructure        #
                #                    SHARK, DRIVERS                     #
                #        Core code/Algorithms in most modules           #
                #                                                       #
                #        Max Planck Institute fuer Kohlenforschung      #
                #                Kaiser Wilhelm Platz 1                 #
                #                 D-45470 Muelheim/Ruhr                 #
                #                      Germany                          #
                #                                                       #
                #                  All rights reserved                  #
                #                        -***-                          #
                #########################################################


                         Program Version 6.0.0  -   RELEASE   -


 With contributions from (in alphabetic order):
   Daniel Aravena         : Magnetic Suceptibility
   Michael Atanasov       : Ab Initio Ligand Field Theory (pilot matlab implementation)
   Alexander A. Auer      : GIAO ZORA, VPT2 properties, NMR spectrum
   Ute Becker             : All parallelization in ORCA, NUMFREQ, NUMCALC
   Giovanni Bistoni       : ED, misc. LED, open-shell LED, HFLD
   Martin Brehm           : Molecular dynamics
   Dmytro Bykov           : pre 5.0 version of the SCF Hessian
   Marcos Casanova-Páez   : Triplet and SCS-CIS(D). UHF-(DLPNO)-IP/EA/STEOM-CCSD. UHF-CVS-IP/STEOM-CCSD
   Vijay G. Chilkuri      : MRCI spin determinant printing, contributions to CSF-ICE
   Pauline Colinet        : FMM embedding
   Dipayan Datta          : RHF DLPNO-CCSD density
   Achintya Kumar Dutta   : EOM-CC, STEOM-CC
   Nicolas Foglia         : Exact transition moments, OPA infrastructure, MCD improvements
   Dmitry Ganyushin       : Spin-Orbit,Spin-Spin,Magnetic field MRCI
   Miquel Garcia          : C-PCM and meta-GGA Hessian, CCSD/C-PCM, Gaussian charge scheme
   Tiago L. C. Gouveia    : GS-ROHF, GS-ROCIS
   Yang Guo               : DLPNO-NEVPT2, F12-NEVPT2, CIM, IAO-localization
   Andreas Hansen         : Spin unrestricted coupled pair/coupled cluster methods
   Ingolf Harden          : AUTO-CI MPn and infrastructure 
   Benjamin Helmich-Paris : MC-RPA, TRAH-(SCF,CASSCF), AVAS, COSX integrals, SCF dyn. polar.
   Lee Huntington         : MR-EOM, pCC
   Robert Izsak           : Overlap fitted RIJCOSX, COSX-SCS-MP3, EOM
   Riya Kayal             : Wick's Theorem for AUTO-CI, AUTO-CI UHF-CCSDT
   Emily Kempfer          : AUTO-CI, RHF CISDT and CCSDT
   Christian Kollmar      : KDIIS, OOCD, Brueckner-CCSD(T), CCSD density, CASPT2, CASPT2-K, improved NEVPT2
   Axel Koslowski         : Symmetry handling
   Simone Kossmann        : Meta GGA functionals, TD-DFT gradient, OOMP2, (MP2 Hessian; deprecated post 5.0)
   Lucas Lang             : DCDCAS
   Marvin Lechner         : AUTO-CI (C++ implementation), FIC-MRCC
   Spencer Leger          : CASSCF response
   Dagmar Lenk            : GEPOL surface, SMD, ORCA-2-JSON
   Dimitrios Liakos       : Extrapolation schemes; Compound Job, initial MDCI parallelization
   Dimitrios Manganas     : Further ROCIS development; embedding schemes. LFT, Crystal Embedding
   Dimitrios Pantazis     : SARC Basis sets
   Anastasios Papadopoulos: AUTO-CI, single reference methods and gradients
   Taras Petrenko         : pre 6.0 DFT Hessian and TD-DFT gradient, (ASA, deprecated), ECA, 1-Electron XAS/XES, NRVS
   Peter Pinski           : DLPNO-MP2, DLPNO-MP2 Gradient
   Christoph Reimann      : Effective Core Potentials
   Marius Retegan         : Local ZFS, SOC
   Christoph Riplinger    : Optimizer, TS searches, QM/MM, DLPNO-CCSD(T), (RO)-DLPNO pert. Triples
   Michael Roemelt        : Original ROCIS implementation
   Masaaki Saitow         : Open-shell DLPNO-CCSD energy and density
   Barbara Sandhoefer     : DKH picture change effects
   Kantharuban Sivalingam : CASSCF convergence/infrastructure, NEVPT2 and variants, FIC-MRCI
   Bernardo de Souza      : ESD, SOC TD-DFT
   Georgi Stoychev        : AutoAux, RI-MP2 NMR, DLPNO-MP2 response, X2C
   Van Anh Tran           : RI-MP2 g-tensors
   Willem Van den Heuvel  : Paramagnetic NMR
   Zikuan Wang            : NOTCH, Electric field optimization 
   Frank Wennmohs         : Technical directorship and infrastructure
   Hang Xu                : AUTO-CI-Response properties 


 We gratefully acknowledge several colleagues who have allowed us to
 interface, adapt or use parts of their codes:
   Stefan Grimme, W. Hujo, H. Kruse, P. Pracht,  : VdW corrections, initial TS optimization,
                  C. Bannwarth, S. Ehlert,         DFT functionals, gCP, sTDA/sTD-DF
                  L. Wittmann, M. Mueller
   Ed Valeev, F. Pavosevic, A. Kumar             : LibInt (2-el integral package), F12 methods
   Garnet Chan, S. Sharma, J. Yang, R. Olivares  : DMRG
   Ulf Ekstrom                                   : XCFun DFT Library
   Mihaly Kallay                                 : mrcc  (arbitrary order and MRCC methods)
   Frank Weinhold                                : gennbo (NPA and NBO analysis)
   Simon Mueller                                 : openCOSMO-RS
   Christopher J. Cramer and Donald G. Truhlar   : smd solvation model
   Lars Goerigk                                  : TD-DFT with DH, B97 family of functionals
   V. Asgeirsson, H. Jonsson                     : NEB implementation
   FAccTs GmbH                                   : IRC, NEB, NEB-TS, DLPNO-Multilevel, CI-OPT
                                                   MM, QMMM, 2- and 3-layer-ONIOM, Crystal-QMMM,
                                                   LR-CPCM, SF, NACMEs, symmetry and pop. for TD-DFT,
                                                   nearIR, NL-DFT gradient (VV10), updates on ESD,
                                                   ML-optimized integration grids, MBIS, APM,
                                                   GOAT, DOCKER, SOLVATOR, interface openCOSMO-RS
   S Lehtola, MJT Oliveira, MAL Marques          : LibXC Library
   Liviu Ungur et al                             : ANISO software


 Your calculation uses the libint2 library for the computation of 2-el integrals
 For citations please refer to: http://libint.valeyev.net

 Your ORCA version has been built with support for libXC version: 6.2.2
 For citations please refer to: https://libxc.gitlab.io

 This ORCA versions uses:
   CBLAS   interface :  Fast vector & matrix operations
   LAPACKE interface :  Fast linear algebra routines
   Shared memory     :  Shared parallel matrices


Your calculation utilizes the atom-pairwise dispersion correction
with the zero-damping scheme (D30)


XCFun DFT library Copyright 2009-2010 Ulf Ekstrom and contributors.
See http://admol.org/xcfun for more information.
This is free software; see the source code for copying conditions.
There is ABSOLUTELY NO WARRANTY; not even for MERCHANTABILITY or FITNESS FOR A PARTICULAR PURPOSE.
For details see the documentation.
Scientific users of this library should cite U. Ekstrom, L. Visscher, R. Bast, A. J. Thorvaldsen and K. Ruud;
J.Chem.Theor.Comp. 2010, DOI: 10.1021/ct100117s
XCFun Version 0.99 

Warning: RI is on but no J-basis has been assigned. Assigning Def2/J (nothing to worry about!)
================================================================================

----- Orbital basis set information -----
Your calculation utilizes the basis: def2-TZVP
   F. Weigend and R. Ahlrichs, Phys. Chem. Chem. Phys. 7, 3297 (2005).

----- AuxJ basis set information -----
Your calculation utilizes the auxiliary basis: def2/J
   F. Weigend, Phys. Chem. Chem. Phys. 8, 1057 (2006).

================================================================================
                                        WARNINGS
                       Please study these warnings very carefully!
================================================================================

WARNING: Functional chosen is sensitive to the integration grid.
         DEFGRID3 seems to be a minimum grid for robust results!

================================================================================
                                       INPUT FILE
================================================================================
NAME = data/single_point_PO_M06-2x/87708/87708.inp
|  1> ! RIJCOSX M062X def2-TZVP D3ZERO NormalSCF
|  2> %pal
|  3> nprocs 6
|  4> end
|  5> 
|  6> * xyz 0 1
|  7>   C          -1.57037256683028      2.73781183728659     -2.33228087372056
|  8>   C          -1.73375986871660      1.83707527580790     -1.11843106113723
|  9>   O          -1.34523674881880      0.50409346499908     -1.47371109922423
| 10>   Si         -1.85676592309105     -0.91189746223692     -0.76803553412360
| 11>   C          -0.43969250449351     -2.01319400689560     -0.19837911965433
| 12>   C           0.44437159141746     -1.62720446290064      0.99600648616992
| 13>   P           1.13902236861076      0.08062163535387      0.98080847357808
| 14>   O           0.14466752621424      1.18448765150269      1.32849857755006
| 15>   C           2.50509066147035      0.02935271182651      2.20435035907534
| 16>   C           3.63194078405724     -0.80795312393611      2.07617503605588
| 17>   C           4.63073194015250     -0.79406310424154      3.06142899162886
| 18>   C           4.50971258023782      0.05734532922999      4.17443902773565
| 19>   C           3.39118124487887      0.89821641654113      4.29930308066730
| 20>   C           2.38897463564596      0.88696051921276      3.31565257636774
| 21>   C           1.92557184133062      0.31709550755473     -0.65072986816804
| 22>   C           1.87477748452939      1.61220235691764     -1.20119768979063
| 23>   C           2.46185463833522      1.86745924240405     -2.44895473643467
| 24>   C           3.09701023149345      0.83090117851779     -3.15422624677235
| 25>   C           3.14850093580826     -0.46289741894089     -2.60853286818665
| 26>   C           2.56491935155056     -0.72122272745538     -1.35806117367338
| 27>   O          -2.53838534438473     -1.85231535956462     -1.97322002580283
| 28>   C          -3.40686509396487     -1.33576903032584     -2.97811503013769
| 29>   C          -4.81281456580691     -1.06201943342633     -2.44936349013478
| 30>   O          -2.98923097301901     -0.53633013449276      0.39972136627977
| 31>   C          -3.06025571777297     -0.96854785127097      1.75327163774529
| 32>   C          -2.72210690107376      0.17020383681570      2.70702649776211
| 33>   H          -2.22844289531566      2.41271663377477     -3.16436440989469
| 34>   H          -1.82474282858569      3.78695959833857     -2.07583102326619
| 35>   H          -0.52407913943403      2.70991615347292     -2.69841563471820
| 36>   H          -2.78568072892272      1.84563757644950     -0.75669957057431
| 37>   H          -1.09843526190402      2.16827428159082     -0.27017470297437
| 38>   H           0.18129220164553     -2.12888339406793     -1.11238440971784
| 39>   H          -0.88158612805149     -3.01778944081122     -0.02157410044219
| 40>   H           1.29678651197714     -2.33138238668096      1.11238485129505
| 41>   H          -0.11113433258602     -1.66488076964294      1.95738317917970
| 42>   H           3.74287089942851     -1.46406551493016      1.19881409838370
| 43>   H           5.51114342086058     -1.44687732175348      2.95901976601700
| 44>   H           5.29553994063507      0.06746415399603      4.94535294386429
| 45>   H           3.29965600324811      1.56930506308167      5.16721081938875
| 46>   H           1.50598384102450      1.54143146203505      3.38143124021142
| 47>   H           1.35733553939025      2.40541698429420     -0.64130183025549
| 48>   H           2.41825232213354      2.88020123346787     -2.87807809781258
| 49>   H           3.55108783904708      1.03067038224905     -4.13684919373011
| 50>   H           3.63988030457482     -1.27714272506554     -3.16264650014983
| 51>   H           2.60162335320020     -1.74149156013475     -0.94547974403201
| 52>   H          -3.44321001035133     -2.09158610440976     -3.79292997617640
| 53>   H          -2.97171313918303     -0.40591403315805     -3.41309386829824
| 54>   H          -4.79431326560430     -0.29091374828352     -1.65266931255097
| 55>   H          -5.25195233836803     -1.98279786100226     -2.01436236969254
| 56>   H          -5.47712575834781     -0.70844094454820     -3.26527130752541
| 57>   H          -2.37780328469429     -1.83461241844518      1.92841901490750
| 58>   H          -4.09181772203398     -1.34538795824694      1.93542111870109
| 59>   H          -3.43411228840798      1.00909993113123      2.56907478287223
| 60>   H          -1.70144833796328      0.55431173341489      2.50211553468902
| 61>   H          -2.78669332517190     -0.16965385439853      3.76205340864665
| 62> **                         ****END OF INPUT****
================================================================================

                       ****************************
                       * Single Point Calculation *
                       ****************************

---------------------------------
CARTESIAN COORDINATES (ANGSTROEM)
---------------------------------
  C     -1.570373    2.737812   -2.332281
  C     -1.733760    1.837075   -1.118431
  O     -1.345237    0.504093   -1.473711
  Si    -1.856766   -0.911897   -0.768036
  C     -0.439693   -2.013194   -0.198379
  C      0.444372   -1.627204    0.996006
  P      1.139022    0.080622    0.980808
  O      0.144668    1.184488    1.328499
  C      2.505091    0.029353    2.204350
  C      3.631941   -0.807953    2.076175
  C      4.630732   -0.794063    3.061429
  C      4.509713    0.057345    4.174439
  C      3.391181    0.898216    4.299303
  C      2.388975    0.886961    3.315653
  C      1.925572    0.317096   -0.650730
  C      1.874777    1.612202   -1.201198
  C      2.461855    1.867459   -2.448955
  C      3.097010    0.830901   -3.154226
  C      3.148501   -0.462897   -2.608533
  C      2.564919   -0.721223   -1.358061
  O     -2.538385   -1.852315   -1.973220
  C     -3.406865   -1.335769   -2.978115
  C     -4.812815   -1.062019   -2.449363
  O     -2.989231   -0.536330    0.399721
  C     -3.060256   -0.968548    1.753272
  C     -2.722107    0.170204    2.707026
  H     -2.228443    2.412717   -3.164364
  H     -1.824743    3.786960   -2.075831
  H     -0.524079    2.709916   -2.698416
  H     -2.785681    1.845638   -0.756700
  H     -1.098435    2.168274   -0.270175
  H      0.181292   -2.128883   -1.112384
  H     -0.881586   -3.017789   -0.021574
  H      1.296787   -2.331382    1.112385
  H     -0.111134   -1.664881    1.957383
  H      3.742871   -1.464066    1.198814
  H      5.511143   -1.446877    2.959020
  H      5.295540    0.067464    4.945353
  H      3.299656    1.569305    5.167211
  H      1.505984    1.541431    3.381431
  H      1.357336    2.405417   -0.641302
  H      2.418252    2.880201   -2.878078
  H      3.551088    1.030670   -4.136849
  H      3.639880   -1.277143   -3.162647
  H      2.601623   -1.741492   -0.945480
  H     -3.443210   -2.091586   -3.792930
  H     -2.971713   -0.405914   -3.413094
  H     -4.794313   -0.290914   -1.652669
  H     -5.251952   -1.982798   -2.014362
  H     -5.477126   -0.708441   -3.265271
  H     -2.377803   -1.834612    1.928419
  H     -4.091818   -1.345388    1.935421
  H     -3.434112    1.009100    2.569075
  H     -1.701448    0.554312    2.502116
  H     -2.786693   -0.169654    3.762053

----------------------------
CARTESIAN COORDINATES (A.U.)
----------------------------
  NO LB      ZA    FRAG     MASS         X           Y           Z
   0 C     6.0000    0    12.011   -2.967574    5.173715   -4.407372
   1 C     6.0000    0    12.011   -3.276331    3.471569   -2.113528
   2 O     8.0000    0    15.999   -2.542129    0.952599   -2.784910
   3 Si   14.0000    0    28.086   -3.508779   -1.723236   -1.451377
   4 C     6.0000    0    12.011   -0.830898   -3.804385   -0.374882
   5 C     6.0000    0    12.011    0.839741   -3.074971    1.882179
   6 P    15.0000    0    30.974    2.152440    0.152353    1.853459
   7 O     8.0000    0    15.999    0.273382    2.238357    2.510498
   8 C     6.0000    0    12.011    4.733935    0.055469    4.165618
   9 C     6.0000    0    12.011    6.863373   -1.526810    3.923402
  10 C     6.0000    0    12.011    8.750815   -1.500562    5.785262
  11 C     6.0000    0    12.011    8.522122    0.108367    7.888547
  12 C     6.0000    0    12.011    6.408404    1.697383    8.124505
  13 C     6.0000    0    12.011    4.514508    1.676112    6.265675
  14 C     6.0000    0    12.011    3.638803    0.599224   -1.229701
  15 C     6.0000    0    12.011    3.542816    3.046621   -2.269935
  16 C     6.0000    0    12.011    4.652231    3.528987   -4.627854
  17 C     6.0000    0    12.011    5.852501    1.570176   -5.960624
  18 C     6.0000    0    12.011    5.949805   -0.874749   -4.929413
  19 C     6.0000    0    12.011    4.846995   -1.362913   -2.566364
  20 O     8.0000    0    15.999   -4.796853   -3.500369   -3.728845
  21 C     6.0000    0    12.011   -6.438042   -2.524238   -5.627822
  22 C     6.0000    0    12.011   -9.094901   -2.006926   -4.628626
  23 O     8.0000    0    15.999   -5.648828   -1.013517    0.755364
  24 C     6.0000    0    12.011   -5.783045   -1.830290    3.313203
  25 C     6.0000    0    12.011   -5.144037    0.321639    5.115539
  26 H     1.0000    0     1.008   -4.211147    4.559374   -5.979782
  27 H     1.0000    0     1.008   -3.448264    7.156317   -3.922752
  28 H     1.0000    0     1.008   -0.990366    5.120999   -5.099267
  29 H     1.0000    0     1.008   -5.264174    3.487750   -1.429955
  30 H     1.0000    0     1.008   -2.075742    4.097445   -0.510556
  31 H     1.0000    0     1.008    0.342593   -4.023007   -2.102102
  32 H     1.0000    0     1.008   -1.665956   -5.702796   -0.040769
  33 H     1.0000    0     1.008    2.450571   -4.405674    2.102103
  34 H     1.0000    0     1.008   -0.210013   -3.146169    3.698918
  35 H     1.0000    0     1.008    7.073001   -2.766683    2.265430
  36 H     1.0000    0     1.008   10.414552   -2.734202    5.591737
  37 H     1.0000    0     1.008   10.007120    0.127489    9.345363
  38 H     1.0000    0     1.008    6.235446    2.965557    9.764613
  39 H     1.0000    0     1.008    2.845897    2.912883    6.389979
  40 H     1.0000    0     1.008    2.564992    4.545579   -1.211885
  41 H     1.0000    0     1.008    4.569835    5.442792   -5.438779
  42 H     1.0000    0     1.008    6.710583    1.947685   -7.817512
  43 H     1.0000    0     1.008    6.878377   -2.413450   -5.976536
  44 H     1.0000    0     1.008    4.916356   -3.290942   -1.786698
  45 H     1.0000    0     1.008   -6.506724   -3.952525   -7.167599
  46 H     1.0000    0     1.008   -5.615724   -0.767066   -6.449813
  47 H     1.0000    0     1.008   -9.059939   -0.549747   -3.123092
  48 H     1.0000    0     1.008   -9.924752   -3.746945   -3.806593
  49 H     1.0000    0     1.008  -10.350268   -1.338759   -6.170469
  50 H     1.0000    0     1.008   -4.493397   -3.466915    3.644184
  51 H     1.0000    0     1.008   -7.732415   -2.542415    3.657416
  52 H     1.0000    0     1.008   -6.489532    1.906923    4.854848
  53 H     1.0000    0     1.008   -3.215271    1.047497    4.728313
  54 H     1.0000    0     1.008   -5.266087   -0.320599    7.109251

--------------------------------
INTERNAL COORDINATES (ANGSTROEM)
--------------------------------
 C      0   0   0     0.000000000000     0.00000000     0.00000000
 C      1   0   0     1.520346385239     0.00000000     0.00000000
 O      2   1   0     1.433183389558   108.90372555     0.00000000
 Si     3   2   1     1.662729805268   127.11791250   205.49254638
 C      4   3   2     1.882939081202   113.26339745   233.60465761
 C      5   4   3     1.535289623867   121.44459222    70.07358396
 P      6   5   4     1.843757213876   116.32177480   310.04849395
 O      7   6   5     1.525827690995   115.00594050    75.48891277
 C      7   6   5     1.834618714840   104.42746275   197.00613566
 C      9   7   6     1.409716700195   123.44644611    61.50066625
 C     10   9   7     1.403033165365   119.95427997   180.40718369
 C     11  10   9     1.406532383749   120.02832508   359.82386313
 C     12  11  10     1.404908383266   120.07499350   359.78914469
 C     13  12  11     1.404319442799   120.07521286     0.23716839
 C      7   6   5     1.826608147868   106.82882642   309.24361062
 C     15   7   6     1.408153628192   116.91719599   146.35202952
 C     16  15   7     1.402395561017   120.00739213   179.80002832
 C     17  16  15     1.405447669115   120.09428178     0.24542872
 C     18  17  16     1.405114716615   120.05135058   359.81355697
 C     19  18  17     1.403915556322   120.00720474     0.00000000
 O      4   3   2     1.673756408825   107.34801728   122.65982088
 C     21   4   3     1.425093384806   123.52230902   317.33450471
 C     22  21   4     1.526830360659   112.45530422   283.97312139
 O      4   3   2     1.669486174072   108.29855315     3.07505603
 C     24   4   3     1.422657726387   129.12490594   229.35542562
 C     25  24   4     1.523400263345   110.94526903   108.50372568
 H      1   2   3     1.109552369089   111.18736146    61.95603673
 H      1   2   3     1.109586310471   110.54964812   182.31469952
 H      1   2   3     1.108856513981   110.49496741   302.37247720
 H      2   1   3     1.112412010181   110.89681359   238.66148851
 H      2   1   3     1.110346336337   111.82261658   119.47382948
 H      5   4   3     1.111040822754   103.45345705   305.93070018
 H      5   4   3     1.111639318846   106.11193681   195.67480330
 H      6   5   4     1.111765114132   111.32731112   186.62093586
 H      6   5   4     1.110968713131   112.13258929    68.37717594
 H     10   9   7     1.101159014432   120.45551417     1.33518103
 H     11  10   9     1.100808079294   119.87779372   180.12726268
 H     12  11  10     1.100879329011   119.88635306   180.09259947
 H     13  12  11     1.100909026352   120.07296756   180.39324856
 H     14  13  12     1.101059394857   121.71587691   180.59531708
 H     16  15   7     1.100190431334   118.75888018   358.97005538
 H     17  16  15     1.100769894993   119.84992986   179.83504263
 H     18  17  16     1.100746139820   120.03562870   179.55463169
 H     19  18  17     1.100677527581   120.13294336   179.60409213
 H     20  19  18     1.101144454992   119.36461075   179.32215562
 H     22  21   4     1.111981923734   106.87295940   162.90529642
 H     22  21   4     1.114986156486   109.84828783    47.06756945
 H     23  22  21     1.108903913044   110.98461527    62.26904076
 H     23  22  21     1.109008958830   110.58510423   302.94554208
 H     23  22  21     1.109969672924   110.71160520   182.76834829
 H     25  24   4     1.116461267423   110.75743726   345.73653926
 H     25  24   4     1.113241693557   107.74466002   230.03956953
 H     26  25  24     1.108931469610   110.18663446    59.90841853
 H     26  25  24     1.109626640572   110.32317554   300.99073534
 H     26  25  24     1.110295653934   110.68217109   179.55127115

---------------------------
INTERNAL COORDINATES (A.U.)
---------------------------
 C      0   0   0     0.000000000000     0.00000000     0.00000000
 C      1   0   0     2.873038296800     0.00000000     0.00000000
 O      2   1   0     2.708324105950   108.90372555     0.00000000
 Si     3   2   1     3.142103966665   127.11791250   205.49254638
 C      4   3   2     3.558239190330   113.26339745   233.60465761
 C      5   4   3     2.901276925359   121.44459222    70.07358396
 P      6   5   4     3.484196191668   116.32177480   310.04849395
 O      7   6   5     2.883396463533   115.00594050    75.48891277
 C      7   6   5     3.466926931215   104.42746275   197.00613566
 C      9   7   6     2.663978489783   123.44644611    61.50066625
 C     10   9   7     2.651348439348   119.95427997   180.40718369
 C     11  10   9     2.657961003777   120.02832508   359.82386313
 C     12  11  10     2.654892087622   120.07499350   359.78914469
 C     13  12  11     2.653779151431   120.07521286     0.23716839
 C      7   6   5     3.451789153459   106.82882642   309.24361062
 C     15   7   6     2.661024711771   116.91719599   146.35202952
 C     16  15   7     2.650143541748   120.00739213   179.80002832
 C     17  16  15     2.655911190186   120.09428178     0.24542872
 C     18  17  16     2.655282001145   120.05135058   359.81355697
 C     19  18  17     2.653015916600   120.00720474     0.00000000
 O      4   3   2     3.162941227575   107.34801728   122.65982088
 C     21   4   3     2.693036212546   123.52230902   317.33450471
 C     22  21   4     2.885291234602   112.45530422   283.97312139
 O      4   3   2     3.154871653364   108.29855315     3.07505603
 C     24   4   3     2.688433485179   129.12490594   229.35542562
 C     25  24   4     2.878809290066   110.94526903   108.50372568
 H      1   2   3     2.096750108822   111.18736146    61.95603673
 H      1   2   3     2.096814248738   110.54964812   182.31469952
 H      1   2   3     2.095435133239   110.49496741   302.37247720
 H      2   1   3     2.102154047326   110.89681359   238.66148851
 H      2   1   3     2.098250489480   111.82261658   119.47382948
 H      5   4   3     2.099562878613   103.45345705   305.93070018
 H      5   4   3     2.100693872317   106.11193681   195.67480330
 H      6   5   4     2.100931590958   111.32731112   186.62093586
 H      6   5   4     2.099426611172   112.13258929    68.37717594
 H     10   9   7     2.080888967175   120.45551417     1.33518103
 H     11  10   9     2.080225795873   119.87779372   180.12726268
 H     12  11  10     2.080360438326   119.88635306   180.09259947
 H     13  12  11     2.080416558168   120.07296756   180.39324856
 H     14  13  12     2.080700713460   121.71587691   180.59531708
 H     16  15   7     2.079058610381   118.75888018   358.97005538
 H     17  16  15     2.080153638002   119.84992986   179.83504263
 H     18  17  16     2.080108747231   120.03562870   179.55463169
 H     19  18  17     2.079979088891   120.13294336   179.60409213
 H     20  19  18     2.080861453820   119.36461075   179.32215562
 H     22  21   4     2.101341301729   106.87295940   162.90529642
 H     22  21   4     2.107018478872   109.84828783    47.06756945
 H     23  22  21     2.095524704487   110.98461527    62.26904076
 H     23  22  21     2.095723212254   110.58510423   302.94554208
 H     23  22  21     2.097538698785   110.71160520   182.76834829
 H     25  24   4     2.109806034561   110.75743726   345.73653926
 H     25  24   4     2.103721921685   107.74466002   230.03956953
 H     26  25  24     2.095576778850   110.18663446    59.90841853
 H     26  25  24     2.096890461585   110.32317554   300.99073534
 H     26  25  24     2.098154713619   110.68217109   179.55127115

---------------------
BASIS SET INFORMATION
---------------------
There are 5 groups of distinct atoms

 Group   1 Type C   : 11s6p2d1f contracted to 5s3p2d1f pattern {62111/411/11/1}
 Group   2 Type O   : 11s6p2d1f contracted to 5s3p2d1f pattern {62111/411/11/1}
 Group   3 Type Si  : 14s9p3d1f contracted to 5s5p2d1f pattern {73211/51111/21/1}
 Group   4 Type P   : 14s9p3d1f contracted to 5s5p2d1f pattern {73211/51111/21/1}
 Group   5 Type H   : 5s1p contracted to 3s1p pattern {311/1}

Atom   0C    basis set group =>   1
Atom   1C    basis set group =>   1
Atom   2O    basis set group =>   2
Atom   3Si   basis set group =>   3
Atom   4C    basis set group =>   1
Atom   5C    basis set group =>   1
Atom   6P    basis set group =>   4
Atom   7O    basis set group =>   2
Atom   8C    basis set group =>   1
Atom   9C    basis set group =>   1
Atom  10C    basis set group =>   1
Atom  11C    basis set group =>   1
Atom  12C    basis set group =>   1
Atom  13C    basis set group =>   1
Atom  14C    basis set group =>   1
Atom  15C    basis set group =>   1
Atom  16C    basis set group =>   1
Atom  17C    basis set group =>   1
Atom  18C    basis set group =>   1
Atom  19C    basis set group =>   1
Atom  20O    basis set group =>   2
Atom  21C    basis set group =>   1
Atom  22C    basis set group =>   1
Atom  23O    basis set group =>   2
Atom  24C    basis set group =>   1
Atom  25C    basis set group =>   1
Atom  26H    basis set group =>   5
Atom  27H    basis set group =>   5
Atom  28H    basis set group =>   5
Atom  29H    basis set group =>   5
Atom  30H    basis set group =>   5
Atom  31H    basis set group =>   5
Atom  32H    basis set group =>   5
Atom  33H    basis set group =>   5
Atom  34H    basis set group =>   5
Atom  35H    basis set group =>   5
Atom  36H    basis set group =>   5
Atom  37H    basis set group =>   5
Atom  38H    basis set group =>   5
Atom  39H    basis set group =>   5
Atom  40H    basis set group =>   5
Atom  41H    basis set group =>   5
Atom  42H    basis set group =>   5
Atom  43H    basis set group =>   5
Atom  44H    basis set group =>   5
Atom  45H    basis set group =>   5
Atom  46H    basis set group =>   5
Atom  47H    basis set group =>   5
Atom  48H    basis set group =>   5
Atom  49H    basis set group =>   5
Atom  50H    basis set group =>   5
Atom  51H    basis set group =>   5
Atom  52H    basis set group =>   5
Atom  53H    basis set group =>   5
Atom  54H    basis set group =>   5
---------------------------------
AUXILIARY/J BASIS SET INFORMATION
---------------------------------
There are 5 groups of distinct atoms

 Group   1 Type C   : 12s5p4d2f1g contracted to 6s4p3d1f1g pattern {711111/2111/211/2/1}
 Group   2 Type O   : 12s5p4d2f1g contracted to 6s4p3d1f1g pattern {711111/2111/211/2/1}
 Group   3 Type Si  : 14s5p5d2f1g contracted to 8s4p3d1f1g pattern {71111111/2111/311/2/1}
 Group   4 Type P   : 14s5p5d2f1g contracted to 8s4p3d1f1g pattern {71111111/2111/311/2/1}
 Group   5 Type H   : 5s2p1d contracted to 3s1p1d pattern {311/2/1}

Atom   0C    basis set group =>   1
Atom   1C    basis set group =>   1
Atom   2O    basis set group =>   2
Atom   3Si   basis set group =>   3
Atom   4C    basis set group =>   1
Atom   5C    basis set group =>   1
Atom   6P    basis set group =>   4
Atom   7O    basis set group =>   2
Atom   8C    basis set group =>   1
Atom   9C    basis set group =>   1
Atom  10C    basis set group =>   1
Atom  11C    basis set group =>   1
Atom  12C    basis set group =>   1
Atom  13C    basis set group =>   1
Atom  14C    basis set group =>   1
Atom  15C    basis set group =>   1
Atom  16C    basis set group =>   1
Atom  17C    basis set group =>   1
Atom  18C    basis set group =>   1
Atom  19C    basis set group =>   1
Atom  20O    basis set group =>   2
Atom  21C    basis set group =>   1
Atom  22C    basis set group =>   1
Atom  23O    basis set group =>   2
Atom  24C    basis set group =>   1
Atom  25C    basis set group =>   1
Atom  26H    basis set group =>   5
Atom  27H    basis set group =>   5
Atom  28H    basis set group =>   5
Atom  29H    basis set group =>   5
Atom  30H    basis set group =>   5
Atom  31H    basis set group =>   5
Atom  32H    basis set group =>   5
Atom  33H    basis set group =>   5
Atom  34H    basis set group =>   5
Atom  35H    basis set group =>   5
Atom  36H    basis set group =>   5
Atom  37H    basis set group =>   5
Atom  38H    basis set group =>   5
Atom  39H    basis set group =>   5
Atom  40H    basis set group =>   5
Atom  41H    basis set group =>   5
Atom  42H    basis set group =>   5
Atom  43H    basis set group =>   5
Atom  44H    basis set group =>   5
Atom  45H    basis set group =>   5
Atom  46H    basis set group =>   5
Atom  47H    basis set group =>   5
Atom  48H    basis set group =>   5
Atom  49H    basis set group =>   5
Atom  50H    basis set group =>   5
Atom  51H    basis set group =>   5
Atom  52H    basis set group =>   5
Atom  53H    basis set group =>   5
Atom  54H    basis set group =>   5


           ************************************************************
           *        Program running with 6 parallel MPI-processes     *
           *              working on a common directory               *
           ************************************************************
------------------------------------------------------------------------------
                             ORCA STARTUP CALCULATIONS
                           -- RI-GTO INTEGRALS CHOSEN --
------------------------------------------------------------------------------
------------------------------------------------------------------------------
                   ___                                                        
                  /   \      - P O W E R E D   B Y -                         
                 /     \                                                     
                 |  |  |   _    _      __       _____    __    __             
                 |  |  |  | |  | |    /  \     |  _  \  |  |  /  |          
                  \  \/   | |  | |   /    \    | | | |  |  | /  /          
                 / \  \   | |__| |  /  /\  \   | |_| |  |  |/  /          
                |  |  |   |  __  | /  /__\  \  |    /   |      \           
                |  |  |   | |  | | |   __   |  |    \   |  |\   \          
                \     /   | |  | | |  |  |  |  | |\  \  |  | \   \       
                 \___/    |_|  |_| |__|  |__|  |_| \__\ |__|  \__/        
                                                                              
                      - O R C A' S   B I G   F R I E N D -                    
                                      &                                       
                       - I N T E G R A L  F E E D E R -                       
                                                                              
 v1 FN, 2020, v2 2021, v3 2022-2024                                           
------------------------------------------------------------------------------


----------------------
SHARK INTEGRAL PACKAGE
----------------------

Number of atoms                             ...     55
Number of basis functions                   ...    992
Number of shells                            ...    406
Maximum angular momentum                    ...      3
Integral batch strategy                     ... SHARK/LIBINT Hybrid
RI-J (if used) integral strategy            ... SPLIT-RIJ (Revised 2003 algorithm where possible)
Printlevel                                  ...      1
Contraction scheme used                     ... SEGMENTED contraction
Prescreening option                         ... SCHWARTZ
   Thresh                                   ... 1.000e-10
   Tcut                                     ... 1.000e-11
   Tpresel                                  ... 1.000e-11 
Coulomb Range Separation                    ... NOT USED
Exchange Range Separation                   ... NOT USED
Multipole approximations                    ... NOT USED
Finite Nucleus Model                        ... NOT USED
CABS basis                                  ... NOT available
Auxiliary Coulomb fitting basis             ... AVAILABLE
   # of basis functions in Aux-J            ...   1597
   # of shells in Aux-J                     ...    539
   Maximum angular momentum in Aux-J        ...      4
Auxiliary J/K fitting basis                 ... NOT available
Auxiliary Correlation fitting basis         ... NOT available
Auxiliary 'external' fitting basis          ... NOT available

Checking pre-screening integrals            ... done (  0.0 sec) Dimension = 406
Check shell pair data                       ... done (  0.0 sec)
Shell pair information
Shell pair cut-off parameter TPreSel        ...   1.0e-11
Total number of shell pairs                 ...     82621
Shell pairs after pre-screening             ...     53247
Total number of primitive shell pairs       ...    251673
Primitive shell pairs kept                  ...    103748
          la=0 lb=0:  14904 shell pairs
          la=1 lb=0:  16028 shell pairs
          la=1 lb=1:   4391 shell pairs
          la=2 lb=0:   7056 shell pairs
          la=2 lb=1:   3886 shell pairs
          la=2 lb=2:    903 shell pairs
          la=3 lb=0:   3269 shell pairs
          la=3 lb=1:   1809 shell pairs
          la=3 lb=2:    806 shell pairs
          la=3 lb=3:    195 shell pairs

Calculating one electron integrals          ... done (  0.1 sec)
Calculating RI/J V-Matrix + Cholesky decomp.... done (  0.2 sec)
Calculating Nuclear repulsion               ... done (  0.0 sec) ENN=   2883.956516763116 Eh

Diagonalization of the overlap matrix:
Smallest eigenvalue                        ... 7.862e-06
Time for diagonalization                   ...    0.264 sec
Threshold for overlap eigenvalues          ... 1.000e-07
Number of eigenvalues below threshold      ... 0
Time for construction of square roots      ...    0.116 sec
Total time needed                          ...    0.390 sec

-------------------
DFT GRID GENERATION
-------------------

General Integration Accuracy     IntAcc      ... 4.388
Radial Grid Type                 RadialGrid  ... OptM3 with GC (2021)
Angular Grid (max. ang.)         AngularGrid ... 4 (Lebedev-302)
Angular grid pruning method      GridPruning ... 4 (adaptive)
Weight generation scheme         WeightScheme... mBecke (2022)
Basis function cutoff            BFCut       ... 1.0000e-10
Integration weight cutoff        WCut        ... 1.0000e-14
Partially contracted basis set               ... off
Rotationally invariant grid construction     ... off
Angular grids for H and He will be reduced by one unit

Total number of grid points                  ...   249333
Total number of batches                      ...     3923
Average number of points per batch           ...       63
Average number of grid points per atom       ...     4533

--------------------
COSX GRID GENERATION
--------------------

GRIDX 1
-------
General Integration Accuracy     IntAcc      ... 3.816
Radial Grid Type                 RadialGrid  ... OptM3 with GC (2021)
Angular Grid (max. ang.)         AngularGrid ... 1 (Lebedev-50)
Angular grid pruning method      GridPruning ... 4 (adaptive)
Weight generation scheme         WeightScheme... mBecke (2022)
Basis function cutoff            BFCut       ... 1.0000e-10
Integration weight cutoff        WCut        ... 1.0000e-14
Partially contracted basis set               ... on
Rotationally invariant grid construction     ... off
Angular grids for H and He will be reduced by one unit

Total number of grid points                  ...    33560
Total number of batches                      ...      293
Average number of points per batch           ...      114
Average number of grid points per atom       ...      610
UseSFitting                                  ... on

GRIDX 2
-------
General Integration Accuracy     IntAcc      ... 4.020
Radial Grid Type                 RadialGrid  ... OptM3 with GC (2021)
Angular Grid (max. ang.)         AngularGrid ... 2 (Lebedev-110)
Angular grid pruning method      GridPruning ... 4 (adaptive)
Weight generation scheme         WeightScheme... mBecke (2022)
Basis function cutoff            BFCut       ... 1.0000e-10
Integration weight cutoff        WCut        ... 1.0000e-14
Partially contracted basis set               ... on
Rotationally invariant grid construction     ... off
Angular grids for H and He will be reduced by one unit

Total number of grid points                  ...    66851
Total number of batches                      ...      552
Average number of points per batch           ...      121
Average number of grid points per atom       ...     1215
UseSFitting                                  ... on

GRIDX 3
-------
General Integration Accuracy     IntAcc      ... 4.338
Radial Grid Type                 RadialGrid  ... OptM3 with GC (2021)
Angular Grid (max. ang.)         AngularGrid ... 3 (Lebedev-194)
Angular grid pruning method      GridPruning ... 4 (adaptive)
Weight generation scheme         WeightScheme... mBecke (2022)
Basis function cutoff            BFCut       ... 1.0000e-10
Integration weight cutoff        WCut        ... 1.0000e-14
Partially contracted basis set               ... on
Rotationally invariant grid construction     ... off
Angular grids for H and He will be reduced by one unit

Total number of grid points                  ...   146084
Total number of batches                      ...     1172
Average number of points per batch           ...      124
Average number of grid points per atom       ...     2656
UseSFitting                                  ... on
Initializing property integral containers    ... done (  0.0 sec)

SHARK setup successfully completed in   7.3 seconds

Maximum memory used throughout the entire STARTUP-calculation: 111.0 MB


           ************************************************************
           *        Program running with 6 parallel MPI-processes     *
           *              working on a common directory               *
           ************************************************************
-------------------------------------------------------------------------------
                                 ORCA GUESS
                   Start orbitals & Density for SCF / CASSCF
-------------------------------------------------------------------------------

------------
SCF SETTINGS
------------
Hamiltonian:
 Density Functional     Method          .... DFT(GTOs)
 Exchange Functional    Exchange        .... M062X
 Correlation Functional Correlation     .... M062X
 Gradients option       PostSCFGGA      .... off
 Hybrid DFT is turned on
   Fraction HF Exchange ScalHFX         ....  0.540000
   Scaling of DF-GGA-X  ScalDFX         ....  0.460000
   Scaling of DF-GGA-C  ScalDFC         ....  1.000000
   Scaling of DF-LDA-C  ScalLDAC        ....  1.000000
   Perturbative correction              ....  0.000000
 RI-approximation to the Coulomb term is turned on
   Number of AuxJ basis functions       .... 1597
   RIJ-COSX (HFX calculated with COS-X)).... on


General Settings:
 Integral files         IntName         .... data/single_point_PO_M06-2x/87708/87708
 Hartree-Fock type      HFTyp           .... RHF
 Total Charge           Charge          ....    0
 Multiplicity           Mult            ....    1
 Number of Electrons    NEL             ....  210
 Basis Dimension        Dim             ....  992
 Nuclear Repulsion      ENuc            ....   2883.9565167631 Eh

Convergence Acceleration:
 AO-DIIS                CNVDIIS         .... on
   Start iteration      DIISMaxIt       ....    12
   Startup error        DIISStart       ....  0.200000
   # of expansion vecs  DIISMaxEq       ....     5
   Bias factor          DIISBfac        ....   1.050
   Max. coefficient     DIISMaxC        ....  10.000
 MO-DIIS                CNVKDIIS        .... off
 Trust-Rad. Augm. Hess. CNVTRAH         .... auto
   Auto Start mean grad. ratio tolernc. ....  1.125000
   Auto Start start iteration           ....    50
   Auto Start num. interpolation iter.  ....    10
   Max. Number of Micro iterations      ....    24
   Max. Number of Macro iterations      .... Maxiter - #DIIS iter
   Number of Davidson start vectors     ....     2
   Converg. threshold    (grad. norm)   ....   5.000e-05
   Grad. Scal. Fac. for Micro threshold ....   0.100
   Minimum threshold for Micro iter.    ....   1.000e-02
   NR start threshold (gradient norm)   ....   1.000e-04
   Initial trust radius                 ....   0.400
   Minimum AH scaling param. (alpha)    ....   1.000
   Maximum AH scaling param. (alpha)    .... 1000.000
   Quad. conv. algorithm                .... NR
   White noise on init. David. guess    .... on
   Maximum white noise                  ....   0.010
   Pseudo random numbers                .... off
   Inactive MOs                         .... canonical
   Orbital update algorithm             .... Taylor
   Preconditioner                       .... Diag
   Full preconditioner red. dimension   ....   250
 SOSCF                  CNVSOSCF        .... on
   Start iteration      SOSCFMaxIt      ....   150
   Startup grad/error   SOSCFStart      ....  0.003300
   Hessian update       SOSCFHessUp     .... L-BFGS
 Level Shifting         CNVShift        .... on
   Level shift para.    LevelShift      ....    0.2500
   Turn off err/grad.   ShiftErr        ....    0.0010
 Zerner damping         CNVZerner       .... off
 Static damping         CNVDamp         .... on
   Fraction old density DampFac         ....    0.7000
   Max. Damping (<1)    DampMax         ....    0.9800
   Min. Damping (>=0)   DampMin         ....    0.0000
   Turn off err/grad.   DampErr         ....    0.1000

SCF Procedure:
 Maximum # iterations   MaxIter         ....   125
 SCF integral mode      SCFMode         .... Direct
   Integral package                     .... SHARK and LIBINT hybrid scheme
 Reset frequency        DirectResetFreq ....    20
 Integral Threshold     Thresh          ....  1.000e-10 Eh
 Primitive CutOff       TCut            ....  1.000e-11 Eh

Convergence Tolerance:
 Convergence Check Mode ConvCheckMode   .... Total+1el-Energy
 Convergence forced     ConvForced      .... 0
 Energy Change          TolE            ....  1.000e-06 Eh
 1-El. energy change                    ....  1.000e-03 Eh
 Orbital Gradient       TolG            ....  5.000e-05
 Orbital Rotation angle TolX            ....  5.000e-05
 DIIS Error             TolErr          ....  1.000e-05

------------------------------
INITIAL GUESS: MODEL POTENTIAL
------------------------------
Loading Hartree-Fock densities                     ... done
Calculating cut-offs                               ... done
Initializing the effective Hamiltonian             ... done
Setting up the integral package (SHARK)            ... done
Starting the Coulomb interaction                   ... done (   1.2 sec)
Making the grid                                    ... done (   0.6 sec)
Mapping shells                                     ... done
Starting the XC term evaluation                    ... done (   0.7 sec)
  promolecular density results
     # of electrons  =    209.969856032
     EX              =   -186.172081722
     EC              =     -7.114602345
     EX+EC           =   -193.286684066
Transforming the Hamiltonian                       ... done (   0.1 sec)
Diagonalizing the Hamiltonian                      ... done (   0.3 sec)
Back transforming the eigenvectors                 ... done (   0.1 sec)
Now organizing SCF variables                       ... done
                      ------------------
                      INITIAL GUESS DONE (   3.1 sec)
                      ------------------
             **** ENERGY FILE WAS UPDATED (data/single_point_PO_M06-2x/87708/87708.en.tmp) ****
Finished Guess after   3.5 sec
Maximum memory used throughout the entire GUESS-calculation: 88.8 MB


           ************************************************************
           *        Program running with 6 parallel MPI-processes     *
           *              working on a common directory               *
           ************************************************************

-------------------------------------------------------------------------------------------
                                      ORCA LEAN-SCF
                              memory conserving SCF solver
-------------------------------------------------------------------------------------------

----------------------------------------D-I-I-S--------------------------------------------
Iteration    Energy (Eh)           Delta-E    RMSDP     MaxDP     DIISErr   Damp  Time(sec)
-------------------------------------------------------------------------------------------
               ***  Starting incremental Fock matrix formation  ***
    1    -1710.5965700456326886     0.00e+00  1.03e-03  7.20e-02  3.47e-01  0.700  30.4
    2    -1710.9729985855929044    -3.76e-01  8.24e-04  6.50e-02  1.49e-01  0.700  16.6
                               ***Turning on AO-DIIS***
    3    -1711.1412878604660364    -1.68e-01  4.84e-04  2.14e-02  4.96e-02  0.700  15.7
    4    -1711.2414311898955930    -1.00e-01  1.10e-03  5.72e-02  3.28e-02  0.000  15.4
    5    -1711.4580532749896520    -2.17e-01  1.01e-04  9.64e-03  4.33e-03  0.000  15.9
                              *** Initializing SOSCF ***
---------------------------------------S-O-S-C-F--------------------------------------
Iteration    Energy (Eh)           Delta-E    RMSDP     MaxDP     MaxGrad    Time(sec)
--------------------------------------------------------------------------------------
    6    -1711.4585474764671744    -4.94e-04  3.64e-05  3.41e-03  2.15e-03    13.9
               *** Restarting incremental Fock matrix formation ***
    7    -1711.4586725300359831    -1.25e-04  1.55e-04  1.21e-02  1.67e-04    29.6
    8    -1711.4586742831043011    -1.75e-06  4.17e-05  3.24e-03  2.73e-04    19.8
    9    -1711.4586803397678523    -6.06e-06  3.85e-05  3.01e-03  3.32e-05    17.4
   10    -1711.4586804801529070    -1.40e-07  2.31e-06  1.72e-04  2.07e-05    16.8
                 **** Energy Check signals convergence ****

               *****************************************************
               *                     SUCCESS                       *
               *           SCF CONVERGED AFTER  10 CYCLES          *
               *****************************************************

Recomputing exchange energy using gridx3       ... done (   44.946 sec)
Old exchange energy                            :   -102.587470019 Eh
New exchange energy                            :   -102.587412326 Eh
Exchange energy change after final integration :      0.000057693 Eh
Total energy after final integration           :  -1711.458622787 Eh
             **** ENERGY FILE WAS UPDATED (data/single_point_PO_M06-2x/87708/87708.en.tmp) ****

----------------
TOTAL SCF ENERGY
----------------

Total Energy       :      -1711.45862278696586 Eh          -46571.15676 eV

Components:
Nuclear Repulsion  :       2883.95651676311627 Eh           78476.44649 eV
Electronic Energy  :      -4595.41519724326827 Eh         -125047.60481 eV
One Electron Energy:      -8083.66472014086685 Eh         -219967.69998 eV
Two Electron Energy:       3488.24952289759813 Eh           94920.09516 eV

Virial components:
Potential Energy   :      -3414.73130543602929 Eh          -92919.56276 eV
Kinetic Energy     :       1703.27268264906320 Eh           46348.40600 eV
Virial Ratio       :          2.00480600682515

DFT components:
N(Alpha)           :      105.000057499764 electrons
N(Beta)            :      105.000057499764 electrons
N(Total)           :      210.000114999529 electrons
E(XC)              :      -95.004936068672 Eh       

---------------
SCF CONVERGENCE
---------------

  Last Energy change         ...    1.4039e-07  Tolerance :   1.0000e-06
  Last MAX-Density change    ...    1.7153e-04  Tolerance :   1.0000e-05
  Last RMS-Density change    ...    2.3092e-06  Tolerance :   1.0000e-06
  Last DIIS Error            ...    2.1506e-03  Tolerance :   1.0000e-05
  Last Orbital Gradient      ...    2.0706e-05  Tolerance :   5.0000e-05
  Last Orbital Rotation      ...    3.0086e-05  Tolerance :   5.0000e-05


----------------
ORBITAL ENERGIES
----------------

  NO   OCC          E(Eh)            E(eV) 
   0   2.0000     -78.099560     -2125.1971 
   1   2.0000     -67.042673     -1824.3239 
   2   2.0000     -19.609661      -533.6060 
   3   2.0000     -19.604108      -533.4549 
   4   2.0000     -19.603518      -533.4388 
   5   2.0000     -19.573225      -532.6145 
   6   2.0000     -10.585728      -288.0523 
   7   2.0000     -10.577474      -287.8277 
   8   2.0000     -10.567292      -287.5506 
   9   2.0000     -10.567182      -287.5476 
  10   2.0000     -10.566076      -287.5176 
  11   2.0000     -10.562442      -287.4187 
  12   2.0000     -10.561619      -287.3963 
  13   2.0000     -10.561604      -287.3959 
  14   2.0000     -10.561168      -287.3840 
  15   2.0000     -10.560980      -287.3789 
  16   2.0000     -10.560459      -287.3647 
  17   2.0000     -10.560111      -287.3552 
  18   2.0000     -10.558680      -287.3163 
  19   2.0000     -10.558616      -287.3145 
  20   2.0000     -10.557786      -287.2920 
  21   2.0000     -10.557240      -287.2771 
  22   2.0000     -10.535483      -286.6851 
  23   2.0000     -10.518878      -286.2332 
  24   2.0000     -10.516737      -286.1750 
  25   2.0000     -10.512086      -286.0484 
  26   2.0000      -6.906058      -187.9234 
  27   2.0000      -5.571290      -151.6025 
  28   2.0000      -5.023159      -136.6871 
  29   2.0000      -5.022963      -136.6818 
  30   2.0000      -5.021531      -136.6428 
  31   2.0000      -3.883677      -105.6802 
  32   2.0000      -3.883162      -105.6662 
  33   2.0000      -3.881984      -105.6341 
  34   2.0000      -1.130269       -30.7562 
  35   2.0000      -1.106984       -30.1226 
  36   2.0000      -1.100303       -29.9408 
  37   2.0000      -1.068758       -29.0824 
  38   2.0000      -0.967364       -26.3233 
  39   2.0000      -0.964105       -26.2346 
  40   2.0000      -0.882724       -24.0201 
  41   2.0000      -0.854033       -23.2394 
  42   2.0000      -0.850950       -23.1555 
  43   2.0000      -0.850020       -23.1302 
  44   2.0000      -0.847352       -23.0576 
  45   2.0000      -0.832431       -22.6516 
  46   2.0000      -0.826148       -22.4806 
  47   2.0000      -0.823330       -22.4039 
  48   2.0000      -0.748488       -20.3674 
  49   2.0000      -0.708643       -19.2831 
  50   2.0000      -0.698997       -19.0207 
  51   2.0000      -0.695515       -18.9259 
  52   2.0000      -0.693222       -18.8635 
  53   2.0000      -0.687217       -18.7001 
  54   2.0000      -0.683490       -18.5987 
  55   2.0000      -0.681599       -18.5473 
  56   2.0000      -0.633971       -17.2512 
  57   2.0000      -0.601393       -16.3647 
  58   2.0000      -0.595211       -16.1965 
  59   2.0000      -0.581932       -15.8352 
  60   2.0000      -0.559278       -15.2187 
  61   2.0000      -0.546988       -14.8843 
  62   2.0000      -0.540952       -14.7200 
  63   2.0000      -0.535210       -14.5638 
  64   2.0000      -0.533196       -14.5090 
  65   2.0000      -0.528372       -14.3777 
  66   2.0000      -0.526279       -14.3208 
  67   2.0000      -0.521693       -14.1960 
  68   2.0000      -0.519534       -14.1372 
  69   2.0000      -0.512110       -13.9352 
  70   2.0000      -0.505026       -13.7425 
  71   2.0000      -0.496488       -13.5101 
  72   2.0000      -0.494886       -13.4665 
  73   2.0000      -0.486144       -13.2286 
  74   2.0000      -0.482788       -13.1373 
  75   2.0000      -0.480760       -13.0822 
  76   2.0000      -0.465578       -12.6690 
  77   2.0000      -0.461962       -12.5706 
  78   2.0000      -0.454355       -12.3636 
  79   2.0000      -0.446408       -12.1474 
  80   2.0000      -0.445049       -12.1104 
  81   2.0000      -0.442028       -12.0282 
  82   2.0000      -0.435737       -11.8570 
  83   2.0000      -0.432545       -11.7701 
  84   2.0000      -0.427640       -11.6367 
  85   2.0000      -0.427042       -11.6204 
  86   2.0000      -0.423534       -11.5250 
  87   2.0000      -0.418035       -11.3753 
  88   2.0000      -0.412222       -11.2171 
  89   2.0000      -0.410686       -11.1753 
  90   2.0000      -0.408280       -11.1099 
  91   2.0000      -0.401623       -10.9287 
  92   2.0000      -0.388165       -10.5625 
  93   2.0000      -0.370295       -10.0762 
  94   2.0000      -0.365855        -9.9554 
  95   2.0000      -0.358729        -9.7615 
  96   2.0000      -0.351028        -9.5520 
  97   2.0000      -0.346438        -9.4271 
  98   2.0000      -0.338390        -9.2081 
  99   2.0000      -0.334041        -9.0897 
 100   2.0000      -0.328922        -8.9504 
 101   2.0000      -0.320010        -8.7079 
 102   2.0000      -0.319000        -8.6804 
 103   2.0000      -0.316336        -8.6079 
 104   2.0000      -0.310533        -8.4500 
 105   0.0000      -0.017687        -0.4813 
 106   0.0000      -0.000968        -0.0263 
 107   0.0000       0.007059         0.1921 
 108   0.0000       0.010559         0.2873 
 109   0.0000       0.046976         1.2783 
 110   0.0000       0.068924         1.8755 
 111   0.0000       0.071279         1.9396 
 112   0.0000       0.077107         2.0982 
 113   0.0000       0.080490         2.1902 
 114   0.0000       0.082788         2.2528 
 115   0.0000       0.090107         2.4519 
*Only the first 10 virtual orbitals were printed.

                    ********************************
                    * MULLIKEN POPULATION ANALYSIS *
                    ********************************

-----------------------
MULLIKEN ATOMIC CHARGES
-----------------------
   0 C :   -0.380510
   1 C :   -0.154260
   2 O :   -0.360887
   3 Si:    0.667409
   4 C :   -0.444861
   5 C :   -0.428540
   6 P :    0.597394
   7 O :   -0.647355
   8 C :    0.017222
   9 C :   -0.201916
  10 C :   -0.163810
  11 C :   -0.137051
  12 C :   -0.138524
  13 C :   -0.154517
  14 C :    0.064180
  15 C :   -0.205344
  16 C :   -0.130756
  17 C :   -0.132614
  18 C :   -0.154994
  19 C :   -0.244467
  20 O :   -0.380027
  21 C :   -0.116508
  22 C :   -0.412596
  23 O :   -0.342645
  24 C :   -0.112972
  25 C :   -0.403832
  26 H :    0.131009
  27 H :    0.135302
  28 H :    0.124014
  29 H :    0.139825
  30 H :    0.180106
  31 H :    0.184937
  32 H :    0.193061
  33 H :    0.200325
  34 H :    0.195565
  35 H :    0.161092
  36 H :    0.146958
  37 H :    0.148817
  38 H :    0.149983
  39 H :    0.196483
  40 H :    0.206038
  41 H :    0.157337
  42 H :    0.149008
  43 H :    0.147710
  44 H :    0.191435
  45 H :    0.123976
  46 H :    0.134491
  47 H :    0.151163
  48 H :    0.139384
  49 H :    0.133339
  50 H :    0.118246
  51 H :    0.130865
  52 H :    0.138610
  53 H :    0.165352
  54 H :    0.128352
Sum of atomic charges:   -0.0000000

--------------------------------
MULLIKEN REDUCED ORBITAL CHARGES
--------------------------------
  0 C s       :     3.294629  s :     3.294629
      pz      :     0.966714  p :     3.032394
      px      :     1.058853
      py      :     1.006826
      dz2     :     0.011297  d :     0.050239
      dxz     :     0.017289
      dyz     :     0.006254
      dx2y2   :     0.012059
      dxy     :     0.003339
      f0      :     0.000454  f :     0.003248
      f+1     :     0.000398
      f-1     :     0.000586
      f+2     :     0.000675
      f-2     :     0.000513
      f+3     :     0.000383
      f-3     :     0.000238

  1 C s       :     3.265813  s :     3.265813
      pz      :     0.973850  p :     2.740911
      px      :     1.088079
      py      :     0.678983
      dz2     :     0.023147  d :     0.137603
      dxz     :     0.023347
      dyz     :     0.032746
      dx2y2   :     0.031324
      dxy     :     0.027040
      f0      :     0.001288  f :     0.009932
      f+1     :     0.000734
      f-1     :     0.001592
      f+2     :     0.001670
      f-2     :     0.001118
      f+3     :     0.001907
      f-3     :     0.001623

  2 O s       :     3.737709  s :     3.737709
      pz      :     1.691166  p :     4.599654
      px      :     1.709176
      py      :     1.199311
      dz2     :     0.002847  d :     0.022052
      dxz     :     0.002366
      dyz     :     0.006867
      dx2y2   :     0.003929
      dxy     :     0.006043
      f0      :     0.000133  f :     0.001472
      f+1     :     0.000037
      f-1     :     0.000251
      f+2     :     0.000230
      f-2     :     0.000123
      f+3     :     0.000327
      f-3     :     0.000370

  3 Sis       :     5.019234  s :     5.019234
      pz      :     2.461695  p :     7.385303
      px      :     2.490363
      py      :     2.433245
      dz2     :     0.141684  d :     0.767117
      dxz     :     0.153262
      dyz     :     0.185010
      dx2y2   :     0.114036
      dxy     :     0.173124
      f0      :     0.022640  f :     0.160938
      f+1     :     0.017769
      f-1     :     0.027736
      f+2     :     0.026810
      f-2     :     0.025144
      f+3     :     0.018846
      f-3     :     0.021994

  4 C s       :     3.262344  s :     3.262344
      pz      :     0.980142  p :     3.125898
      px      :     1.056817
      py      :     1.088939
      dz2     :     0.016675  d :     0.053468
      dxz     :     0.010863
      dyz     :     0.007104
      dx2y2   :     0.007312
      dxy     :     0.011513
      f0      :     0.000566  f :     0.003151
      f+1     :     0.000745
      f-1     :     0.000227
      f+2     :     0.000535
      f-2     :     0.000537
      f+3     :     0.000350
      f-3     :     0.000191

  5 C s       :     3.286739  s :     3.286739
      pz      :     1.018215  p :     3.064677
      px      :     1.065201
      py      :     0.981261
      dz2     :     0.023276  d :     0.073473
      dxz     :     0.011777
      dyz     :     0.010567
      dx2y2   :     0.009642
      dxy     :     0.018211
      f0      :     0.000563  f :     0.003651
      f+1     :     0.000876
      f-1     :     0.000441
      f+2     :     0.000409
      f-2     :     0.000543
      f+3     :     0.000423
      f-3     :     0.000395

  6 P s       :     5.300605  s :     5.300605
      pz      :     2.865006  p :     8.355374
      px      :     2.766384
      py      :     2.723984
      dz2     :     0.121495  d :     0.680917
      dxz     :     0.172623
      dyz     :     0.088991
      dx2y2   :     0.202184
      dxy     :     0.095623
      f0      :     0.008635  f :     0.065710
      f+1     :     0.007211
      f-1     :     0.007050
      f+2     :     0.007797
      f-2     :     0.011783
      f+3     :     0.010827
      f-3     :     0.012406

  7 O s       :     3.913940  s :     3.913940
      pz      :     1.659693  p :     4.708383
      px      :     1.539451
      py      :     1.509238
      dz2     :     0.002753  d :     0.023806
      dxz     :     0.003427
      dyz     :     0.004216
      dx2y2   :     0.006643
      dxy     :     0.006767
      f0      :     0.000120  f :     0.001227
      f+1     :     0.000111
      f-1     :     0.000126
      f+2     :     0.000050
      f-2     :     0.000236
      f+3     :     0.000292
      f-3     :     0.000292

  8 C s       :     3.225542  s :     3.225542
      pz      :     0.877669  p :     2.675398
      px      :     0.896587
      py      :     0.901142
      dz2     :     0.014776  d :     0.074804
      dxz     :     0.022706
      dyz     :     0.007814
      dx2y2   :     0.019125
      dxy     :     0.010383
      f0      :     0.001170  f :     0.007035
      f+1     :     0.000692
      f-1     :     0.000818
      f+2     :     0.000776
      f-2     :     0.001537
      f+3     :     0.001245
      f-3     :     0.000799

  9 C s       :     3.179748  s :     3.179748
      pz      :     1.051394  p :     2.949711
      px      :     0.941841
      py      :     0.956476
      dz2     :     0.011318  d :     0.065944
      dxz     :     0.011465
      dyz     :     0.014077
      dx2y2   :     0.016369
      dxy     :     0.012716
      f0      :     0.000833  f :     0.006512
      f+1     :     0.000855
      f-1     :     0.000785
      f+2     :     0.000645
      f-2     :     0.001423
      f+3     :     0.001158
      f-3     :     0.000815

 10 C s       :     3.236545  s :     3.236545
      pz      :     0.904869  p :     2.860770
      px      :     0.987239
      py      :     0.968662
      dz2     :     0.018236  d :     0.060183
      dxz     :     0.011169
      dyz     :     0.010819
      dx2y2   :     0.007583
      dxy     :     0.012376
      f0      :     0.001059  f :     0.006312
      f+1     :     0.001006
      f-1     :     0.000777
      f+2     :     0.000886
      f-2     :     0.001400
      f+3     :     0.000420
      f-3     :     0.000764

 11 C s       :     3.229870  s :     3.229870
      pz      :     0.961400  p :     2.839787
      px      :     0.961812
      py      :     0.916574
      dz2     :     0.012010  d :     0.061117
      dxz     :     0.015706
      dyz     :     0.008197
      dx2y2   :     0.017140
      dxy     :     0.008063
      f0      :     0.001021  f :     0.006277
      f+1     :     0.000671
      f-1     :     0.000759
      f+2     :     0.000792
      f-2     :     0.001263
      f+3     :     0.001117
      f-3     :     0.000653

 12 C s       :     3.226014  s :     3.226014
      pz      :     0.982812  p :     2.846415
      px      :     0.895790
      py      :     0.967814
      dz2     :     0.010527  d :     0.059828
      dxz     :     0.011611
      dyz     :     0.011986
      dx2y2   :     0.014616
      dxy     :     0.011088
      f0      :     0.000770  f :     0.006267
      f+1     :     0.000844
      f-1     :     0.000718
      f+2     :     0.000654
      f-2     :     0.001376
      f+3     :     0.001126
      f-3     :     0.000780

 13 C s       :     3.207410  s :     3.207410
      pz      :     0.889358  p :     2.877833
      px      :     1.025564
      py      :     0.962911
      dz2     :     0.020195  d :     0.062833
      dxz     :     0.009074
      dyz     :     0.012009
      dx2y2   :     0.007956
      dxy     :     0.013599
      f0      :     0.001082  f :     0.006441
      f+1     :     0.001139
      f-1     :     0.000768
      f+2     :     0.000871
      f-2     :     0.001403
      f+3     :     0.000403
      f-3     :     0.000774

 14 C s       :     3.212367  s :     3.212367
      pz      :     0.891305  p :     2.642684
      px      :     0.914246
      py      :     0.837132
      dz2     :     0.017339  d :     0.073575
      dxz     :     0.010025
      dyz     :     0.015635
      dx2y2   :     0.012056
      dxy     :     0.018520
      f0      :     0.000543  f :     0.007194
      f+1     :     0.000844
      f-1     :     0.001373
      f+2     :     0.001275
      f-2     :     0.000986
      f+3     :     0.001133
      f-3     :     0.001042

 15 C s       :     3.235293  s :     3.235293
      pz      :     0.972994  p :     2.900172
      px      :     0.953828
      py      :     0.973350
      dz2     :     0.014128  d :     0.063210
      dxz     :     0.010769
      dyz     :     0.015455
      dx2y2   :     0.008570
      dxy     :     0.014288
      f0      :     0.001110  f :     0.006670
      f+1     :     0.000720
      f-1     :     0.001289
      f+2     :     0.000971
      f-2     :     0.001077
      f+3     :     0.001008
      f-3     :     0.000496

 16 C s       :     3.218096  s :     3.218096
      pz      :     0.923868  p :     2.846995
      px      :     0.931467
      py      :     0.991659
      dz2     :     0.016133  d :     0.059365
      dxz     :     0.008349
      dyz     :     0.014712
      dx2y2   :     0.012534
      dxy     :     0.007637
      f0      :     0.001041  f :     0.006300
      f+1     :     0.000834
      f-1     :     0.001029
      f+2     :     0.001185
      f-2     :     0.000823
      f+3     :     0.000477
      f-3     :     0.000911

 17 C s       :     3.227579  s :     3.227579
      pz      :     0.996852  p :     2.837400
      px      :     0.951928
      py      :     0.888621
      dz2     :     0.010459  d :     0.061330
      dxz     :     0.007078
      dyz     :     0.015406
      dx2y2   :     0.011472
      dxy     :     0.016914
      f0      :     0.000356  f :     0.006304
      f+1     :     0.000752
      f-1     :     0.001274
      f+2     :     0.001054
      f-2     :     0.000833
      f+3     :     0.001070
      f-3     :     0.000966

 18 C s       :     3.230569  s :     3.230569
      pz      :     0.944782  p :     2.856997
      px      :     0.961106
      py      :     0.951108
      dz2     :     0.014995  d :     0.061078
      dxz     :     0.011286
      dyz     :     0.013535
      dx2y2   :     0.007648
      dxy     :     0.013614
      f0      :     0.001061  f :     0.006350
      f+1     :     0.000685
      f-1     :     0.001126
      f+2     :     0.000975
      f-2     :     0.000982
      f+3     :     0.001007
      f-3     :     0.000514

 19 C s       :     3.203721  s :     3.203721
      pz      :     1.014445  p :     2.964839
      px      :     0.939885
      py      :     1.010509
      dz2     :     0.017362  d :     0.069304
      dxz     :     0.012359
      dyz     :     0.016594
      dx2y2   :     0.015350
      dxy     :     0.007639
      f0      :     0.001079  f :     0.006604
      f+1     :     0.000976
      f-1     :     0.001077
      f+2     :     0.001222
      f-2     :     0.000851
      f+3     :     0.000446
      f-3     :     0.000953

 20 O s       :     3.740756  s :     3.740756
      pz      :     1.409743  p :     4.614734
      px      :     1.576874
      py      :     1.628117
      dz2     :     0.003990  d :     0.023110
      dxz     :     0.003958
      dyz     :     0.006819
      dx2y2   :     0.003605
      dxy     :     0.004738
      f0      :     0.000186  f :     0.001428
      f+1     :     0.000436
      f-1     :     0.000121
      f+2     :     0.000275
      f-2     :     0.000308
      f+3     :     0.000045
      f-3     :     0.000056

 21 C s       :     3.247014  s :     3.247014
      pz      :     0.852971  p :     2.719314
      px      :     0.839568
      py      :     1.026775
      dz2     :     0.027996  d :     0.140255
      dxz     :     0.026733
      dyz     :     0.033527
      dx2y2   :     0.026155
      dxy     :     0.025845
      f0      :     0.001519  f :     0.009925
      f+1     :     0.001833
      f-1     :     0.000921
      f+2     :     0.002072
      f-2     :     0.001447
      f+3     :     0.001159
      f-3     :     0.000974

 22 C s       :     3.291863  s :     3.291863
      pz      :     1.048231  p :     3.066592
      px      :     0.939758
      py      :     1.078603
      dz2     :     0.003977  d :     0.050943
      dxz     :     0.012429
      dyz     :     0.014939
      dx2y2   :     0.007144
      dxy     :     0.012454
      f0      :     0.000204  f :     0.003199
      f+1     :     0.000507
      f-1     :     0.000283
      f+2     :     0.000658
      f-2     :     0.000462
      f+3     :     0.000553
      f-3     :     0.000530

 23 O s       :     3.724346  s :     3.724346
      pz      :     1.247465  p :     4.595137
      px      :     1.635896
      py      :     1.711776
      dz2     :     0.005496  d :     0.021634
      dxz     :     0.005120
      dyz     :     0.005764
      dx2y2   :     0.002792
      dxy     :     0.002462
      f0      :     0.000516  f :     0.001528
      f+1     :     0.000302
      f-1     :     0.000358
      f+2     :     0.000125
      f-2     :     0.000157
      f+3     :     0.000033
      f-3     :     0.000036

 24 C s       :     3.248375  s :     3.248375
      pz      :     0.682915  p :     2.710161
      px      :     1.086724
      py      :     0.940522
      dz2     :     0.042689  d :     0.144343
      dxz     :     0.031382
      dyz     :     0.033121
      dx2y2   :     0.011197
      dxy     :     0.025953
      f0      :     0.002191  f :     0.010093
      f+1     :     0.002367
      f-1     :     0.002502
      f+2     :     0.000984
      f-2     :     0.000996
      f+3     :     0.000560
      f-3     :     0.000493

 25 C s       :     3.293253  s :     3.293253
      pz      :     0.991564  p :     3.057089
      px      :     1.092366
      py      :     0.973159
      dz2     :     0.015524  d :     0.050260
      dxz     :     0.002054
      dyz     :     0.007413
      dx2y2   :     0.008347
      dxy     :     0.016924
      f0      :     0.000498  f :     0.003231
      f+1     :     0.000189
      f-1     :     0.000809
      f+2     :     0.000424
      f-2     :     0.000437
      f+3     :     0.000421
      f-3     :     0.000454

 26 H s       :     0.850725  s :     0.850725
      pz      :     0.008187  p :     0.018266
      px      :     0.006063
      py      :     0.004017

 27 H s       :     0.846419  s :     0.846419
      pz      :     0.003699  p :     0.018279
      px      :     0.003843
      py      :     0.010737

 28 H s       :     0.857594  s :     0.857594
      pz      :     0.004421  p :     0.018392
      px      :     0.010573
      py      :     0.003399

 29 H s       :     0.842275  s :     0.842275
      pz      :     0.004603  p :     0.017899
      px      :     0.011208
      py      :     0.002088

 30 H s       :     0.799762  s :     0.799762
      pz      :     0.010486  p :     0.020132
      px      :     0.006792
      py      :     0.002854

 31 H s       :     0.794692  s :     0.794692
      pz      :     0.009329  p :     0.020372
      px      :     0.006620
      py      :     0.004423

 32 H s       :     0.787104  s :     0.787104
      pz      :     0.003568  p :     0.019835
      px      :     0.005721
      py      :     0.010546

 33 H s       :     0.780152  s :     0.780152
      pz      :     0.003653  p :     0.019523
      px      :     0.008495
      py      :     0.007375

 34 H s       :     0.784367  s :     0.784367
      pz      :     0.010128  p :     0.020068
      px      :     0.005836
      py      :     0.004103

 35 H s       :     0.819098  s :     0.819098
      pz      :     0.009853  p :     0.019809
      px      :     0.003090
      py      :     0.006867

 36 H s       :     0.833343  s :     0.833343
      pz      :     0.003039  p :     0.019699
      px      :     0.009698
      py      :     0.006961

 37 H s       :     0.831545  s :     0.831545
      pz      :     0.008121  p :     0.019638
      px      :     0.008293
      py      :     0.003224

 38 H s       :     0.830296  s :     0.830296
      pz      :     0.009528  p :     0.019720
      px      :     0.003006
      py      :     0.007187

 39 H s       :     0.782831  s :     0.782831
      pz      :     0.002940  p :     0.020686
      px      :     0.010789
      py      :     0.006957

 40 H s       :     0.773463  s :     0.773463
      pz      :     0.006242  p :     0.020499
      px      :     0.006105
      py      :     0.008152

 41 H s       :     0.822974  s :     0.822974
      pz      :     0.004476  p :     0.019690
      px      :     0.003530
      py      :     0.011684

 42 H s       :     0.831340  s :     0.831340
      pz      :     0.011348  p :     0.019652
      px      :     0.005242
      py      :     0.003062

 43 H s       :     0.832585  s :     0.832585
      pz      :     0.005606  p :     0.019705
      px      :     0.005623
      py      :     0.008476

 44 H s       :     0.789072  s :     0.789072
      pz      :     0.004387  p :     0.019494
      px      :     0.003532
      py      :     0.011575

 45 H s       :     0.858165  s :     0.858165
      pz      :     0.007937  p :     0.017859
      px      :     0.002892
[...]
      px      :     0.011373
      py      :     0.030628

 42 H s       :     0.795044  s :     0.795044
      pz      :     0.029690  p :     0.055787
      px      :     0.015340
      py      :     0.010757

 43 H s       :     0.795043  s :     0.795043
      pz      :     0.016461  p :     0.055940
      px      :     0.016286
      py      :     0.023194

 44 H s       :     0.795524  s :     0.795524
      pz      :     0.013862  p :     0.056283
      px      :     0.011743
      py      :     0.030677

 45 H s       :     0.822134  s :     0.822134
      pz      :     0.021794  p :     0.053839
      px      :     0.009988
      py      :     0.022057

 46 H s       :     0.821019  s :     0.821019
      pz      :     0.012923  p :     0.055240
      px      :     0.013305
      py      :     0.029011

 47 H s       :     0.815879  s :     0.815879
      pz      :     0.024300  p :     0.058860
      px      :     0.011640
      py      :     0.022920

 48 H s       :     0.817745  s :     0.817745
      pz      :     0.015532  p :     0.057918
      px      :     0.014694
      py      :     0.027692

 49 H s       :     0.818717  s :     0.818717
      pz      :     0.023796  p :     0.057438
      px      :     0.019232
      py      :     0.014410

 50 H s       :     0.827786  s :     0.827786
      pz      :     0.008444  p :     0.053993
      px      :     0.020724
      py      :     0.024826

 51 H s       :     0.821936  s :     0.821936
      pz      :     0.008122  p :     0.053967
      px      :     0.032176
      py      :     0.013668

 52 H s       :     0.817327  s :     0.817327
      pz      :     0.012027  p :     0.057998
      px      :     0.021626
      py      :     0.024344

 53 H s       :     0.804573  s :     0.804573
      pz      :     0.012927  p :     0.064318
      px      :     0.036331
      py      :     0.015060

 54 H s       :     0.820079  s :     0.820079
      pz      :     0.030775  p :     0.057362
      px      :     0.012816
      py      :     0.013771



                      *****************************
                      * MAYER POPULATION ANALYSIS *
                      *****************************

  NA   - Mulliken gross atomic population
  ZA   - Total nuclear charge
  QA   - Mulliken gross atomic charge
  VA   - Mayer's total valence
  BVA  - Mayer's bonded valence
  FA   - Mayer's free valence

  ATOM       NA         ZA         QA         VA         BVA        FA
  0 C      6.3805     6.0000    -0.3805     3.8413     3.8413    -0.0000
  1 C      6.1543     6.0000    -0.1543     3.7410     3.7410    -0.0000
  2 O      8.3609     8.0000    -0.3609     1.9692     1.9692    -0.0000
  3 Si    13.3326    14.0000     0.6674     4.6493     4.6493    -0.0000
  4 C      6.4449     6.0000    -0.4449     3.7179     3.7179    -0.0000
  5 C      6.4285     6.0000    -0.4285     3.7086     3.7086    -0.0000
  6 P     14.4026    15.0000     0.5974     4.8228     4.8228    -0.0000
  7 O      8.6474     8.0000    -0.6474     1.8470     1.8470    -0.0000
  8 C      5.9828     6.0000     0.0172     3.7039     3.7039    -0.0000
  9 C      6.2019     6.0000    -0.2019     3.9690     3.9690    -0.0000
 10 C      6.1638     6.0000    -0.1638     4.0269     4.0269    -0.0000
 11 C      6.1371     6.0000    -0.1371     3.9448     3.9448    -0.0000
 12 C      6.1385     6.0000    -0.1385     3.9122     3.9122    -0.0000
 13 C      6.1545     6.0000    -0.1545     3.9268     3.9268    -0.0000
 14 C      5.9358     6.0000     0.0642     3.6544     3.6544    -0.0000
 15 C      6.2053     6.0000    -0.2053     3.9856     3.9856    -0.0000
 16 C      6.1308     6.0000    -0.1308     3.9200     3.9200    -0.0000
 17 C      6.1326     6.0000    -0.1326     3.9634     3.9634    -0.0000
 18 C      6.1550     6.0000    -0.1550     4.0309     4.0309    -0.0000
 19 C      6.2445     6.0000    -0.2445     3.9408     3.9408    -0.0000
 20 O      8.3800     8.0000    -0.3800     2.0693     2.0693    -0.0000
 21 C      6.1165     6.0000    -0.1165     3.8558     3.8558    -0.0000
 22 C      6.4126     6.0000    -0.4126     3.8004     3.8004    -0.0000
 23 O      8.3426     8.0000    -0.3426     1.9979     1.9979    -0.0000
 24 C      6.1130     6.0000    -0.1130     3.8359     3.8359    -0.0000
 25 C      6.4038     6.0000    -0.4038     3.7713     3.7713    -0.0000
 26 H      0.8690     1.0000     0.1310     0.9606     0.9606    -0.0000
 27 H      0.8647     1.0000     0.1353     0.9611     0.9611    -0.0000
 28 H      0.8760     1.0000     0.1240     0.9656     0.9656     0.0000
 29 H      0.8602     1.0000     0.1398     0.9549     0.9549    -0.0000
 30 H      0.8199     1.0000     0.1801     0.9468     0.9468     0.0000
 31 H      0.8151     1.0000     0.1849     0.9631     0.9631    -0.0000
 32 H      0.8069     1.0000     0.1931     0.9424     0.9424    -0.0000
 33 H      0.7997     1.0000     0.2003     0.9379     0.9379    -0.0000
 34 H      0.8044     1.0000     0.1956     0.9499     0.9499    -0.0000
 35 H      0.8389     1.0000     0.1611     0.9636     0.9636    -0.0000
 36 H      0.8530     1.0000     0.1470     0.9663     0.9663    -0.0000
 37 H      0.8512     1.0000     0.1488     0.9634     0.9634     0.0000
 38 H      0.8500     1.0000     0.1500     0.9661     0.9661     0.0000
 39 H      0.8035     1.0000     0.1965     0.9699     0.9699    -0.0000
 40 H      0.7940     1.0000     0.2060     0.9529     0.9529    -0.0000
 41 H      0.8427     1.0000     0.1573     0.9622     0.9622    -0.0000
 42 H      0.8510     1.0000     0.1490     0.9629     0.9629     0.0000
 43 H      0.8523     1.0000     0.1477     0.9655     0.9655    -0.0000
 44 H      0.8086     1.0000     0.1914     0.9414     0.9414     0.0000
 45 H      0.8760     1.0000     0.1240     0.9532     0.9532    -0.0000
 46 H      0.8655     1.0000     0.1345     0.9531     0.9531    -0.0000
 47 H      0.8488     1.0000     0.1512     0.9637     0.9637    -0.0000
 48 H      0.8606     1.0000     0.1394     0.9616     0.9616     0.0000
 49 H      0.8667     1.0000     0.1333     0.9614     0.9614     0.0000
 50 H      0.8818     1.0000     0.1182     0.9379     0.9379    -0.0000
 51 H      0.8691     1.0000     0.1309     0.9490     0.9490    -0.0000
 52 H      0.8614     1.0000     0.1386     0.9633     0.9633    -0.0000
 53 H      0.8346     1.0000     0.1654     0.9854     0.9854    -0.0000
 54 H      0.8716     1.0000     0.1284     0.9626     0.9626     0.0000

  Mayer bond orders larger than 0.100000
B(  0-C ,  1-C ) :   0.9473 B(  0-C , 26-H ) :   0.9715 B(  0-C , 27-H ) :   0.9770 
B(  0-C , 28-H ) :   0.9723 B(  1-C ,  2-O ) :   0.8229 B(  1-C , 29-H ) :   0.9675 
B(  1-C , 30-H ) :   0.9666 B(  2-O ,  3-Si) :   1.1489 B(  3-Si,  4-C ) :   0.9705 
B(  3-Si, 20-O ) :   1.1917 B(  3-Si, 23-O ) :   1.1397 B(  4-C ,  5-C ) :   0.8714 
B(  4-C , 31-H ) :   0.9480 B(  4-C , 32-H ) :   0.9431 B(  5-C ,  6-P ) :   0.9270 
B(  5-C , 33-H ) :   0.9510 B(  5-C , 34-H ) :   0.9352 B(  6-P ,  7-O ) :   1.7524 
B(  6-P ,  8-C ) :   0.9304 B(  6-P , 14-C ) :   0.9522 B(  8-C ,  9-C ) :   1.3493 
B(  8-C , 13-C ) :   1.4052 B(  9-C , 10-C ) :   1.5149 B(  9-C , 35-H ) :   0.9059 
B( 10-C , 11-C ) :   1.4344 B( 10-C , 36-H ) :   0.9439 B( 11-C , 12-C ) :   1.4418 
B( 11-C , 37-H ) :   0.9461 B( 12-C , 13-C ) :   1.4304 B( 12-C , 38-H ) :   0.9470 
B( 13-C , 39-H ) :   0.9068 B( 14-C , 15-C ) :   1.3861 B( 14-C , 19-C ) :   1.3098 
B( 15-C , 16-C ) :   1.4404 B( 15-C , 40-H ) :   0.9107 B( 16-C , 17-C ) :   1.4433 
B( 16-C , 41-H ) :   0.9463 B( 17-C , 18-C ) :   1.4491 B( 17-C , 42-H ) :   0.9451 
B( 18-C , 19-C ) :   1.5064 B( 18-C , 43-H ) :   0.9397 B( 19-C , 44-H ) :   0.9230 
B( 20-O , 21-C ) :   0.9184 B( 21-C , 22-C ) :   0.9448 B( 21-C , 45-H ) :   0.9688 
B( 21-C , 46-H ) :   0.9902 B( 22-C , 47-H ) :   0.9586 B( 22-C , 48-H ) :   0.9693 
B( 22-C , 49-H ) :   0.9681 B( 23-O , 24-C ) :   0.8914 B( 24-C , 25-C ) :   0.9436 
B( 24-C , 50-H ) :   0.9858 B( 24-C , 51-H ) :   0.9670 B( 25-C , 52-H ) :   0.9718 
B( 25-C , 53-H ) :   0.9489 B( 25-C , 54-H ) :   0.9680 

-------
TIMINGS
-------

Total SCF time: 0 days 0 hours 3 min 57 sec 

Total time                  ....     237.974 sec
Sum of individual times     ....     238.148 sec  (100.1%)

SCF preparation             ....       0.507 sec  (  0.2%)
Fock matrix formation       ....     229.381 sec  ( 96.4%)
  Startup                   ....       0.247 sec  (  0.1% of F)
  Split-RI-J                ....      17.562 sec  (  7.7% of F)
  Chain of spheres X        ....     170.268 sec  ( 74.2% of F)
  XC integration            ....      40.694 sec  ( 17.7% of F)
    Basis function eval.    ....       5.686 sec  ( 14.0% of XC)
    Density eval.           ....      17.648 sec  ( 43.4% of XC)
    XC-Functional eval.     ....       0.633 sec  (  1.6% of XC)
    XC-Potential eval.      ....      13.952 sec  ( 34.3% of XC)
Diagonalization             ....       0.000 sec  (  0.0%)
Density matrix formation    ....       0.643 sec  (  0.3%)
Total Energy calculation    ....       0.209 sec  (  0.1%)
Population analysis         ....       0.377 sec  (  0.2%)
Orbital Transformation      ....       1.005 sec  (  0.4%)
Orbital Orthonormalization  ....       0.000 sec  (  0.0%)
DIIS solution               ....       4.225 sec  (  1.8%)
SOSCF solution              ....       1.801 sec  (  0.8%)
Finished LeanSCF after 238.1 sec

Maximum memory used throughout the entire LEANSCF-calculation: 170.0 MB


-------------------------------------------------------------------------------
                          DFT DISPERSION CORRECTION                            
                                                                               
                              DFTD3 V3.1  Rev 1                                
                              USING zero damping                               
-------------------------------------------------------------------------------
The M062X functional is recognized
Active option DFTDOPT                   ...         3   

molecular C6(AA) [au] = 33222.190675 


            DFT-D V3
 parameters
 s6 scaling factor         :     1.0000 
 rs6 scaling factor        :     1.6190 
 s8 scaling factor         :     0.0000 
 rs8 scaling factor        :     1.0000 
 Damping factor alpha6     :    14.0000 
 Damping factor alpha8     :    16.0000 
 ad hoc parameters k1-k3   :    16.0000     1.3333    -4.0000 

 Edisp/kcal,au: -3.207339487013  -0.005111220272 
 E6   /kcal   :  -3.207339487 
 E8   /kcal   :  -0.000000000 
 % E8         :   0.000000000 

-------------------------   ----------------
Dispersion correction           -0.005111220
-------------------------   ----------------


-------------------------   --------------------
FINAL SINGLE POINT ENERGY     -1711.463734007238
-------------------------   --------------------



           ************************************************************
           *        Program running with 6 parallel MPI-processes     *
           *              working on a common directory               *
           ************************************************************

------------------------------------------------------------------------------
                              ORCA PROPERTY CALCULATIONS
------------------------------------------------------------------------------

GBWName                                 ... data/single_point_PO_M06-2x/87708/87708.gbw
Number of atoms                         ...     55
Number of basis functions               ...    992
Max core memory                         ...   1024 MB

Electric properties:
Dipole moment                           ... YES
Quadrupole moment                       ...  NO
Static polarizability (Dipole/Dipole)   ...  NO
Static polarizability (Dipole/Quad.)    ...  NO
Static polarizability (Quad./Quad.)     ...  NO
Static polarizability (Velocity)        ...  NO

Atomic electric properties:
Dipole moment                           ...  NO
Quadrupole moment                       ...  NO
Static polarizability                   ...  NO

Choice of electric origin               ... Center of mass
Position of electric origin             ...     0.434099    -0.080871     0.133960

General magnetic properties:
Magnetizability                         ...  NO

EPR properties:
g-Tensor (aka g-matrix)                 ...  NO
Zero-Field splitting spin-orbit         ...  NO
Zero-field splitting spin-spin          ...  NO
Hyperfine couplings                     ...  NO (   0 nuclei)
Quadrupole couplings                    ...  NO (   0 nuclei)
Contact density                         ...  NO (   0 nuclei)

NMR properties:
Chemical shifts                         ...  NO (   0 nuclei)
Spin-rotation constants                 ...  NO (   0 nuclei)
Spin-spin couplings                     ...  NO (   0 nuclei,    0 pairs)

Choice of magnetic origin               ... GIAO
Position of magnetic origin             ...     0.000000     0.000000     0.000000

Properties with geometric perturbations:
SCF Hessian                             ...  NO
IR spectrum                             ...  NO
VCD spectrum                            ...  NO
X-ray spectroscopy properties:
SCF XES/XAS/RIXS spectra                ...  NO


-------------
DIPOLE MOMENT
-------------

Method             : SCF
Type of density    : Electron Density
Multiplicity       :   1
Irrep              :   0
Energy             : -1711.4586227869658615 Eh
Relativity type    : 
Basis              : AO
                                X                 Y                 Z
Electronic contribution:     19.014015820      -1.754323183       5.283764683
Nuclear contribution   :    -17.735727188       1.170405635      -5.147238632
                        -----------------------------------------
Total Dipole Moment    :      1.278288632      -0.583917549       0.136526051
                        -----------------------------------------
Magnitude (a.u.)       :      1.411956406
Magnitude (Debye)      :      3.588907969



--------------------
Rotational spectrum 
--------------------
 
Rotational constants in cm-1:             0.008714             0.004344             0.003559 
Rotational constants in MHz :           261.254091           130.219108           106.693109 

Dipole components along the rotational axes: 
x,y,z [a.u.] :     1.112828    -0.388774    -0.777231 
x,y,z [Debye]:     2.828585    -0.988185    -1.975565 

 

Dipole moment calculation done in   0.1 sec 

Maximum memory used throughout the entire PROP-calculation: 93.7 MB

--------------------------------
SUGGESTED CITATIONS FOR THIS RUN
--------------------------------

Below you find a list of papers that are relevant to this ORCA run
We neither can nor want to force you to cite these papers, but we appreciate if you do
You receive ORCA, which is the product of decades of hard work by many enthusiastic individuals, for free
The only thing we kindly ask in return is that you cite our papers,
We deeply appreciate it, if you show your appreciation for ORCA by not just citing the generic ORCA reference.

Please note that relegating all ORCA citations to the supporting information does *not* help us.
SI sections are not indexed - citations you put there will not count into any citation statistics
But we need these citations in order to attract the funding resources that allow us to do what we are doing

Therefore, if you are a happy ORCA user, please consider citing a few of the papers listed below in the main body of your paper

In addition to the list printed below, the program has created the file data/single_point_PO_M06-2x/87708/87708.bibtex that contains the list in bibtex format
You can import this file easily into all common literature databanks and citation aid programs


List of essential papers. We consider these as the minimum necessary citations

  1. Neese,F.
     Software update: the ORCA program system, version 5.0
     WIRES Comput. Molec. Sci., 2022 12(1)e1606
     doi.org/10.1002/wcms.1606

List of papers to cite with high priority. The work reported in these papers was absolutely
necessary for this run to complete.
Our perspective: the developers of density functionals and basis sets usually get cited in chemistry papers
Good! But without the algorithms to do something with them, the functionals or basis sets would not do anything.
Hence, in our opinion, the algorithm design and method developments papers are equally worthy of getting cited

  1. Neese,F.
     An improvement of the resolution of the identity approximation for the formation of the Coulomb matrix
     J. Comp. Chem., 2003 24(14)1740-1747
     doi.org/10.1002/jcc.10318
  2. Neese,F.; Wennmohs,F.; Hansen,A.; Becker,U.
     Efficient, approximate and parallel Hartree-Fock and hybrid DFT calculations. A 'chain-of-spheres' algorithm for the Hartree-Fock exchange
     Chem. Phys., 2009 356(1-3)98-109
     doi.org/10.1016/j.chemphys.2008.10.036
  3. Helmich-Paris,B.; de Souza,B.; Neese,F.; Izsák,R.
     An improved chain of spheres for exchange algorithm
     J. Chem. Phys., 2021 155 104109
     doi.org/doi: 10.1063/5.0058766.
  4. Neese,F.
     The SHARK Integral Generation and Digestion System
     J. Comp. Chem., 2022  1-16
     doi.org/10.1002/jcc.26942
  5. Grimme,S.; Antony,J.; Ehrlich,S.; Krieg,H.
     A consistent and accurate ab initio parametrization of density functional dispersion correction (DFT-D) for the 94 elements H-Pu
     J. Chem. Phys., 2010 132 154104-XXXX
     doi.org/10.1063/1.3382344

List of suggested additional citations. These are papers that are important in the 'surrounding' of 
of this run, or papers that preceded the highly important papers. If you like your results we are grateful for a citation.

  1. Izsak,R.; Neese,F.
     An overlap fitted chain of spheres exchange method
     J. Chem. Phys., 2011 135 144105
     doi.org/10.1063/1.3646921
  2. Izsak,R.; Hansen,A.; Neese,F.
     The resolution of identity and chain of spheres approximations for the LPNO-CCSD singles Fock term
     Molec. Phys., 2012 110 2413-2417
     doi.org/10.1080/00268976.2012.687466
  3. Neese,F.
     The ORCA program system
     WIRES Comput. Molec. Sci., 2012 2(1)73-78
     doi.org/10.1002/wcms.81
  4. Izsak,R.; Neese,F.; Klopper,W.
     Robust fitting techniques in the chain of spheres approximation to the Fock exchange: The role of the complementary space
     J. Chem. Phys., 2013 139 
     doi.org/10.1063/1.4819264
  5. Neese,F.
     Software update: the ORCA program system, version 4.0
     WIRES Comput. Molec. Sci., 2018 8(1)1-6
     doi.org/10.1002/wcms.1327
  6. Neese,F.; Wennmohs,F.; Becker,U.; Riplinger,C.
     The ORCA quantum chemistry program package
     J. Chem. Phys., 2020 152 Art. No. L224108
     doi.org/10.1063/5.0004608

List of optional additional citations

  1. Neese,F.
     Approximate second-order SCF convergence for spin unrestricted wavefunctions
     Chem. Phys. Lett., 2000 325(1-3)93-98
     doi.org/10.1016/s0009-2614(00)00662-x

Timings for individual modules:

Sum of individual times          ...      249.754 sec (=   4.163 min)
Startup calculation              ...        7.433 sec (=   0.124 min)   3.0 %
SCF iterations                   ...      241.808 sec (=   4.030 min)  96.8 %
Property calculations            ...        0.513 sec (=   0.009 min)   0.2 %
                             ****ORCA TERMINATED NORMALLY****
TOTAL RUN TIME: 0 days 0 hours 4 minutes 10 seconds 21 msec
