
                                 *****************
                                 * O   R   C   A *
                                 *****************

                                            #,                                       
                                            ###                                      
                                            ####                                     
                                            #####                                    
                                            ######                                   
                                           ########,                                 
                                     ,,################,,,,,                         
                               ,,#################################,,                 
                          ,,##########################################,,             
                       ,#########################################, ''#####,          
                    ,#############################################,,   '####,        
                  ,##################################################,,,,####,       
                ,###########''''           ''''###############################       
              ,#####''   ,,,,##########,,,,          '''####'''          '####       
            ,##' ,,,,###########################,,,                        '##       
           ' ,,###''''                  '''############,,,                           
         ,,##''                                '''############,,,,        ,,,,,,###''
      ,#''                                            '''#######################'''  
     '                                                          ''''####''''         
             ,#######,   #######,   ,#######,      ##                                
            ,#'     '#,  ##    ##  ,#'     '#,    #''#        ,####,   ,####,        
            ##       ##  ##   ,#'  ##            #'  '#       #'       #'  '#        
            ##       ##  #######   ##           ,######,      #####,   #    #        
            '#,     ,#'  ##    ##  '#,     ,#' ,#      #,     #,   #   #,  ,#        
             '#######'   ##     ##  '#######'  #'      '#     '####' # '####'        



                #########################################################
                #                        -***-                          #
                #          Department of theory and spectroscopy        #
                #                                                       #
                #                      Frank Neese                      #
                #                                                       #
                #     Directorship, Architecture, Infrastructure        #
                #                    SHARK, DRIVERS                     #
                #        Core code/Algorithms in most modules           #
                #                                                       #
                #        Max Planck Institute fuer Kohlenforschung      #
                #                Kaiser Wilhelm Platz 1                 #
                #                 D-45470 Muelheim/Ruhr                 #
                #                      Germany                          #
                #                                                       #
                #                  All rights reserved                  #
                #                        -***-                          #
                #########################################################


                         Program Version 6.0.0  -   RELEASE   -


 With contributions from (in alphabetic order):
   Daniel Aravena         : Magnetic Suceptibility
   Michael Atanasov       : Ab Initio Ligand Field Theory (pilot matlab implementation)
   Alexander A. Auer      : GIAO ZORA, VPT2 properties, NMR spectrum
   Ute Becker             : All parallelization in ORCA, NUMFREQ, NUMCALC
   Giovanni Bistoni       : ED, misc. LED, open-shell LED, HFLD
   Martin Brehm           : Molecular dynamics
   Dmytro Bykov           : pre 5.0 version of the SCF Hessian
   Marcos Casanova-Páez   : Triplet and SCS-CIS(D). UHF-(DLPNO)-IP/EA/STEOM-CCSD. UHF-CVS-IP/STEOM-CCSD
   Vijay G. Chilkuri      : MRCI spin determinant printing, contributions to CSF-ICE
   Pauline Colinet        : FMM embedding
   Dipayan Datta          : RHF DLPNO-CCSD density
   Achintya Kumar Dutta   : EOM-CC, STEOM-CC
   Nicolas Foglia         : Exact transition moments, OPA infrastructure, MCD improvements
   Dmitry Ganyushin       : Spin-Orbit,Spin-Spin,Magnetic field MRCI
   Miquel Garcia          : C-PCM and meta-GGA Hessian, CCSD/C-PCM, Gaussian charge scheme
   Tiago L. C. Gouveia    : GS-ROHF, GS-ROCIS
   Yang Guo               : DLPNO-NEVPT2, F12-NEVPT2, CIM, IAO-localization
   Andreas Hansen         : Spin unrestricted coupled pair/coupled cluster methods
   Ingolf Harden          : AUTO-CI MPn and infrastructure 
   Benjamin Helmich-Paris : MC-RPA, TRAH-(SCF,CASSCF), AVAS, COSX integrals, SCF dyn. polar.
   Lee Huntington         : MR-EOM, pCC
   Robert Izsak           : Overlap fitted RIJCOSX, COSX-SCS-MP3, EOM
   Riya Kayal             : Wick's Theorem for AUTO-CI, AUTO-CI UHF-CCSDT
   Emily Kempfer          : AUTO-CI, RHF CISDT and CCSDT
   Christian Kollmar      : KDIIS, OOCD, Brueckner-CCSD(T), CCSD density, CASPT2, CASPT2-K, improved NEVPT2
   Axel Koslowski         : Symmetry handling
   Simone Kossmann        : Meta GGA functionals, TD-DFT gradient, OOMP2, (MP2 Hessian; deprecated post 5.0)
   Lucas Lang             : DCDCAS
   Marvin Lechner         : AUTO-CI (C++ implementation), FIC-MRCC
   Spencer Leger          : CASSCF response
   Dagmar Lenk            : GEPOL surface, SMD, ORCA-2-JSON
   Dimitrios Liakos       : Extrapolation schemes; Compound Job, initial MDCI parallelization
   Dimitrios Manganas     : Further ROCIS development; embedding schemes. LFT, Crystal Embedding
   Dimitrios Pantazis     : SARC Basis sets
   Anastasios Papadopoulos: AUTO-CI, single reference methods and gradients
   Taras Petrenko         : pre 6.0 DFT Hessian and TD-DFT gradient, (ASA, deprecated), ECA, 1-Electron XAS/XES, NRVS
   Peter Pinski           : DLPNO-MP2, DLPNO-MP2 Gradient
   Christoph Reimann      : Effective Core Potentials
   Marius Retegan         : Local ZFS, SOC
   Christoph Riplinger    : Optimizer, TS searches, QM/MM, DLPNO-CCSD(T), (RO)-DLPNO pert. Triples
   Michael Roemelt        : Original ROCIS implementation
   Masaaki Saitow         : Open-shell DLPNO-CCSD energy and density
   Barbara Sandhoefer     : DKH picture change effects
   Kantharuban Sivalingam : CASSCF convergence/infrastructure, NEVPT2 and variants, FIC-MRCI
   Bernardo de Souza      : ESD, SOC TD-DFT
   Georgi Stoychev        : AutoAux, RI-MP2 NMR, DLPNO-MP2 response, X2C
   Van Anh Tran           : RI-MP2 g-tensors
   Willem Van den Heuvel  : Paramagnetic NMR
   Zikuan Wang            : NOTCH, Electric field optimization 
   Frank Wennmohs         : Technical directorship and infrastructure
   Hang Xu                : AUTO-CI-Response properties 


 We gratefully acknowledge several colleagues who have allowed us to
 interface, adapt or use parts of their codes:
   Stefan Grimme, W. Hujo, H. Kruse, P. Pracht,  : VdW corrections, initial TS optimization,
                  C. Bannwarth, S. Ehlert,         DFT functionals, gCP, sTDA/sTD-DF
                  L. Wittmann, M. Mueller
   Ed Valeev, F. Pavosevic, A. Kumar             : LibInt (2-el integral package), F12 methods
   Garnet Chan, S. Sharma, J. Yang, R. Olivares  : DMRG
   Ulf Ekstrom                                   : XCFun DFT Library
   Mihaly Kallay                                 : mrcc  (arbitrary order and MRCC methods)
   Frank Weinhold                                : gennbo (NPA and NBO analysis)
   Simon Mueller                                 : openCOSMO-RS
   Christopher J. Cramer and Donald G. Truhlar   : smd solvation model
   Lars Goerigk                                  : TD-DFT with DH, B97 family of functionals
   V. Asgeirsson, H. Jonsson                     : NEB implementation
   FAccTs GmbH                                   : IRC, NEB, NEB-TS, DLPNO-Multilevel, CI-OPT
                                                   MM, QMMM, 2- and 3-layer-ONIOM, Crystal-QMMM,
                                                   LR-CPCM, SF, NACMEs, symmetry and pop. for TD-DFT,
                                                   nearIR, NL-DFT gradient (VV10), updates on ESD,
                                                   ML-optimized integration grids, MBIS, APM,
                                                   GOAT, DOCKER, SOLVATOR, interface openCOSMO-RS
   S Lehtola, MJT Oliveira, MAL Marques          : LibXC Library
   Liviu Ungur et al                             : ANISO software


 Your calculation uses the libint2 library for the computation of 2-el integrals
 For citations please refer to: http://libint.valeyev.net

 Your ORCA version has been built with support for libXC version: 6.2.2
 For citations please refer to: https://libxc.gitlab.io

 This ORCA versions uses:
   CBLAS   interface :  Fast vector & matrix operations
   LAPACKE interface :  Fast linear algebra routines
   Shared memory     :  Shared parallel matrices


Your calculation utilizes the atom-pairwise dispersion correction
with the Becke-Johnson damping scheme (D3BJ)


Warning: RI is on but no J-basis has been assigned. Assigning Def2/J (nothing to worry about!)
================================================================================

----- Orbital basis set information -----
Your calculation utilizes the basis: def2-SVP
   F. Weigend and R. Ahlrichs, Phys. Chem. Chem. Phys. 7, 3297 (2005).

----- AuxJ basis set information -----
Your calculation utilizes the auxiliary basis: def2/J
   F. Weigend, Phys. Chem. Chem. Phys. 8, 1057 (2006).

================================================================================
                                        WARNINGS
                       Please study these warnings very carefully!
================================================================================


WARNING: Geometry Optimization
  ===> : Switching off AutoStart
         For restart on a previous wavefunction, please use MOREAD

================================================================================
                                       INPUT FILE
================================================================================
NAME = data/geom_opt_P_BP86/280677/280677.inp
|  1> ! RI BP86 def2-SVP D3BJ TIGHTSCF Opt
|  2> %pal
|  3> nprocs 6
|  4> end
|  5> 
|  6> * xyz 0 1
|  7> C     -1.882071   -3.461617    0.572196
|  8> C     -1.596128   -2.360058    1.374976
|  9> C     -1.010959   -1.220137    0.817890
| 10> C     -0.705455   -1.166350   -0.549853
| 11> C     -0.999797   -2.283823   -1.345200
| 12> C     -1.584377   -3.424015   -0.787804
| 13> P      0.068448    0.290059   -1.334932
| 14> C      1.616476    0.466242   -0.329726
| 15> C      2.583476   -0.702130   -0.550145
| 16> C      3.924560   -0.497096    0.156202
| 17> N      3.772381   -0.423969    1.604500
| 18> C     -1.001949    1.646886   -0.733020
| 19> C     -0.488473    2.825116   -0.172328
| 20> C     -1.338569    3.849900    0.257810
| 21> C     -2.717519    3.719599    0.122507
| 22> C     -3.247432    2.567916   -0.449804
| 23> C     -2.396708    1.545291   -0.879369
| 24> H     -2.338584   -4.347376    1.005705
| 25> H     -1.830374   -2.383620    2.435974
| 26> H     -0.803352   -0.371073    1.465625
| 27> H     -0.776699   -2.276773   -2.410153
| 28> H     -1.807528   -4.281049   -1.417687
| 29> H      1.372287    0.564138    0.733195
| 30> H      2.116886    1.391348   -0.637618
| 31> H      2.134814   -1.643182   -0.207448
| 32> H      2.779432   -0.825508   -1.623324
| 33> H      4.400900    0.421599   -0.202765
| 34> H      4.592415   -1.329701   -0.090985
| 35> H      4.693393   -0.370877    2.038647
| 36> H      3.347978   -1.286379    1.946659
| 37> H      0.581275    2.976169   -0.061498
| 38> H     -0.918773    4.752419    0.694504
| 39> H     -3.376686    4.516469    0.455651
| 40> H     -4.322512    2.461599   -0.567155
| 41> H     -2.840775    0.659983   -1.331225
| 42> **                         ****END OF INPUT****
================================================================================

                       *****************************
                       * Geometry Optimization Run *
                       *****************************

Geometry optimization settings:
Update method            Update   .... BFGS
Choice of coordinates    CoordSys .... (2022) Redundant Internals
Initial Hessian          InHess   .... Almloef's Model
Max. no of cycles        MaxIter  .... 105

Convergence Tolerances:
Energy Change            TolE     ....  5.0000e-06 Eh
Max. Gradient            TolMAXG  ....  3.0000e-04 Eh/bohr
RMS Gradient             TolRMSG  ....  1.0000e-04 Eh/bohr
Max. Displacement        TolMAXD  ....  4.0000e-03 bohr
RMS Displacement         TolRMSD  ....  2.0000e-03 bohr
Strict Convergence                .... False

------------------------------------------------------------------------------
                        ORCA OPTIMIZATION COORDINATE SETUP
------------------------------------------------------------------------------

The optimization will be done in redundant internal coordinates (2022)
Making redundant internal coordinates   ...  (2022 redundants) done
Evaluating the initial hessian          ...  (Almloef) done
Evaluating the coordinates              ...  done
Calculating the B-matrix                .... done
Calculating the G-matrix                .... done
Diagonalizing the G-matrix              .... done
Small eigenvalue found = 4.079e-03
Small eigenvalue found = 6.110e-03
Small eigenvalue found = 1.036e-02
Small eigenvalue found = 2.267e-02
Small eigenvalue found = 2.892e-02
The first mode is                       ....   75
The number of degrees of freedom        ....   99

    -----------------------------------------------------------------
                    Redundant Internal Coordinates


    -----------------------------------------------------------------
         Definition                    Initial Value    Approx d2E/dq
    -----------------------------------------------------------------
      1. B(C   1,C   0)                  1.3927         0.618599   
      2. B(C   2,C   1)                  1.3972         0.608471   
      3. B(C   3,C   2)                  1.4025         0.596801   
      4. B(C   4,C   3)                  1.4028         0.596010   
      5. B(C   5,C   4)                  1.3973         0.608252   
      6. B(C   5,C   0)                  1.3927         0.618612   
      7. B(P   6,C   3)                  1.8266         0.422371   
      8. B(C   7,P   6)                  1.8541         0.381691   
      9. B(C   8,C   7)                  1.5326         0.370066   
     10. B(C   9,C   8)                  1.5295         0.374216   
     11. B(N  10,C   9)                  1.4581         0.435729   
     12. B(C  11,P   6)                  1.8300         0.417047   
     13. B(C  12,C  11)                  1.4022         0.597339   
     14. B(C  13,C  12)                  1.3992         0.603951   
     15. B(C  14,C  13)                  1.3917         0.620940   
     16. B(C  15,C  14)                  1.3909         0.622637   
     17. B(C  16,C  15)                  1.3979         0.607008   
     18. B(C  16,C  11)                  1.4061         0.588933   
     19. B(H  17,C   0)                  1.0867         0.364500   
     20. B(H  18,C   1)                  1.0868         0.364353   
     21. B(H  19,C   2)                  1.0879         0.362861   
     22. B(H  20,C   4)                  1.0881         0.362631   
     23. B(H  21,C   5)                  1.0868         0.364406   
     24. B(H  22,C   7)                  1.0950         0.353553   
     25. B(H  23,C   7)                  1.0959         0.352360   
     26. B(H  24,C   8)                  1.0974         0.350424   
     27. B(H  25,C   8)                  1.0979         0.349829   
     28. B(H  26,C   9)                  1.0953         0.353112   
     29. B(H  27,C   9)                  1.0956         0.352754   
     30. B(H  28,N  10)                  1.0196         0.417728   
     31. B(H  29,N  10)                  1.0203         0.416694   
     32. B(H  30,C  12)                  1.0860         0.365390   
     33. B(H  31,C  13)                  1.0870         0.364151   
     34. B(H  32,C  14)                  1.0865         0.364756   
     35. B(H  33,C  15)                  1.0867         0.364520   
     36. B(H  34,C  16)                  1.0886         0.361902   
     37. A(C   1,C   0,C   5)          119.8437         0.433714   
     38. A(C   5,C   0,H  17)          120.0899         0.353501   
     39. A(C   1,C   0,H  17)          120.0662         0.353500   
     40. A(C   2,C   1,H  18)          119.8152         0.352489   
     41. A(C   0,C   1,C   2)          120.0967         0.432427   
     42. A(C   0,C   1,H  18)          120.0878         0.353476   
     43. A(C   1,C   2,H  19)          118.6374         0.352245   
     44. A(C   1,C   2,C   3)          120.7544         0.429650   
     45. A(C   3,C   2,H  19)          120.6067         0.351094   
     46. A(C   2,C   3,P   6)          122.8222         0.429281   
     47. A(C   2,C   3,C   4)          118.4674         0.428058   
     48. A(C   4,C   3,P   6)          118.7090         0.429179   
     49. A(C   3,C   4,C   5)          120.7719         0.429520   
     50. A(C   5,C   4,H  20)          118.7828         0.352186   
     51. A(C   3,C   4,H  20)          120.4453         0.350977   
     52. A(C   0,C   5,H  21)          120.0530         0.353486   
     53. A(C   4,C   5,H  21)          119.8810         0.352477   
     54. A(C   0,C   5,C   4)          120.0659         0.432401   
     55. A(C   7,P   6,C  11)          103.8613         0.421713   
     56. A(C   3,P   6,C   7)          101.3316         0.422670   
     57. A(C   3,P   6,C  11)          101.6528         0.429428   
     58. A(P   6,C   7,C   8)          112.1097         0.387474   
     59. A(P   6,C   7,H  23)          108.0066         0.344299   
     60. A(C   8,C   7,H  23)          108.3624         0.322665   
     61. A(H  22,C   7,H  23)          107.4020         0.289017   
     62. A(C   8,C   7,H  22)          110.3942         0.322844   
     63. A(P   6,C   7,H  22)          110.3997         0.344494   
     64. A(C   7,C   8,C   9)          112.6198         0.362872   
     65. A(H  24,C   8,H  25)          106.3710         0.288289   
     66. A(C   9,C   8,H  25)          108.0584         0.322873   
     67. A(C   7,C   8,H  25)          109.8086         0.322284   
     68. A(C   9,C   8,H  24)          109.2204         0.322963   
     69. A(C   7,C   8,H  24)          110.5402         0.322374   
     70. A(H  26,C   9,H  27)          107.3592         0.289011   
     71. A(C   8,C   9,N  10)          111.9572         0.370849   
     72. A(N  10,C   9,H  27)          109.0159         0.329531   
     73. A(C   8,C   9,H  27)          109.1722         0.323315   
     74. A(N  10,C   9,H  26)          109.1985         0.329586   
     75. A(C   8,C   9,H  26)          110.0225         0.323368   
     76. A(H  28,N  10,H  29)          106.0795         0.299749   
     77. A(C   9,N  10,H  29)          109.5195         0.335862   
     78. A(C   9,N  10,H  28)          109.3462         0.336000   
     79. A(P   6,C  11,C  12)          122.7050         0.428375   
     80. A(C  12,C  11,C  16)          117.7466         0.427212   
     81. A(P   6,C  11,C  16)          119.4976         0.427288   
     82. A(C  13,C  12,H  30)          117.7230         0.352214   
     83. A(C  11,C  12,H  30)          121.2229         0.351559   
     84. A(C  11,C  12,C  13)          121.0534         0.429145   
     85. A(C  14,C  13,H  31)          119.9656         0.353669   
     86. A(C  12,C  13,H  31)          119.8003         0.352012   
     87. A(C  12,C  13,C  14)          120.2334         0.432141   
     88. A(C  15,C  14,H  32)          120.1521         0.353932   
     89. A(C  13,C  14,H  32)          120.1758         0.353768   
     90. A(C  13,C  14,C  15)          119.6706         0.434516   
     91. A(C  16,C  15,H  33)          119.8238         0.352373   
     92. A(C  14,C  15,H  33)          120.1555         0.353893   
     93. A(C  14,C  15,C  16)          120.0205         0.432746   
     94. A(C  15,C  16,H  34)          118.3089         0.351944   
     95. A(C  11,C  16,H  34)          120.4364         0.350151   
     96. A(C  11,C  16,C  15)          121.2546         0.428443   
     97. D(C   2,C   1,C   0,H  17)   -179.9068         0.026472   
     98. D(H  18,C   1,C   0,H  17)     -0.0952         0.026472   
     99. D(C   2,C   1,C   0,C   5)     -0.0537         0.026472   
    100. D(H  18,C   1,C   0,C   5)    179.7580         0.026472   
    101. D(H  19,C   2,C   1,C   0)    179.6319         0.025563   
    102. D(C   3,C   2,C   1,C   0)      0.0739         0.025563   
    103. D(H  19,C   2,C   1,H  18)     -0.1803         0.025563   
    104. D(C   3,C   2,C   1,H  18)   -179.7383         0.025563   
    105. D(P   6,C   3,C   2,C   1)   -179.6245         0.024540   
    106. D(P   6,C   3,C   2,H  19)      0.8262         0.024540   
    107. D(C   4,C   3,C   2,H  19)   -179.6088         0.024540   
    108. D(C   4,C   3,C   2,C   1)     -0.0595         0.024540   
    109. D(H  20,C   4,C   3,C   2)    179.9743         0.024471   
    110. D(C   5,C   4,C   3,P   6)    179.6096         0.024471   
    111. D(C   5,C   4,C   3,C   2)      0.0263         0.024471   
    112. D(H  20,C   4,C   3,P   6)     -0.4424         0.024471   
    113. D(H  21,C   5,C   4,H  20)     -0.0339         0.025543   
    114. D(C   0,C   5,C   4,H  20)   -179.9562         0.025543   
    115. D(C   0,C   5,C   4,C   3)     -0.0074         0.025543   
    116. D(H  21,C   5,C   0,H  17)     -0.0483         0.026473   
    117. D(C   4,C   5,C   0,H  17)    179.8739         0.026473   
    118. D(H  21,C   5,C   4,C   3)    179.9149         0.025543   
    119. D(H  21,C   5,C   0,C   1)   -179.9014         0.026473   
    120. D(C   4,C   5,C   0,C   1)      0.0208         0.026473   
    121. D(C  11,P   6,C   3,C   4)    130.4524         0.003719   
    122. D(C  11,P   6,C   3,C   2)    -49.9836         0.003719   
    123. D(C   7,P   6,C   3,C   4)   -122.6415         0.003719   
    124. D(C   7,P   6,C   3,C   2)     56.9226         0.003719   
    125. D(H  22,C   7,P   6,C   3)    -56.3751         0.003467   
    126. D(C   8,C   7,P   6,C  11)    172.3223         0.003467   
    127. D(C   8,C   7,P   6,C   3)     67.1558         0.003467   
    128. D(H  23,C   7,P   6,C   3)   -173.5302         0.003467   
    129. D(H  22,C   7,P   6,C  11)     48.7914         0.003467   
    130. D(H  24,C   8,C   7,H  22)     59.9215         0.010948   
    131. D(H  24,C   8,C   7,P   6)    -63.6125         0.010948   
    132. D(C   9,C   8,C   7,H  23)     54.8052         0.010948   
    133. D(H  24,C   8,C   7,H  23)    177.2826         0.010948   
    134. D(C   9,C   8,C   7,H  22)    -62.5559         0.010948   
    135. D(C   9,C   8,C   7,P   6)    173.9101         0.010948   
    136. D(H  26,C   9,C   8,H  25)     62.6892         0.011180   
    137. D(H  26,C   9,C   8,H  24)    178.0066         0.011180   
    138. D(H  26,C   9,C   8,C   7)    -58.7768         0.011180   
    139. D(N  10,C   9,C   8,H  25)   -175.6906         0.011180   
    140. D(N  10,C   9,C   8,H  24)    -60.3733         0.011180   
    141. D(N  10,C   9,C   8,C   7)     62.8434         0.011180   
    142. D(H  29,N  10,C   9,H  26)   -178.7446         0.016188   
    143. D(H  29,N  10,C   9,C   8)     59.1628         0.016188   
    144. D(H  28,N  10,C   9,H  27)     54.1106         0.016188   
    145. D(H  28,N  10,C   9,H  26)    -62.9013         0.016188   
    146. D(H  28,N  10,C   9,C   8)    175.0061         0.016188   
    147. D(C  16,C  11,P   6,C   7)   -156.2560         0.003662   
    148. D(C  16,C  11,P   6,C   3)    -51.3325         0.003662   
    149. D(C  12,C  11,P   6,C   7)     26.3951         0.003662   
    150. D(C  12,C  11,P   6,C   3)    131.3186         0.003662   
    151. D(H  30,C  12,C  11,C  16)   -178.0923         0.024586   
    152. D(H  30,C  12,C  11,P   6)     -0.6994         0.024586   
    153. D(C  13,C  12,C  11,C  16)      1.5940         0.024586   
    154. D(C  13,C  12,C  11,P   6)    178.9868         0.024586   
    155. D(H  31,C  13,C  12,H  30)     -0.6361         0.025163   
    156. D(H  31,C  13,C  12,C  11)    179.6670         0.025163   
    157. D(C  14,C  13,C  12,H  30)    179.0631         0.025163   
    158. D(C  14,C  13,C  12,C  11)     -0.6338         0.025163   
    159. D(C  15,C  14,C  13,C  12)     -0.3604         0.026685   
    160. D(H  32,C  14,C  13,H  31)     -0.2222         0.026685   
    161. D(H  32,C  14,C  13,C  12)   -179.9209         0.026685   
    162. D(C  15,C  14,C  13,H  31)    179.3383         0.026685   
    163. D(H  33,C  15,C  14,H  32)      0.0909         0.026840   
    164. D(H  33,C  15,C  14,C  13)   -179.4696         0.026840   
    165. D(C  16,C  15,C  14,H  32)    179.9000         0.026840   
    166. D(C  16,C  15,C  14,C  13)      0.3395         0.026840   
    167. D(H  34,C  16,C  15,H  33)      0.3356         0.025433   
    168. D(H  34,C  16,C  15,C  14)   -179.4742         0.025433   
    169. D(C  11,C  16,C  15,H  33)   -179.5156         0.025433   
    170. D(C  11,C  16,C  15,C  14)      0.6746         0.025433   
    171. D(H  34,C  16,C  11,C  12)    178.5341         0.023864   
    172. D(H  34,C  16,C  11,P   6)      1.0546         0.023864   
    173. D(C  15,C  16,C  11,C  12)     -1.6178         0.023864   
    174. D(C  15,C  16,C  11,P   6)   -179.0973         0.023864   
    -----------------------------------------------------------------

Number of atoms                         .... 35
Number of degrees of freedom            .... 174


         *************************************************************
         *                GEOMETRY OPTIMIZATION CYCLE   1            *
         *************************************************************
---------------------------------
CARTESIAN COORDINATES (ANGSTROEM)
---------------------------------
  C     -1.882071   -3.461617    0.572196
  C     -1.596128   -2.360058    1.374976
  C     -1.010959   -1.220137    0.817890
  C     -0.705455   -1.166350   -0.549853
  C     -0.999797   -2.283823   -1.345200
  C     -1.584377   -3.424015   -0.787804
  P      0.068448    0.290059   -1.334932
  C      1.616476    0.466242   -0.329726
  C      2.583476   -0.702130   -0.550145
  C      3.924560   -0.497096    0.156202
  N      3.772381   -0.423969    1.604500
  C     -1.001949    1.646886   -0.733020
  C     -0.488473    2.825116   -0.172328
  C     -1.338569    3.849900    0.257810
  C     -2.717519    3.719599    0.122507
  C     -3.247432    2.567916   -0.449804
  C     -2.396708    1.545291   -0.879369
  H     -2.338584   -4.347376    1.005705
  H     -1.830374   -2.383620    2.435974
  H     -0.803352   -0.371073    1.465625
  H     -0.776699   -2.276773   -2.410153
  H     -1.807528   -4.281049   -1.417687
  H      1.372287    0.564138    0.733195
  H      2.116886    1.391348   -0.637618
  H      2.134814   -1.643182   -0.207448
  H      2.779432   -0.825508   -1.623324
  H      4.400900    0.421599   -0.202765
  H      4.592415   -1.329701   -0.090985
  H      4.693393   -0.370877    2.038647
  H      3.347978   -1.286379    1.946659
  H      0.581275    2.976169   -0.061498
  H     -0.918773    4.752419    0.694504
  H     -3.376686    4.516469    0.455651
  H     -4.322512    2.461599   -0.567155
  H     -2.840775    0.659983   -1.331225

----------------------------
CARTESIAN COORDINATES (A.U.)
----------------------------
  NO LB      ZA    FRAG     MASS         X           Y           Z
   0 C     6.0000    0    12.011   -3.556599   -6.541508    1.081294
   1 C     6.0000    0    12.011   -3.016245   -4.459863    2.598328
   2 C     6.0000    0    12.011   -1.910436   -2.305725    1.545588
   3 C     6.0000    0    12.011   -1.333117   -2.204082   -1.039072
   4 C     6.0000    0    12.011   -1.889343   -4.315800   -2.542060
   5 C     6.0000    0    12.011   -2.994039   -6.470451   -1.488734
   6 P    15.0000    0    30.974    0.129348    0.548132   -2.522656
   7 C     6.0000    0    12.011    3.054697    0.881070   -0.623092
   8 C     6.0000    0    12.011    4.882062   -1.326833   -1.039623
   9 C     6.0000    0    12.011    7.416344   -0.939375    0.295179
  10 N     7.0000    0    14.007    7.128767   -0.801185    3.032066
  11 C     6.0000    0    12.011   -1.893409    3.112164   -1.385207
  12 C     6.0000    0    12.011   -0.923080    5.338696   -0.325653
  13 C     6.0000    0    12.011   -2.529529    7.275257    0.487190
  14 C     6.0000    0    12.011   -5.135367    7.029023    0.231505
  15 C     6.0000    0    12.011   -6.136757    4.852658   -0.850006
  16 C     6.0000    0    12.011   -4.529122    2.920177   -1.661767
  17 H     1.0000    0     1.008   -4.419283   -8.215350    1.900507
  18 H     1.0000    0     1.008   -3.458906   -4.504389    4.603324
  19 H     1.0000    0     1.008   -1.518115   -0.701226    2.769630
  20 H     1.0000    0     1.008   -1.467748   -4.302477   -4.554529
  21 H     1.0000    0     1.008   -3.415733   -8.090010   -2.679040
  22 H     1.0000    0     1.008    2.593247    1.066066    1.385538
  23 H     1.0000    0     1.008    4.000335    2.629267   -1.204923
  24 H     1.0000    0     1.008    4.034214   -3.105164   -0.392020
  25 H     1.0000    0     1.008    5.252365   -1.559984   -3.067638
  26 H     1.0000    0     1.008    8.316496    0.796707   -0.383170
  27 H     1.0000    0     1.008    8.678407   -2.512771   -0.171937
  28 H     1.0000    0     1.008    8.869227   -0.700856    3.852485
  29 H     1.0000    0     1.008    6.326762   -2.430904    3.678652
  30 H     1.0000    0     1.008    1.098451    5.624144   -0.116214
  31 H     1.0000    0     1.008   -1.736229    8.980770    1.312422
  32 H     1.0000    0     1.008   -6.381012    8.534890    0.861056
  33 H     1.0000    0     1.008   -8.168364    4.651748   -1.071768
  34 H     1.0000    0     1.008   -5.368287    1.247187   -2.515651

--------------------------------
INTERNAL COORDINATES (ANGSTROEM)
--------------------------------
 C      0   0   0     0.000000000000     0.00000000     0.00000000
 C      1   0   0     1.392713666957     0.00000000     0.00000000
 C      2   1   0     1.397207019807   120.09670913     0.00000000
 C      3   2   1     1.402478751865   120.75438550     0.07385563
 C      4   3   2     1.402839965606   118.46735011   359.94053628
 C      1   2   3     1.392708019665   119.84372302   359.94628433
 P      4   3   2     1.826582071775   122.82223846   180.37549143
 C      7   4   3     1.854149465580   101.33157444    56.92258195
 C      8   7   4     1.532568649668   112.10970961    67.15584972
 C      9   8   7     1.529533040055   112.61979843   173.91005610
 N     10   9   8     1.458105998539   111.95717072    62.84335026
 C      7   4   3     1.830034781441   101.65281743   310.01641682
 C     12   7   4     1.402233594784   122.70499041   131.31857337
 C     13  12   7     1.399236990261   121.05343941   178.98681350
 C     14  13  12     1.391685436767   120.23340032   359.36618110
 C     15  14  13     1.390942630298   119.67063075   359.63957433
 C     16  15  14     1.397862405255   120.02047558     0.33946599
 H      1   2   3     1.086693691125   120.06618632   180.09315600
 H      2   1   3     1.086804081868   120.08783391   179.81167584
 H      3   2   1     1.087920480904   118.63741490   179.63187129
 H      5   4   3     1.088093429956   120.44532890   179.97430595
 H      6   1   2     1.086764114077   120.05296747   180.09864290
 H      8   7   4     1.094994496232   110.39972017   303.62492450
 H      8   7   4     1.095914578332   108.00659650   186.46976148
 H      9   8   7     1.097414092655   110.54019732   296.38745180
 H      9   8   7     1.097877065459   109.80864887    53.44468523
 H     10   9   8     1.095334472074   110.02245175   301.22317287
 H     10   9   8     1.095610697291   109.17218850   183.64835464
 H     11  10   9     1.019590840591   109.34621773   175.00614153
 H     11  10   9     1.020265502597   109.51954901    59.16279388
 H     13  12   7     1.086029963313   121.22287498   359.30055361
 H     14  13  12     1.086954864110   119.80032183   179.66696580
 H     15  14  13     1.086502579622   120.17583307   180.07909971
 H     16  15  14     1.086679146800   120.15548284   180.53035480
 H     17  16  15     1.088641171410   118.30888110   180.52581667

---------------------------
INTERNAL COORDINATES (A.U.)
---------------------------
 C      0   0   0     0.000000000000     0.00000000     0.00000000
 C      1   0   0     2.631847413519     0.00000000     0.00000000
 C      2   1   0     2.640338619828   120.09670913     0.00000000
 C      3   2   1     2.650300749669   120.75438550     0.07385563
 C      4   3   2     2.650983344715   118.46735011   359.94053628
 C      1   2   3     2.631836741683   119.84372302   359.94628433
 P      4   3   2     3.451739876786   122.82223846   180.37549143
 C      7   4   3     3.503834701302   101.33157444    56.92258195
 C      8   7   4     2.896135029306   112.10970961    67.15584972
 C      9   8   7     2.890398558489   112.61979843   173.91005610
 N     10   9   8     2.755421011466   111.95717072    62.84335026
 C      7   4   3     3.458264552473   101.65281743   310.01641682
 C     12   7   4     2.649837469925   122.70499041   131.31857337
 C     13  12   7     2.644174708046   121.05343941   178.98681350
 C     14  13  12     2.629904340057   120.23340032   359.36618110
 C     15  14  13     2.628500639258   119.67063075   359.63957433
 C     16  15  14     2.641577118837   120.02047558     0.33946599
 H      1   2   3     2.053553467686   120.06618632   180.09315600
 H      2   1   3     2.053762075957   120.08783391   179.81167584
 H      3   2   1     2.055871764392   118.63741490   179.63187129
 H      5   4   3     2.056198590736   120.44532890   179.97430595
 H      6   1   2     2.053686547779   120.05296747   180.09864290
 H      8   7   4     2.069239716029   110.39972017   303.62492450
 H      8   7   4     2.070978419219   108.00659650   186.46976148
 H      9   8   7     2.073812090623   110.54019732   296.38745180
 H      9   8   7     2.074686982431   109.80864887    53.44468523
 H     10   9   8     2.069882177263   110.02245175   301.22317287
 H     10   9   8     2.070404167275   109.17218850   183.64835464
 H     11  10   9     1.926747457371   109.34621773   175.00614153
 H     11  10   9     1.928022383796   109.51954901    59.16279388
 H     13  12   7     2.052299203894   121.22287498   359.30055361
 H     14  13  12     2.054047013102   119.80032183   179.66696580
 H     15  14  13     2.053192319284   120.17583307   180.07909971
 H     16  15  14     2.053525982895   120.15548284   180.53035480
 H     17  16  15     2.057233672076   118.30888110   180.52581667

---------------------
BASIS SET INFORMATION
---------------------
There are 4 groups of distinct atoms

 Group   1 Type C   : 7s4p1d contracted to 3s2p1d pattern {511/31/1}
 Group   2 Type P   : 10s7p1d contracted to 4s3p1d pattern {5311/511/1}
 Group   3 Type N   : 7s4p1d contracted to 3s2p1d pattern {511/31/1}
 Group   4 Type H   : 4s1p contracted to 2s1p pattern {31/1}

Atom   0C    basis set group =>   1
Atom   1C    basis set group =>   1
Atom   2C    basis set group =>   1
Atom   3C    basis set group =>   1
Atom   4C    basis set group =>   1
Atom   5C    basis set group =>   1
Atom   6P    basis set group =>   2
Atom   7C    basis set group =>   1
Atom   8C    basis set group =>   1
Atom   9C    basis set group =>   1
Atom  10N    basis set group =>   3
Atom  11C    basis set group =>   1
Atom  12C    basis set group =>   1
Atom  13C    basis set group =>   1
Atom  14C    basis set group =>   1
Atom  15C    basis set group =>   1
Atom  16C    basis set group =>   1
Atom  17H    basis set group =>   4
Atom  18H    basis set group =>   4
Atom  19H    basis set group =>   4
Atom  20H    basis set group =>   4
Atom  21H    basis set group =>   4
Atom  22H    basis set group =>   4
Atom  23H    basis set group =>   4
Atom  24H    basis set group =>   4
Atom  25H    basis set group =>   4
Atom  26H    basis set group =>   4
Atom  27H    basis set group =>   4
Atom  28H    basis set group =>   4
Atom  29H    basis set group =>   4
Atom  30H    basis set group =>   4
Atom  31H    basis set group =>   4
Atom  32H    basis set group =>   4
Atom  33H    basis set group =>   4
Atom  34H    basis set group =>   4
---------------------------------
AUXILIARY/J BASIS SET INFORMATION
---------------------------------
There are 4 groups of distinct atoms

 Group   1 Type C   : 12s5p4d2f1g contracted to 6s4p3d1f1g pattern {711111/2111/211/2/1}
 Group   2 Type P   : 14s5p5d2f1g contracted to 8s4p3d1f1g pattern {71111111/2111/311/2/1}
 Group   3 Type N   : 12s5p4d2f1g contracted to 6s4p3d1f1g pattern {711111/2111/211/2/1}
 Group   4 Type H   : 5s2p1d contracted to 3s1p1d pattern {311/2/1}

Atom   0C    basis set group =>   1
Atom   1C    basis set group =>   1
Atom   2C    basis set group =>   1
Atom   3C    basis set group =>   1
Atom   4C    basis set group =>   1
Atom   5C    basis set group =>   1
Atom   6P    basis set group =>   2
Atom   7C    basis set group =>   1
Atom   8C    basis set group =>   1
Atom   9C    basis set group =>   1
Atom  10N    basis set group =>   3
Atom  11C    basis set group =>   1
Atom  12C    basis set group =>   1
Atom  13C    basis set group =>   1
Atom  14C    basis set group =>   1
Atom  15C    basis set group =>   1
Atom  16C    basis set group =>   1
Atom  17H    basis set group =>   4
Atom  18H    basis set group =>   4
Atom  19H    basis set group =>   4
Atom  20H    basis set group =>   4
Atom  21H    basis set group =>   4
Atom  22H    basis set group =>   4
Atom  23H    basis set group =>   4
Atom  24H    basis set group =>   4
Atom  25H    basis set group =>   4
Atom  26H    basis set group =>   4
Atom  27H    basis set group =>   4
Atom  28H    basis set group =>   4
Atom  29H    basis set group =>   4
Atom  30H    basis set group =>   4
Atom  31H    basis set group =>   4
Atom  32H    basis set group =>   4
Atom  33H    basis set group =>   4
Atom  34H    basis set group =>   4


           ************************************************************
           *        Program running with 6 parallel MPI-processes     *
           *              working on a common directory               *
           ************************************************************
------------------------------------------------------------------------------
                             ORCA STARTUP CALCULATIONS
                           -- RI-GTO INTEGRALS CHOSEN --
------------------------------------------------------------------------------
------------------------------------------------------------------------------
                   ___                                                        
                  /   \      - P O W E R E D   B Y -                         
                 /     \                                                     
                 |  |  |   _    _      __       _____    __    __             
                 |  |  |  | |  | |    /  \     |  _  \  |  |  /  |          
                  \  \/   | |  | |   /    \    | | | |  |  | /  /          
                 / \  \   | |__| |  /  /\  \   | |_| |  |  |/  /          
                |  |  |   |  __  | /  /__\  \  |    /   |      \           
                |  |  |   | |  | | |   __   |  |    \   |  |\   \          
                \     /   | |  | | |  |  |  |  | |\  \  |  | \   \       
                 \___/    |_|  |_| |__|  |__|  |_| \__\ |__|  \__/        
                                                                              
                      - O R C A' S   B I G   F R I E N D -                    
                                      &                                       
                       - I N T E G R A L  F E E D E R -                       
                                                                              
 v1 FN, 2020, v2 2021, v3 2022-2024                                           
------------------------------------------------------------------------------


----------------------
SHARK INTEGRAL PACKAGE
----------------------

Number of atoms                             ...     35
Number of basis functions                   ...    332
Number of shells                            ...    158
Maximum angular momentum                    ...      2
Integral batch strategy                     ... SHARK/LIBINT Hybrid
RI-J (if used) integral strategy            ... SPLIT-RIJ (Revised 2003 algorithm where possible)
Printlevel                                  ...      1
Contraction scheme used                     ... SEGMENTED contraction
Prescreening option                         ... SCHWARTZ
   Thresh                                   ... 2.500e-11
   Tcut                                     ... 2.500e-12
   Tpresel                                  ... 2.500e-12 
Coulomb Range Separation                    ... NOT USED
Exchange Range Separation                   ... NOT USED
Multipole approximations                    ... NOT USED
Finite Nucleus Model                        ... NOT USED
CABS basis                                  ... NOT available
Auxiliary Coulomb fitting basis             ... AVAILABLE
   # of basis functions in Aux-J            ...   1033
   # of shells in Aux-J                     ...    347
   Maximum angular momentum in Aux-J        ...      4
Auxiliary J/K fitting basis                 ... NOT available
Auxiliary Correlation fitting basis         ... NOT available
Auxiliary 'external' fitting basis          ... NOT available

Checking pre-screening integrals            ... done (  0.0 sec) Dimension = 158
Check shell pair data                       ... done (  0.0 sec)
Shell pair information
Shell pair cut-off parameter TPreSel        ...   2.5e-12
Total number of shell pairs                 ...     12561
Shell pairs after pre-screening             ...      9912
Total number of primitive shell pairs       ...     45435
Primitive shell pairs kept                  ...     23427
          la=0 lb=0:   3190 shell pairs
          la=1 lb=0:   3737 shell pairs
          la=1 lb=1:   1122 shell pairs
          la=2 lb=0:   1126 shell pairs
          la=2 lb=1:    642 shell pairs
          la=2 lb=2:     95 shell pairs

Calculating one electron integrals          ... done (  0.0 sec)
Calculating RI/J V-Matrix + Cholesky decomp.... done (  0.1 sec)
Calculating Nuclear repulsion               ... done (  0.0 sec) ENN=   1250.250567260647 Eh

Diagonalization of the overlap matrix:
Smallest eigenvalue                        ... 2.686e-04
Time for diagonalization                   ...    0.014 sec
Threshold for overlap eigenvalues          ... 1.000e-07
Number of eigenvalues below threshold      ... 0
Time for construction of square roots      ...    0.009 sec
Total time needed                          ...    0.026 sec

-------------------
DFT GRID GENERATION
-------------------

General Integration Accuracy     IntAcc      ... 4.388
Radial Grid Type                 RadialGrid  ... OptM3 with GC (2021)
Angular Grid (max. ang.)         AngularGrid ... 4 (Lebedev-302)
Angular grid pruning method      GridPruning ... 4 (adaptive)
Weight generation scheme         WeightScheme... mBecke (2022)
Basis function cutoff            BFCut       ... 1.0000e-11
Integration weight cutoff        WCut        ... 1.0000e-14
Partially contracted basis set               ... off
Rotationally invariant grid construction     ... off
Angular grids for H and He will be reduced by one unit

Total number of grid points                  ...   160203
Total number of batches                      ...     2519
Average number of points per batch           ...       63
Average number of grid points per atom       ...     4577
Initializing property integral containers    ... done (  0.0 sec)

SHARK setup successfully completed in   1.3 seconds

Maximum memory used throughout the entire STARTUP-calculation: 43.0 MB


           ************************************************************
           *        Program running with 6 parallel MPI-processes     *
           *              working on a common directory               *
           ************************************************************
-------------------------------------------------------------------------------
                                 ORCA GUESS
                   Start orbitals & Density for SCF / CASSCF
-------------------------------------------------------------------------------

------------
SCF SETTINGS
------------
Hamiltonian:
 Density Functional     Method          .... DFT(GTOs)
 Exchange Functional    Exchange        .... B88
   X-Alpha parameter    XAlpha          ....  0.666667
   Becke's b parameter  XBeta           ....  0.004200
 Correlation Functional Correlation     .... P86
 LDA part of GGA corr.  LDAOpt          .... PW91-LDA
 Gradients option       PostSCFGGA      .... off
   NL short-range parameter             ....  4.400000
 RI-approximation to the Coulomb term is turned on
   Number of AuxJ basis functions       .... 1033


General Settings:
 Integral files         IntName         .... data/geom_opt_P_BP86/280677/280677
 Hartree-Fock type      HFTyp           .... RHF
 Total Charge           Charge          ....    0
 Multiplicity           Mult            ....    1
 Number of Electrons    NEL             ....  130
 Basis Dimension        Dim             ....  332
 Nuclear Repulsion      ENuc            ....   1250.2505672606 Eh

Convergence Acceleration:
 AO-DIIS                CNVDIIS         .... on
   Start iteration      DIISMaxIt       ....    12
   Startup error        DIISStart       ....  0.200000
   # of expansion vecs  DIISMaxEq       ....     5
   Bias factor          DIISBfac        ....   1.050
   Max. coefficient     DIISMaxC        ....  10.000
 MO-DIIS                CNVKDIIS        .... off
 Trust-Rad. Augm. Hess. CNVTRAH         .... auto
   Auto Start mean grad. ratio tolernc. ....  1.125000
   Auto Start start iteration           ....    50
   Auto Start num. interpolation iter.  ....    10
   Max. Number of Micro iterations      ....    24
   Max. Number of Macro iterations      .... Maxiter - #DIIS iter
   Number of Davidson start vectors     ....     2
   Converg. threshold    (grad. norm)   ....   1.000e-05
   Grad. Scal. Fac. for Micro threshold ....   0.100
   Minimum threshold for Micro iter.    ....   1.000e-02
   NR start threshold (gradient norm)   ....   1.000e-04
   Initial trust radius                 ....   0.400
   Minimum AH scaling param. (alpha)    ....   1.000
   Maximum AH scaling param. (alpha)    .... 1000.000
   Quad. conv. algorithm                .... NR
   White noise on init. David. guess    .... on
   Maximum white noise                  ....   0.010
   Pseudo random numbers                .... off
   Inactive MOs                         .... canonical
   Orbital update algorithm             .... Taylor
   Preconditioner                       .... Diag
   Full preconditioner red. dimension   ....   250
 SOSCF                  CNVSOSCF        .... on
   Start iteration      SOSCFMaxIt      ....   150
   Startup grad/error   SOSCFStart      ....  0.003300
   Hessian update       SOSCFHessUp     .... L-BFGS
 Level Shifting         CNVShift        .... on
   Level shift para.    LevelShift      ....    0.2500
   Turn off err/grad.   ShiftErr        ....    0.0010
 Zerner damping         CNVZerner       .... off
 Static damping         CNVDamp         .... on
   Fraction old density DampFac         ....    0.7000
   Max. Damping (<1)    DampMax         ....    0.9800
   Min. Damping (>=0)   DampMin         ....    0.0000
   Turn off err/grad.   DampErr         ....    0.1000

SCF Procedure:
 Maximum # iterations   MaxIter         ....   125
 SCF integral mode      SCFMode         .... Direct
   Integral package                     .... SHARK and LIBINT hybrid scheme
 Reset frequency        DirectResetFreq ....    20
 Integral Threshold     Thresh          ....  2.500e-11 Eh
 Primitive CutOff       TCut            ....  2.500e-12 Eh

Convergence Tolerance:
 Convergence Check Mode ConvCheckMode   .... Total+1el-Energy
 Convergence forced     ConvForced      .... 0
 Energy Change          TolE            ....  1.000e-08 Eh
 1-El. energy change                    ....  1.000e-05 Eh
 Orbital Gradient       TolG            ....  1.000e-05
 Orbital Rotation angle TolX            ....  1.000e-05
 DIIS Error             TolErr          ....  5.000e-07

------------------------------
INITIAL GUESS: MODEL POTENTIAL
------------------------------
Loading Hartree-Fock densities                     ... done
Calculating cut-offs                               ... done
Initializing the effective Hamiltonian             ... done
Setting up the integral package (SHARK)            ... done
Starting the Coulomb interaction                   ... done (   0.1 sec)
Making the grid                                    ... done (   0.3 sec)
Mapping shells                                     ... done
Starting the XC term evaluation                    ... done (   0.1 sec)
  promolecular density results
     # of electrons  =    129.998291642
     EX              =   -111.679208522
     EC              =     -4.800451174
     EX+EC           =   -116.479659695
Transforming the Hamiltonian                       ... done (   0.0 sec)
Diagonalizing the Hamiltonian                      ... done (   0.0 sec)
Back transforming the eigenvectors                 ... done (   0.0 sec)
Now organizing SCF variables                       ... done
                      ------------------
                      INITIAL GUESS DONE (   0.6 sec)
                      ------------------
             **** ENERGY FILE WAS UPDATED (data/geom_opt_P_BP86/280677/280677.en.tmp) ****
Finished Guess after   0.7 sec
Maximum memory used throughout the entire GUESS-calculation: 23.8 MB


           ************************************************************
           *        Program running with 6 parallel MPI-processes     *
           *              working on a common directory               *
           ************************************************************

-------------------------------------------------------------------------------------------
                                      ORCA LEAN-SCF
                              memory conserving SCF solver
-------------------------------------------------------------------------------------------

----------------------------------------D-I-I-S--------------------------------------------
Iteration    Energy (Eh)           Delta-E    RMSDP     MaxDP     DIISErr   Damp  Time(sec)
-------------------------------------------------------------------------------------------
               ***  Starting incremental Fock matrix formation  ***
    1    -977.6217352662549729     0.00e+00  2.32e-03  9.09e-02  2.38e-01  0.700   0.8
    2    -977.8038324229526097    -1.82e-01  1.61e-03  4.92e-02  9.49e-02  0.700   0.8
                               ***Turning on AO-DIIS***
    3    -977.8677121084012924    -6.39e-02  7.04e-04  4.04e-02  1.95e-02  0.700   0.7
    4    -977.9059044853954674    -3.82e-02  1.32e-03  9.26e-02  8.90e-03  0.000   0.9
    5    -977.9920977630692960    -8.62e-02  2.64e-04  1.40e-02  7.37e-03  0.000   1.2
                              *** Initializing SOSCF ***
---------------------------------------S-O-S-C-F--------------------------------------
Iteration    Energy (Eh)           Delta-E    RMSDP     MaxDP     MaxGrad    Time(sec)
--------------------------------------------------------------------------------------
    6    -977.9928183536765118    -7.21e-04  9.30e-05  3.50e-03  1.34e-03     0.8
               *** Restarting incremental Fock matrix formation ***
    7    -977.9928664339302031    -4.81e-05  7.49e-05  3.09e-03  1.81e-04     0.8
    8    -977.9928640573750727     2.38e-06  2.37e-05  1.36e-03  3.50e-04     0.7
    9    -977.9928727584085664    -8.70e-06  1.87e-05  1.05e-03  1.03e-04     0.8
   10    -977.9928720584900930     7.00e-07  8.51e-06  2.77e-04  1.83e-04     0.7
   11    -977.9928731874576897    -1.13e-06  7.33e-06  4.58e-04  2.20e-05     0.7
   12    -977.9928732072464754    -1.98e-08  3.65e-06  2.47e-04  1.70e-05     0.7
   13    -977.9928732535911422    -4.63e-08  1.26e-06  4.95e-05  5.10e-06     0.7
   14    -977.9928732474188564     6.17e-09  7.19e-07  2.95e-05  1.22e-05     0.6
                 **** Energy Check signals convergence ****

               *****************************************************
               *                     SUCCESS                       *
               *           SCF CONVERGED AFTER  14 CYCLES          *
               *****************************************************

             **** ENERGY FILE WAS UPDATED (data/geom_opt_P_BP86/280677/280677.en.tmp) ****

----------------
TOTAL SCF ENERGY
----------------

Total Energy       :       -977.99287324741886 Eh          -26612.53904 eV

Components:
Nuclear Repulsion  :       1250.25056726064690 Eh           34021.04753 eV
Electronic Energy  :      -2228.24344050806576 Eh          -60633.58657 eV
One Electron Energy:      -3815.53981509459572 Eh         -103826.11679 eV
Two Electron Energy:       1587.29637458652996 Eh           43192.53022 eV

Virial components:
Potential Energy   :      -1947.58455841016371 Eh          -52996.47012 eV
Kinetic Energy     :        969.59168516274485 Eh           26383.93109 eV
Virial Ratio       :          2.00866466597562

DFT components:
N(Alpha)           :       64.999936039707 electrons
N(Beta)            :       64.999936039707 electrons
N(Total)           :      129.999872079414 electrons
E(X)               :     -113.435236920863 Eh       
E(C)               :       -4.804331101020 Eh       
E(XC)              :     -118.239568021883 Eh       

---------------
SCF CONVERGENCE
---------------

  Last Energy change         ...   -6.1723e-09  Tolerance :   1.0000e-08
  Last MAX-Density change    ...    2.9472e-05  Tolerance :   1.0000e-07
  Last RMS-Density change    ...    7.1948e-07  Tolerance :   5.0000e-09
  Last DIIS Error            ...    1.3428e-03  Tolerance :   5.0000e-07
  Last Orbital Gradient      ...    1.2174e-05  Tolerance :   1.0000e-05
  Last Orbital Rotation      ...    2.0854e-05  Tolerance :   1.0000e-05


----------------
ORBITAL ENERGIES
----------------

  NO   OCC          E(Eh)            E(eV) 
   0   2.0000     -76.331816     -2077.0943 
   1   2.0000     -13.987534      -380.6201 
   2   2.0000      -9.930399      -270.2199 
   3   2.0000      -9.920221      -269.9429 
   4   2.0000      -9.920150      -269.9410 
   5   2.0000      -9.919914      -269.9346 
   6   2.0000      -9.919753      -269.9302 
   7   2.0000      -9.918970      -269.9089 
   8   2.0000      -9.918667      -269.9007 
   9   2.0000      -9.917543      -269.8701 
  10   2.0000      -9.913246      -269.7531 
  11   2.0000      -9.912737      -269.7393 
  12   2.0000      -9.912097      -269.7219 
  13   2.0000      -9.911935      -269.7175 
  14   2.0000      -9.911787      -269.7134 
  15   2.0000      -9.909819      -269.6599 
  16   2.0000      -9.909702      -269.6567 
  17   2.0000      -6.301794      -171.4805 
  18   2.0000      -4.523371      -123.0872 
  19   2.0000      -4.522945      -123.0756 
  20   2.0000      -4.519400      -122.9791 
  21   2.0000      -0.797428       -21.6991 
  22   2.0000      -0.778406       -21.1815 
  23   2.0000      -0.769583       -20.9414 
  24   2.0000      -0.707205       -19.2440 
  25   2.0000      -0.680384       -18.5142 
  26   2.0000      -0.673090       -18.3157 
  27   2.0000      -0.667661       -18.1680 
  28   2.0000      -0.664845       -18.0914 
  29   2.0000      -0.610575       -16.6146 
  30   2.0000      -0.563202       -15.3255 
  31   2.0000      -0.544800       -14.8248 
  32   2.0000      -0.539774       -14.6880 
  33   2.0000      -0.533950       -14.5295 
  34   2.0000      -0.521174       -14.1819 
  35   2.0000      -0.495989       -13.4966 
  36   2.0000      -0.466388       -12.6911 
  37   2.0000      -0.448912       -12.2155 
  38   2.0000      -0.440459       -11.9855 
  39   2.0000      -0.411105       -11.1867 
  40   2.0000      -0.410583       -11.1725 
  41   2.0000      -0.403854       -10.9894 
  42   2.0000      -0.401039       -10.9128 
  43   2.0000      -0.397550       -10.8179 
  44   2.0000      -0.389579       -10.6010 
  45   2.0000      -0.377390       -10.2693 
  46   2.0000      -0.371156       -10.0997 
  47   2.0000      -0.367800       -10.0084 
  48   2.0000      -0.365542        -9.9469 
  49   2.0000      -0.344954        -9.3867 
  50   2.0000      -0.333919        -9.0864 
  51   2.0000      -0.329666        -8.9707 
  52   2.0000      -0.320961        -8.7338 
  53   2.0000      -0.312409        -8.5011 
  54   2.0000      -0.306754        -8.3472 
  55   2.0000      -0.301721        -8.2103 
  56   2.0000      -0.300156        -8.1677 
  57   2.0000      -0.282952        -7.6995 
  58   2.0000      -0.278228        -7.5710 
  59   2.0000      -0.244339        -6.6488 
  60   2.0000      -0.235268        -6.4020 
  61   2.0000      -0.231899        -6.3103 
  62   2.0000      -0.225641        -6.1400 
  63   2.0000      -0.189220        -5.1489 
  64   2.0000      -0.181564        -4.9406 
  65   0.0000      -0.055998        -1.5238 
  66   0.0000      -0.047032        -1.2798 
  67   0.0000      -0.041324        -1.1245 
  68   0.0000      -0.034388        -0.9357 
  69   0.0000       0.028339         0.7711 
  70   0.0000       0.035433         0.9642 
  71   0.0000       0.043331         1.1791 
  72   0.0000       0.053903         1.4668 
  73   0.0000       0.059789         1.6270 
  74   0.0000       0.070786         1.9262 
  75   0.0000       0.071571         1.9476 
*Only the first 10 virtual orbitals were printed.

                    ********************************
                    * MULLIKEN POPULATION ANALYSIS *
                    ********************************

-----------------------
MULLIKEN ATOMIC CHARGES
-----------------------
   0 C :    0.012149
   1 C :    0.009600
   2 C :    0.019826
   3 C :   -0.132597
   4 C :    0.014214
   5 C :    0.004514
   6 P :    0.211995
   7 C :   -0.157283
   8 C :   -0.015763
   9 C :    0.061831
  10 N :   -0.230347
  11 C :   -0.080689
  12 C :   -0.024676
  13 C :    0.013923
  14 C :    0.004953
  15 C :    0.009111
  16 C :   -0.002497
  17 H :   -0.003344
  18 H :   -0.005429
  19 H :    0.004168
  20 H :   -0.008537
  21 H :   -0.003886
  22 H :    0.047147
  23 H :    0.053042
  24 H :    0.025994
  25 H :    0.023195
  26 H :    0.010940
  27 H :   -0.003515
  28 H :    0.095271
  29 H :    0.093222
  30 H :   -0.014561
  31 H :   -0.009316
  32 H :   -0.008614
  33 H :   -0.007286
  34 H :   -0.006757
Sum of atomic charges:   -0.0000000

--------------------------------
MULLIKEN REDUCED ORBITAL CHARGES
--------------------------------
  0 C s       :     3.167879  s :     3.167879
      pz      :     0.946271  p :     2.786864
      px      :     0.953786
      py      :     0.886807
      dz2     :     0.008995  d :     0.033109
      dxz     :     0.006181
      dyz     :     0.010383
      dx2y2   :     0.003419
      dxy     :     0.004131

  1 C s       :     3.171185  s :     3.171185
      pz      :     0.840961  p :     2.786368
      px      :     0.977141
      py      :     0.968265
      dz2     :     0.009037  d :     0.032847
      dxz     :     0.003646
      dyz     :     0.008533
      dx2y2   :     0.005839
      dxy     :     0.005792

  2 C s       :     3.220269  s :     3.220269
      pz      :     0.926120  p :     2.727035
      px      :     0.946121
      py      :     0.854794
      dz2     :     0.007846  d :     0.032870
      dxz     :     0.005699
      dyz     :     0.011246
      dx2y2   :     0.004354
      dxy     :     0.003725

  3 C s       :     3.083906  s :     3.083906
      pz      :     1.004579  p :     3.013605
      px      :     1.007616
      py      :     1.001410
      dz2     :     0.009313  d :     0.035086
      dxz     :     0.006462
      dyz     :     0.010821
      dx2y2   :     0.004034
      dxy     :     0.004456

  4 C s       :     3.230263  s :     3.230263
      pz      :     0.839465  p :     2.722751
      px      :     0.950749
      py      :     0.932538
      dz2     :     0.008991  d :     0.032772
      dxz     :     0.003492
      dyz     :     0.008493
      dx2y2   :     0.005874
      dxy     :     0.005921

  5 C s       :     3.171862  s :     3.171862
      pz      :     0.922251  p :     2.790905
      px      :     0.978249
      py      :     0.890406
      dz2     :     0.008028  d :     0.032719
      dxz     :     0.005744
      dyz     :     0.010984
      dx2y2   :     0.004322
      dxy     :     0.003641

  6 P s       :     5.742699  s :     5.742699
      pz      :     3.328222  p :     8.875672
      px      :     2.781092
      py      :     2.766358
      dz2     :     0.017235  d :     0.169634
      dxz     :     0.037829
      dyz     :     0.031741
      dx2y2   :     0.034368
      dxy     :     0.048461

  7 C s       :     3.086555  s :     3.086555
      pz      :     1.036716  p :     3.042650
      px      :     0.987371
      py      :     1.018563
      dz2     :     0.007620  d :     0.028077
      dxz     :     0.005321
      dyz     :     0.003377
      dx2y2   :     0.005847
      dxy     :     0.005913

  8 C s       :     3.008099  s :     3.008099
      pz      :     1.008687  p :     2.974101
      px      :     0.963005
      py      :     1.002409
      dz2     :     0.008271  d :     0.033564
      dxz     :     0.005291
      dyz     :     0.003513
      dx2y2   :     0.007497
      dxy     :     0.008992

  9 C s       :     2.978841  s :     2.978841
      pz      :     0.874699  p :     2.909392
      px      :     1.019690
      py      :     1.015003
      dz2     :     0.015315  d :     0.049936
      dxz     :     0.010809
      dyz     :     0.010393
      dx2y2   :     0.003806
      dxy     :     0.009613

 10 N s       :     3.445204  s :     3.445204
      pz      :     1.089146  p :     3.766107
      px      :     1.236133
      py      :     1.440828
      dz2     :     0.004781  d :     0.019036
      dxz     :     0.004017
      dyz     :     0.003464
      dx2y2   :     0.005268
      dxy     :     0.001506

 11 C s       :     3.048230  s :     3.048230
      pz      :     0.986138  p :     2.997659
      px      :     1.005223
      py      :     1.006298
      dz2     :     0.004068  d :     0.034800
      dxz     :     0.006548
      dyz     :     0.005010
      dx2y2   :     0.008966
      dxy     :     0.010208

 12 C s       :     3.225389  s :     3.225389
      pz      :     0.989821  p :     2.766692
      px      :     0.831416
      py      :     0.945455
      dz2     :     0.003959  d :     0.032595
      dxz     :     0.003443
      dyz     :     0.005612
      dx2y2   :     0.011156
      dxy     :     0.008425

 13 C s       :     3.165582  s :     3.165582
      pz      :     0.962826  p :     2.787440
      px      :     0.943607
      py      :     0.881008
      dz2     :     0.002666  d :     0.033055
      dxz     :     0.006747
      dyz     :     0.003600
      dx2y2   :     0.009847
      dxy     :     0.010195

 14 C s       :     3.166457  s :     3.166457
      pz      :     0.976256  p :     2.795497
      px      :     0.920255
      py      :     0.898986
      dz2     :     0.003284  d :     0.033094
      dxz     :     0.006107
      dyz     :     0.003827
      dx2y2   :     0.008763
      dxy     :     0.011113

 15 C s       :     3.167434  s :     3.167434
      pz      :     0.983439  p :     2.790338
      px      :     0.837522
      py      :     0.969376
      dz2     :     0.004161  d :     0.033117
      dxz     :     0.003626
      dyz     :     0.005745
      dx2y2   :     0.011187
      dxy     :     0.008397

 16 C s       :     3.220985  s :     3.220985
      pz      :     0.955399  p :     2.749067
      px      :     0.929529
      py      :     0.864139
      dz2     :     0.002706  d :     0.032445
      dxz     :     0.006337
      dyz     :     0.003671
      dx2y2   :     0.009532
      dxy     :     0.010200

 17 H s       :     0.981011  s :     0.981011
      pz      :     0.005336  p :     0.022333
      px      :     0.006522
      py      :     0.010475

 18 H s       :     0.983057  s :     0.983057
      pz      :     0.013205  p :     0.022372
      px      :     0.005263
      py      :     0.003903

 19 H s       :     0.973268  s :     0.973268
      pz      :     0.007076  p :     0.022563
      px      :     0.005137
      py      :     0.010350

 20 H s       :     0.986004  s :     0.986004
      pz      :     0.013472  p :     0.022533
      px      :     0.005189
      py      :     0.003872

 21 H s       :     0.981498  s :     0.981498
      pz      :     0.007096  p :     0.022388
      px      :     0.005241
      py      :     0.010051

 22 H s       :     0.930192  s :     0.930192
      pz      :     0.012993  p :     0.022661
      px      :     0.005179
      py      :     0.004490

 23 H s       :     0.924329  s :     0.924329
      pz      :     0.005892  p :     0.022629
      px      :     0.006438
      py      :     0.010299

 24 H s       :     0.951819  s :     0.951819
      pz      :     0.005912  p :     0.022188
      px      :     0.005931
      py      :     0.010345

 25 H s       :     0.955131  s :     0.955131
      pz      :     0.012467  p :     0.021674
      px      :     0.004483
      py      :     0.004725

 26 H s       :     0.968546  s :     0.968546
      pz      :     0.003693  p :     0.020514
      px      :     0.006069
      py      :     0.010752

 27 H s       :     0.982951  s :     0.982951
      pz      :     0.003777  p :     0.020563
      px      :     0.007300
      py      :     0.009486

 28 H s       :     0.859997  s :     0.859997
      pz      :     0.011740  p :     0.044733
      px      :     0.019405
      py      :     0.013588

 29 H s       :     0.861837  s :     0.861837
      pz      :     0.010547  p :     0.044941
      px      :     0.015227
      py      :     0.019167

 30 H s       :     0.991746  s :     0.991746
      pz      :     0.005123  p :     0.022815
      px      :     0.013419
      py      :     0.004273

 31 H s       :     0.986920  s :     0.986920
      pz      :     0.006445  p :     0.022396
      px      :     0.005187
      py      :     0.010764

 32 H s       :     0.986183  s :     0.986183
      pz      :     0.005816  p :     0.022431
      px      :     0.007345
      py      :     0.009270

 33 H s       :     0.984894  s :     0.984894
      pz      :     0.004947  p :     0.022391
      px      :     0.013371
      py      :     0.004072

 34 H s       :     0.984098  s :     0.984098
      pz      :     0.006475  p :     0.022660
      px      :     0.005283
      py      :     0.010902



                     *******************************
                     * LOEWDIN POPULATION ANALYSIS *
                     *******************************

----------------------
LOEWDIN ATOMIC CHARGES
----------------------
   0 C :   -0.024077
   1 C :   -0.028957
   2 C :   -0.021763
   3 C :   -0.176497
   4 C :   -0.031788
   5 C :   -0.030309
   6 P :    0.482723
   7 C :   -0.174806
   8 C :   -0.055970
   9 C :    0.007806
  10 N :   -0.124370
  11 C :   -0.173421
  12 C :   -0.043408
  13 C :   -0.028322
  14 C :   -0.035065
  15 C :   -0.028491
  16 C :   -0.032473
  17 H :    0.030033
  18 H :    0.030121
  19 H :    0.030787
  20 H :    0.026926
  21 H :    0.030296
  22 H :    0.021980
  23 H :    0.027971
  24 H :    0.024235
  25 H :    0.028233
  26 H :    0.018501
  27 H :    0.001354
  28 H :    0.056181
  29 H :    0.052835
  30 H :    0.025197
  31 H :    0.029007
  32 H :    0.028011
  33 H :    0.029618
  34 H :    0.027903

-------------------------------
LOEWDIN REDUCED ORBITAL CHARGES
-------------------------------
  0 C s       :     2.863925  s :     2.863925
      pz      :     1.062585  p :     3.070501
      px      :     0.972982
      py      :     1.034934
      dz2     :     0.026672  d :     0.089650
      dxz     :     0.014879
      dyz     :     0.029979
      dx2y2   :     0.008419
      dxy     :     0.009701

  1 C s       :     2.864356  s :     2.864356
      pz      :     1.037529  p :     3.075484
      px      :     0.983493
      py      :     1.054462
      dz2     :     0.024569  d :     0.089117
      dxz     :     0.008614
      dyz     :     0.025880
      dx2y2   :     0.015100
      dxy     :     0.014955

  2 C s       :     2.868539  s :     2.868539
      pz      :     1.056094  p :     3.063258
      px      :     0.970281
      py      :     1.036883
      dz2     :     0.023739  d :     0.089966
      dxz     :     0.014391
      dyz     :     0.031962
      dx2y2   :     0.010404
      dxy     :     0.009470

  3 C s       :     2.915568  s :     2.915568
      pz      :     1.093161  p :     3.169046
      px      :     1.005951
      py      :     1.069934
      dz2     :     0.026856  d :     0.091883
      dxz     :     0.015521
      dyz     :     0.030702
      dx2y2   :     0.009170
      dxy     :     0.009635

  4 C s       :     2.871716  s :     2.871716
      pz      :     1.041591  p :     3.070349
      px      :     0.974859
      py      :     1.053899
      dz2     :     0.025010  d :     0.089723
      dxz     :     0.008337
      dyz     :     0.025400
      dx2y2   :     0.015481
      dxy     :     0.015496

  5 C s       :     2.864358  s :     2.864358
      pz      :     1.055977  p :     3.077164
      px      :     0.984785
      py      :     1.036403
      dz2     :     0.024182  d :     0.088786
      dxz     :     0.014169
      dyz     :     0.030756
      dx2y2   :     0.010425
      dxy     :     0.009254

  6 P s       :     5.266178  s :     5.266178
      pz      :     3.401586  p :     9.018401
      px      :     2.817018
      py      :     2.799796
      dz2     :     0.023446  d :     0.232698
      dxz     :     0.050653
      dyz     :     0.042506
      dx2y2   :     0.047557
      dxy     :     0.068536

  7 C s       :     2.894301  s :     2.894301
      pz      :     1.093608  p :     3.208875
      px      :     1.059120
      py      :     1.056147
      dz2     :     0.020147  d :     0.071631
      dxz     :     0.013505
      dyz     :     0.007227
      dx2y2   :     0.013467
      dxy     :     0.017285

  8 C s       :     2.844783  s :     2.844783
      pz      :     1.058592  p :     3.124901
      px      :     1.023597
      py      :     1.042712
      dz2     :     0.022320  d :     0.086286
      dxz     :     0.014140
      dyz     :     0.007916
      dx2y2   :     0.018214
      dxy     :     0.023696

  9 C s       :     2.838316  s :     2.838316
      pz      :     0.926057  p :     3.036379
      px      :     1.041537
      py      :     1.068785
      dz2     :     0.035804  d :     0.117499
      dxz     :     0.024303
      dyz     :     0.022218
      dx2y2   :     0.010911
      dxy     :     0.024262

 10 N s       :     3.143064  s :     3.143064
      pz      :     1.158556  p :     3.938347
      px      :     1.303349
      py      :     1.476443
      dz2     :     0.012815  d :     0.042958
      dxz     :     0.009950
      dyz     :     0.006635
      dx2y2   :     0.010263
      dxy     :     0.003295

 11 C s       :     2.915621  s :     2.915621
      pz      :     1.003496  p :     3.167218
      px      :     1.086602
      py      :     1.077120
      dz2     :     0.008918  d :     0.090582
      dxz     :     0.015169
      dyz     :     0.012335
      dx2y2   :     0.026615
      dxy     :     0.027544

 12 C s       :     2.864785  s :     2.864785
      pz      :     0.994828  p :     3.089141
      px      :     1.042355
      py      :     1.051957
      dz2     :     0.008954  d :     0.089483
      dxz     :     0.008372
      dyz     :     0.014810
      dx2y2   :     0.031817
      dxy     :     0.025529

 13 C s       :     2.863691  s :     2.863691
      pz      :     0.981896  p :     3.075188
      px      :     1.065209
      py      :     1.028083
      dz2     :     0.006518  d :     0.089443
      dxz     :     0.016155
      dyz     :     0.008541
      dx2y2   :     0.028754
      dxy     :     0.029475

 14 C s       :     2.861872  s :     2.861872
      pz      :     0.988604  p :     3.083338
      px      :     1.058626
      py      :     1.036108
      dz2     :     0.007755  d :     0.089855
      dxz     :     0.014744
      dyz     :     0.009754
      dx2y2   :     0.026475
      dxy     :     0.031127

 15 C s       :     2.863173  s :     2.863173
      pz      :     0.987039  p :     3.075687
      px      :     1.038717
      py      :     1.049931
      dz2     :     0.009506  d :     0.089632
      dxz     :     0.008775
      dyz     :     0.015048
      dx2y2   :     0.030918
      dxy     :     0.025385

 16 C s       :     2.866400  s :     2.866400
      pz      :     0.986113  p :     3.077318
      px      :     1.057493
      py      :     1.033712
      dz2     :     0.006595  d :     0.088755
      dxz     :     0.015213
      dyz     :     0.008759
      dx2y2   :     0.028340
      dxy     :     0.029848

 17 H s       :     0.901866  s :     0.901866
      pz      :     0.016703  p :     0.068101
      px      :     0.019301
      py      :     0.032097

 18 H s       :     0.901601  s :     0.901601
      pz      :     0.040586  p :     0.068279
      px      :     0.015512
      py      :     0.012180

 19 H s       :     0.900307  s :     0.900307
      pz      :     0.022382  p :     0.068906
      px      :     0.014997
      py      :     0.031527

 20 H s       :     0.903893  s :     0.903893
      pz      :     0.042121  p :     0.069181
      px      :     0.015257
      py      :     0.011803

 21 H s       :     0.901484  s :     0.901484
      pz      :     0.021910  p :     0.068220
      px      :     0.015440
      py      :     0.030870

 22 H s       :     0.904583  s :     0.904583
      pz      :     0.044037  p :     0.073437
      px      :     0.016122
      py      :     0.013278

 23 H s       :     0.901526  s :     0.901526
      pz      :     0.015722  p :     0.070503
      px      :     0.021161
      py      :     0.033620

 24 H s       :     0.908378  s :     0.908378
      pz      :     0.015818  p :     0.067388
      px      :     0.018457
      py      :     0.033113

 25 H s       :     0.904875  s :     0.904875
      pz      :     0.039435  p :     0.066892
      px      :     0.014042
      py      :     0.013415

 26 H s       :     0.917176  s :     0.917176
      pz      :     0.013425  p :     0.064323
      px      :     0.018027
      py      :     0.032871

 27 H s       :     0.931192  s :     0.931192
      pz      :     0.014950  p :     0.067454
      px      :     0.023759
      py      :     0.028745

 28 H s       :     0.823899  s :     0.823899
      pz      :     0.029710  p :     0.119921
      px      :     0.057857
      py      :     0.032354

 29 H s       :     0.826989  s :     0.826989
      pz      :     0.026061  p :     0.120176
      px      :     0.033312
      py      :     0.060803

 30 H s       :     0.904931  s :     0.904931
      pz      :     0.015120  p :     0.069872
      px      :     0.041734
      py      :     0.013018

 31 H s       :     0.902958  s :     0.902958
      pz      :     0.019001  p :     0.068035
      px      :     0.016186
      py      :     0.032848

 32 H s       :     0.903729  s :     0.903729
      pz      :     0.017184  p :     0.068259
      px      :     0.022734
      py      :     0.028342

 33 H s       :     0.902375  s :     0.902375
      pz      :     0.014484  p :     0.068007
      px      :     0.041000
      py      :     0.012523

 34 H s       :     0.903146  s :     0.903146
      pz      :     0.019271  p :     0.068951
      px      :     0.016616
      py      :     0.033064



                      *****************************
                      * MAYER POPULATION ANALYSIS *
                      *****************************

  NA   - Mulliken gross atomic population
  ZA   - Total nuclear charge
  QA   - Mulliken gross atomic charge
  VA   - Mayer's total valence
  BVA  - Mayer's bonded valence
  FA   - Mayer's free valence

  ATOM       NA         ZA         QA         VA         BVA        FA
  0 C      5.9879     6.0000     0.0121     3.8239     3.8239    -0.0000
  1 C      5.9904     6.0000     0.0096     3.8457     3.8457    -0.0000
  2 C      5.9802     6.0000     0.0198     3.8641     3.8641    -0.0000
  3 C      6.1326     6.0000    -0.1326     3.7990     3.7990    -0.0000
[...]
      py      :     1.434413
      dz2     :     0.011034  d :     0.041649
      dxz     :     0.013990
      dyz     :     0.004390
      dx2y2   :     0.008535
      dxy     :     0.003700

 11 C s       :     2.924596  s :     2.924596
      pz      :     1.018336  p :     3.159945
      px      :     1.079149
      py      :     1.062461
      dz2     :     0.011297  d :     0.087655
      dxz     :     0.017543
      dyz     :     0.013273
      dx2y2   :     0.022767
      dxy     :     0.022775

 12 C s       :     2.874016  s :     2.874016
      pz      :     1.003456  p :     3.085501
      px      :     1.040666
      py      :     1.041379
      dz2     :     0.010974  d :     0.086985
      dxz     :     0.012408
      dyz     :     0.015716
      dx2y2   :     0.026866
      dxy     :     0.021021

 13 C s       :     2.872625  s :     2.872625
      pz      :     0.991828  p :     3.072318
      px      :     1.059801
      py      :     1.020689
      dz2     :     0.007500  d :     0.086469
      dxz     :     0.017485
      dyz     :     0.010559
      dx2y2   :     0.025088
      dxy     :     0.025837

 14 C s       :     2.872939  s :     2.872939
      pz      :     0.999519  p :     3.076023
      px      :     1.053708
      py      :     1.022796
      dz2     :     0.009858  d :     0.085712
      dxz     :     0.017280
      dyz     :     0.010548
      dx2y2   :     0.022210
      dxy     :     0.025817

 15 C s       :     2.872362  s :     2.872362
      pz      :     0.999936  p :     3.072360
      px      :     1.035951
      py      :     1.036473
      dz2     :     0.011424  d :     0.086416
      dxz     :     0.012267
      dyz     :     0.015392
      dx2y2   :     0.026204
      dxy     :     0.021129

 16 C s       :     2.874623  s :     2.874623
      pz      :     0.992924  p :     3.071454
      px      :     1.056964
      py      :     1.021565
      dz2     :     0.007777  d :     0.086914
      dxz     :     0.016989
      dyz     :     0.010875
      dx2y2   :     0.025042
      dxy     :     0.026232

 17 H s       :     0.901914  s :     0.901914
      pz      :     0.018215  p :     0.065852
      px      :     0.016827
      py      :     0.030810

 18 H s       :     0.901417  s :     0.901417
      pz      :     0.038908  p :     0.065878
      px      :     0.015823
      py      :     0.011148

 19 H s       :     0.897605  s :     0.897605
      pz      :     0.017640  p :     0.067529
      px      :     0.013273
      py      :     0.036615

 20 H s       :     0.904636  s :     0.904636
      pz      :     0.040234  p :     0.066873
      px      :     0.015815
      py      :     0.010824

 21 H s       :     0.901548  s :     0.901548
      pz      :     0.017997  p :     0.065878
      px      :     0.013662
      py      :     0.034219

 22 H s       :     0.903625  s :     0.903625
      pz      :     0.045733  p :     0.072842
      px      :     0.014568
      py      :     0.012541

 23 H s       :     0.904396  s :     0.904396
      pz      :     0.015718  p :     0.067943
      px      :     0.019843
      py      :     0.032382

 24 H s       :     0.909028  s :     0.909028
      pz      :     0.013064  p :     0.065567
      px      :     0.020149
      py      :     0.032353

 25 H s       :     0.906408  s :     0.906408
      pz      :     0.037043  p :     0.064289
      px      :     0.014786
      py      :     0.012460

 26 H s       :     0.917519  s :     0.917519
      pz      :     0.010757  p :     0.061737
      px      :     0.018713
      py      :     0.032267

 27 H s       :     0.932748  s :     0.932748
      pz      :     0.013656  p :     0.063532
      px      :     0.023017
      py      :     0.026859

 28 H s       :     0.822461  s :     0.822461
      pz      :     0.035456  p :     0.117473
      px      :     0.052204
      py      :     0.029813

 29 H s       :     0.823944  s :     0.823944
      pz      :     0.021033  p :     0.117022
      px      :     0.034837
      py      :     0.061152

 30 H s       :     0.901688  s :     0.901688
      pz      :     0.015069  p :     0.068286
      px      :     0.041042
      py      :     0.012174

 31 H s       :     0.902390  s :     0.902390
      pz      :     0.022610  p :     0.065764
      px      :     0.015407
      py      :     0.027747

 32 H s       :     0.902466  s :     0.902466
      pz      :     0.016789  p :     0.065948
      px      :     0.021690
      py      :     0.027470

 33 H s       :     0.901619  s :     0.901619
      pz      :     0.014274  p :     0.065717
      px      :     0.039688
      py      :     0.011755

 34 H s       :     0.902906  s :     0.902906
      pz      :     0.022721  p :     0.066425
      px      :     0.015276
      py      :     0.028428



                      *****************************
                      * MAYER POPULATION ANALYSIS *
                      *****************************

  NA   - Mulliken gross atomic population
  ZA   - Total nuclear charge
  QA   - Mulliken gross atomic charge
  VA   - Mayer's total valence
  BVA  - Mayer's bonded valence
  FA   - Mayer's free valence

  ATOM       NA         ZA         QA         VA         BVA        FA
  0 C      5.9990     6.0000     0.0010     3.8258     3.8258    -0.0000
  1 C      5.9990     6.0000     0.0010     3.8404     3.8404    -0.0000
  2 C      5.9742     6.0000     0.0258     3.8695     3.8695    -0.0000
  3 C      6.1504     6.0000    -0.1504     3.8305     3.8305    -0.0000
  4 C      5.9890     6.0000     0.0110     3.8579     3.8579    -0.0000
  5 C      6.0048     6.0000    -0.0048     3.8467     3.8467    -0.0000
  6 P     14.7741    15.0000     0.2259     3.0076     3.0076    -0.0000
  7 C      6.1876     6.0000    -0.1876     3.9386     3.9386    -0.0000
  8 C      6.0163     6.0000    -0.0163     4.0494     4.0494    -0.0000
  9 C      5.9510     6.0000     0.0490     4.0971     4.0971    -0.0000
 10 N      7.2309     7.0000    -0.2309     3.0937     3.0937    -0.0000
 11 C      6.1301     6.0000    -0.1301     3.7995     3.7995    -0.0000
 12 C      6.0208     6.0000    -0.0208     3.8947     3.8947    -0.0000
 13 C      5.9953     6.0000     0.0047     3.8416     3.8416    -0.0000
 14 C      5.9997     6.0000     0.0003     3.8296     3.8296    -0.0000
 15 C      6.0016     6.0000    -0.0016     3.8633     3.8633    -0.0000
 16 C      5.9886     6.0000     0.0114     3.8791     3.8791    -0.0000
 17 H      0.9961     1.0000     0.0039     0.9785     0.9785    -0.0000
 18 H      0.9977     1.0000     0.0023     0.9788     0.9788     0.0000
 19 H      0.9862     1.0000     0.0138     0.9917     0.9917    -0.0000
 20 H      1.0016     1.0000    -0.0016     0.9946     0.9946    -0.0000
 21 H      0.9969     1.0000     0.0031     0.9787     0.9787    -0.0000
 22 H      0.9398     1.0000     0.0602     1.0302     1.0302    -0.0000
 23 H      0.9457     1.0000     0.0543     0.9726     0.9726    -0.0000
 24 H      0.9729     1.0000     0.0271     0.9973     0.9973    -0.0000
 25 H      0.9763     1.0000     0.0237     0.9826     0.9826    -0.0000
 26 H      0.9880     1.0000     0.0120     0.9792     0.9792    -0.0000
 27 H      0.9939     1.0000     0.0061     0.9655     0.9655    -0.0000
 28 H      0.8990     1.0000     0.1010     0.9933     0.9933     0.0000
 29 H      0.8981     1.0000     0.1019     0.9964     0.9964    -0.0000
 30 H      1.0008     1.0000    -0.0008     0.9985     0.9985     0.0000
 31 H      1.0006     1.0000    -0.0006     0.9784     0.9784    -0.0000
 32 H      0.9984     1.0000     0.0016     0.9787     0.9787    -0.0000
 33 H      0.9975     1.0000     0.0025     0.9786     0.9786    -0.0000
 34 H      0.9984     1.0000     0.0016     0.9905     0.9905    -0.0000

  Mayer bond orders larger than 0.100000
B(  0-C ,  1-C ) :   1.3668 B(  0-C ,  5-C ) :   1.3895 B(  0-C , 17-H ) :   0.9758 
B(  1-C ,  2-C ) :   1.4004 B(  1-C , 18-H ) :   0.9749 B(  2-C ,  3-C ) :   1.3688 
B(  2-C , 19-H ) :   0.9643 B(  3-C ,  4-C ) :   1.3768 B(  3-C ,  6-P ) :   0.9318 
B(  4-C ,  5-C ) :   1.3781 B(  4-C , 20-H ) :   0.9741 B(  5-C , 21-H ) :   0.9768 
B(  6-P ,  7-C ) :   0.9793 B(  6-P , 11-C ) :   0.9201 B(  7-C ,  8-C ) :   1.0574 
B(  7-C , 22-H ) :   0.9022 B(  7-C , 23-H ) :   0.9276 B(  8-C ,  9-C ) :   1.0928 
B(  8-C , 24-H ) :   0.9302 B(  8-C , 25-H ) :   0.9300 B(  9-C , 10-N ) :   1.0867 
B(  9-C , 26-H ) :   0.9366 B(  9-C , 27-H ) :   0.9298 B( 10-N , 28-H ) :   0.9615 
B( 10-N , 29-H ) :   0.9633 B( 11-C , 12-C ) :   1.3824 B( 11-C , 16-C ) :   1.3600 
B( 12-C , 13-C ) :   1.3782 B( 12-C , 30-H ) :   0.9669 B( 13-C , 14-C ) :   1.3904 
B( 13-C , 31-H ) :   0.9731 B( 14-C , 15-C ) :   1.3658 B( 14-C , 32-H ) :   0.9757 
B( 15-C , 16-C ) :   1.4192 B( 15-C , 33-H ) :   0.9754 B( 16-C , 34-H ) :   0.9703 


-------
TIMINGS
-------

Total SCF time: 0 days 0 hours 0 min 4 sec 

Total time                  ....       4.476 sec
Sum of individual times     ....       4.393 sec  ( 98.1%)

SCF preparation             ....       0.118 sec  (  2.6%)
Fock matrix formation       ....       3.878 sec  ( 86.6%)
  Startup                   ....       0.020 sec  (  0.5% of F)
  Split-RI-J                ....       1.296 sec  ( 33.4% of F)
  XC integration            ....       2.486 sec  ( 64.1% of F)
    Basis function eval.    ....       0.710 sec  ( 28.6% of XC)
    Density eval.           ....       0.684 sec  ( 27.5% of XC)
    XC-Functional eval.     ....       0.083 sec  (  3.3% of XC)
    XC-Potential eval.      ....       0.503 sec  ( 20.2% of XC)
Diagonalization             ....       0.000 sec  (  0.0%)
Density matrix formation    ....       0.047 sec  (  1.1%)
Total Energy calculation    ....       0.018 sec  (  0.4%)
Population analysis         ....       0.085 sec  (  1.9%)
Orbital Transformation      ....       0.035 sec  (  0.8%)
Orbital Orthonormalization  ....       0.000 sec  (  0.0%)
DIIS solution               ....       0.040 sec  (  0.9%)
SOSCF solution              ....       0.172 sec  (  3.8%)
Finished LeanSCF after   4.5 sec

Maximum memory used throughout the entire LEANSCF-calculation: 35.3 MB


-------------------------------------------------------------------------------
                          DFT DISPERSION CORRECTION                            
                                                                               
                              DFTD3 V3.1  Rev 1                                
                          USING Becke-Johnson damping                          
-------------------------------------------------------------------------------
The BP86 functional is recognized
Active option DFTDOPT                   ...         4   

molecular C6(AA) [au] = 14575.842615 


            DFT-D V3
 parameters
 s6 scaling factor         :     1.0000 
 a1 scaling factor         :     0.3946 
 s8 scaling factor         :     3.2822 
 a2 scaling factor         :     4.8516 
 ad hoc parameters k1-k3   :    16.0000     1.3333    -4.0000 

 Edisp/kcal,au: -46.255889773352  -0.073713444579 
 E6   /kcal   : -17.109997416 
 E8   /kcal   : -29.145892357 
 % E8         :  63.010121521 

-------------------------   ----------------
Dispersion correction           -0.073713445
-------------------------   ----------------


-------------------------   --------------------
FINAL SINGLE POINT ENERGY      -978.073467330486
-------------------------   --------------------

                                *** OPTIMIZATION RUN DONE ***



           ************************************************************
           *        Program running with 6 parallel MPI-processes     *
           *              working on a common directory               *
           ************************************************************

------------------------------------------------------------------------------
                              ORCA PROPERTY CALCULATIONS
------------------------------------------------------------------------------

GBWName                                 ... data/geom_opt_P_BP86/280677/280677.gbw
Number of atoms                         ...     35
Number of basis functions               ...    332
Max core memory                         ...   1024 MB

Electric properties:
Dipole moment                           ... YES
Quadrupole moment                       ...  NO
Static polarizability (Dipole/Dipole)   ...  NO
Static polarizability (Dipole/Quad.)    ...  NO
Static polarizability (Quad./Quad.)     ...  NO
Static polarizability (Velocity)        ...  NO

Atomic electric properties:
Dipole moment                           ...  NO
Quadrupole moment                       ...  NO
Static polarizability                   ...  NO

Choice of electric origin               ... Center of mass
Position of electric origin             ...    -0.534149     0.168345    -0.380216

General magnetic properties:
Magnetizability                         ...  NO

EPR properties:
g-Tensor (aka g-matrix)                 ...  NO
Zero-Field splitting spin-orbit         ...  NO
Zero-field splitting spin-spin          ...  NO
Hyperfine couplings                     ...  NO (   0 nuclei)
Quadrupole couplings                    ...  NO (   0 nuclei)
Contact density                         ...  NO (   0 nuclei)

NMR properties:
Chemical shifts                         ...  NO (   0 nuclei)
Spin-rotation constants                 ...  NO (   0 nuclei)
Spin-spin couplings                     ...  NO (   0 nuclei,    0 pairs)

Choice of magnetic origin               ... GIAO
Position of magnetic origin             ...     0.000000     0.000000     0.000000

Properties with geometric perturbations:
SCF Hessian                             ...  NO
IR spectrum                             ...  NO
VCD spectrum                            ...  NO
X-ray spectroscopy properties:
SCF XES/XAS/RIXS spectra                ...  NO


-------------
DIPOLE MOMENT
-------------

Method             : SCF
Type of density    : Electron Density
Multiplicity       :   1
Irrep              :   0
Energy             :  -977.9997538859072392 Eh
Relativity type    : 
Basis              : AO
                                X                 Y                 Z
Electronic contribution:    -10.484240573       2.674198183      -5.942219001
Nuclear contribution   :     10.975240310      -3.148619579       6.571678228
                        -----------------------------------------
Total Dipole Moment    :      0.490999737      -0.474421396       0.629459227
                        -----------------------------------------
Magnitude (a.u.)       :      0.928641653
Magnitude (Debye)      :      2.360419497



--------------------
Rotational spectrum 
--------------------
 
Rotational constants in cm-1:             0.016432             0.010695             0.007866 
Rotational constants in MHz :           492.624532           320.618455           235.806353 

Dipole components along the rotational axes: 
x,y,z [a.u.] :    -0.712455     0.128699     0.581567 
x,y,z [Debye]:    -1.810916     0.327128     1.478225 

 

Dipole moment calculation done in   0.0 sec 

Maximum memory used throughout the entire PROP-calculation: 17.6 MB

--------------------------------
SUGGESTED CITATIONS FOR THIS RUN
--------------------------------

Below you find a list of papers that are relevant to this ORCA run
We neither can nor want to force you to cite these papers, but we appreciate if you do
You receive ORCA, which is the product of decades of hard work by many enthusiastic individuals, for free
The only thing we kindly ask in return is that you cite our papers,
We deeply appreciate it, if you show your appreciation for ORCA by not just citing the generic ORCA reference.

Please note that relegating all ORCA citations to the supporting information does *not* help us.
SI sections are not indexed - citations you put there will not count into any citation statistics
But we need these citations in order to attract the funding resources that allow us to do what we are doing

Therefore, if you are a happy ORCA user, please consider citing a few of the papers listed below in the main body of your paper

In addition to the list printed below, the program has created the file data/geom_opt_P_BP86/280677/280677.bibtex that contains the list in bibtex format
You can import this file easily into all common literature databanks and citation aid programs


List of essential papers. We consider these as the minimum necessary citations

  1. Neese,F.
     Software update: the ORCA program system, version 5.0
     WIRES Comput. Molec. Sci., 2022 12(1)e1606
     doi.org/10.1002/wcms.1606

List of papers to cite with high priority. The work reported in these papers was absolutely
necessary for this run to complete.
Our perspective: the developers of density functionals and basis sets usually get cited in chemistry papers
Good! But without the algorithms to do something with them, the functionals or basis sets would not do anything.
Hence, in our opinion, the algorithm design and method developments papers are equally worthy of getting cited

  1. Neese,F.
     An improvement of the resolution of the identity approximation for the formation of the Coulomb matrix
     J. Comp. Chem., 2003 24(14)1740-1747
     doi.org/10.1002/jcc.10318
  2. Neese,F.
     The SHARK Integral Generation and Digestion System
     J. Comp. Chem., 2022  1-16
     doi.org/10.1002/jcc.26942
  3. Grimme,S.; Antony,J.; Ehrlich,S.; Krieg,H.
     A consistent and accurate ab initio parametrization of density functional dispersion correction (DFT-D) for the 94 elements H-Pu
     J. Chem. Phys., 2010 132 154104-XXXX
     doi.org/10.1063/1.3382344
  4. Grimme,S.; Ehrlich,S.; Goerigk,L.
     Effect of the damping function in dispersion corrected density functional theory
     J. Comput. Chem., 2011 32(7)1456-1465
     doi.org/10.1002/jcc.21759

List of suggested additional citations. These are papers that are important in the 'surrounding' of 
of this run, or papers that preceded the highly important papers. If you like your results we are grateful for a citation.

  1. Neese,F.
     The ORCA program system
     WIRES Comput. Molec. Sci., 2012 2(1)73-78
     doi.org/10.1002/wcms.81
  2. Neese,F.
     Software update: the ORCA program system, version 4.0
     WIRES Comput. Molec. Sci., 2018 8(1)1-6
     doi.org/10.1002/wcms.1327
  3. Neese,F.; Wennmohs,F.; Becker,U.; Riplinger,C.
     The ORCA quantum chemistry program package
     J. Chem. Phys., 2020 152 Art. No. L224108
     doi.org/10.1063/5.0004608

List of optional additional citations

  1. Neese,F.
     Approximate second-order SCF convergence for spin unrestricted wavefunctions
     Chem. Phys. Lett., 2000 325(1-3)93-98
     doi.org/10.1016/s0009-2614(00)00662-x

Timings for individual modules:

Sum of individual times          ...      164.634 sec (=   2.744 min)
Startup calculation              ...       15.640 sec (=   0.261 min)   9.5 %
SCF iterations                   ...       93.211 sec (=   1.554 min)  56.6 %
Property calculations            ...        0.168 sec (=   0.003 min)   0.1 %
SCF Gradient evaluation          ...       55.437 sec (=   0.924 min)  33.7 %
Geometry relaxation              ...        0.178 sec (=   0.003 min)   0.1 %
                             ****ORCA TERMINATED NORMALLY****
TOTAL RUN TIME: 0 days 0 hours 2 minutes 46 seconds 904 msec
