
                                 *****************
                                 * O   R   C   A *
                                 *****************

                                            #,                                       
                                            ###                                      
                                            ####                                     
                                            #####                                    
                                            ######                                   
                                           ########,                                 
                                     ,,################,,,,,                         
                               ,,#################################,,                 
                          ,,##########################################,,             
                       ,#########################################, ''#####,          
                    ,#############################################,,   '####,        
                  ,##################################################,,,,####,       
                ,###########''''           ''''###############################       
              ,#####''   ,,,,##########,,,,          '''####'''          '####       
            ,##' ,,,,###########################,,,                        '##       
           ' ,,###''''                  '''############,,,                           
         ,,##''                                '''############,,,,        ,,,,,,###''
      ,#''                                            '''#######################'''  
     '                                                          ''''####''''         
             ,#######,   #######,   ,#######,      ##                                
            ,#'     '#,  ##    ##  ,#'     '#,    #''#        ,####,   ,####,        
            ##       ##  ##   ,#'  ##            #'  '#       #'       #'  '#        
            ##       ##  #######   ##           ,######,      #####,   #    #        
            '#,     ,#'  ##    ##  '#,     ,#' ,#      #,     #,   #   #,  ,#        
             '#######'   ##     ##  '#######'  #'      '#     '####' # '####'        



                #########################################################
                #                        -***-                          #
                #          Department of theory and spectroscopy        #
                #                                                       #
                #                      Frank Neese                      #
                #                                                       #
                #     Directorship, Architecture, Infrastructure        #
                #                    SHARK, DRIVERS                     #
                #        Core code/Algorithms in most modules           #
                #                                                       #
                #        Max Planck Institute fuer Kohlenforschung      #
                #                Kaiser Wilhelm Platz 1                 #
                #                 D-45470 Muelheim/Ruhr                 #
                #                      Germany                          #
                #                                                       #
                #                  All rights reserved                  #
                #                        -***-                          #
                #########################################################


                         Program Version 6.0.0  -   RELEASE   -


 With contributions from (in alphabetic order):
   Daniel Aravena         : Magnetic Suceptibility
   Michael Atanasov       : Ab Initio Ligand Field Theory (pilot matlab implementation)
   Alexander A. Auer      : GIAO ZORA, VPT2 properties, NMR spectrum
   Ute Becker             : All parallelization in ORCA, NUMFREQ, NUMCALC
   Giovanni Bistoni       : ED, misc. LED, open-shell LED, HFLD
   Martin Brehm           : Molecular dynamics
   Dmytro Bykov           : pre 5.0 version of the SCF Hessian
   Marcos Casanova-Páez   : Triplet and SCS-CIS(D). UHF-(DLPNO)-IP/EA/STEOM-CCSD. UHF-CVS-IP/STEOM-CCSD
   Vijay G. Chilkuri      : MRCI spin determinant printing, contributions to CSF-ICE
   Pauline Colinet        : FMM embedding
   Dipayan Datta          : RHF DLPNO-CCSD density
   Achintya Kumar Dutta   : EOM-CC, STEOM-CC
   Nicolas Foglia         : Exact transition moments, OPA infrastructure, MCD improvements
   Dmitry Ganyushin       : Spin-Orbit,Spin-Spin,Magnetic field MRCI
   Miquel Garcia          : C-PCM and meta-GGA Hessian, CCSD/C-PCM, Gaussian charge scheme
   Tiago L. C. Gouveia    : GS-ROHF, GS-ROCIS
   Yang Guo               : DLPNO-NEVPT2, F12-NEVPT2, CIM, IAO-localization
   Andreas Hansen         : Spin unrestricted coupled pair/coupled cluster methods
   Ingolf Harden          : AUTO-CI MPn and infrastructure 
   Benjamin Helmich-Paris : MC-RPA, TRAH-(SCF,CASSCF), AVAS, COSX integrals, SCF dyn. polar.
   Lee Huntington         : MR-EOM, pCC
   Robert Izsak           : Overlap fitted RIJCOSX, COSX-SCS-MP3, EOM
   Riya Kayal             : Wick's Theorem for AUTO-CI, AUTO-CI UHF-CCSDT
   Emily Kempfer          : AUTO-CI, RHF CISDT and CCSDT
   Christian Kollmar      : KDIIS, OOCD, Brueckner-CCSD(T), CCSD density, CASPT2, CASPT2-K, improved NEVPT2
   Axel Koslowski         : Symmetry handling
   Simone Kossmann        : Meta GGA functionals, TD-DFT gradient, OOMP2, (MP2 Hessian; deprecated post 5.0)
   Lucas Lang             : DCDCAS
   Marvin Lechner         : AUTO-CI (C++ implementation), FIC-MRCC
   Spencer Leger          : CASSCF response
   Dagmar Lenk            : GEPOL surface, SMD, ORCA-2-JSON
   Dimitrios Liakos       : Extrapolation schemes; Compound Job, initial MDCI parallelization
   Dimitrios Manganas     : Further ROCIS development; embedding schemes. LFT, Crystal Embedding
   Dimitrios Pantazis     : SARC Basis sets
   Anastasios Papadopoulos: AUTO-CI, single reference methods and gradients
   Taras Petrenko         : pre 6.0 DFT Hessian and TD-DFT gradient, (ASA, deprecated), ECA, 1-Electron XAS/XES, NRVS
   Peter Pinski           : DLPNO-MP2, DLPNO-MP2 Gradient
   Christoph Reimann      : Effective Core Potentials
   Marius Retegan         : Local ZFS, SOC
   Christoph Riplinger    : Optimizer, TS searches, QM/MM, DLPNO-CCSD(T), (RO)-DLPNO pert. Triples
   Michael Roemelt        : Original ROCIS implementation
   Masaaki Saitow         : Open-shell DLPNO-CCSD energy and density
   Barbara Sandhoefer     : DKH picture change effects
   Kantharuban Sivalingam : CASSCF convergence/infrastructure, NEVPT2 and variants, FIC-MRCI
   Bernardo de Souza      : ESD, SOC TD-DFT
   Georgi Stoychev        : AutoAux, RI-MP2 NMR, DLPNO-MP2 response, X2C
   Van Anh Tran           : RI-MP2 g-tensors
   Willem Van den Heuvel  : Paramagnetic NMR
   Zikuan Wang            : NOTCH, Electric field optimization 
   Frank Wennmohs         : Technical directorship and infrastructure
   Hang Xu                : AUTO-CI-Response properties 


 We gratefully acknowledge several colleagues who have allowed us to
 interface, adapt or use parts of their codes:
   Stefan Grimme, W. Hujo, H. Kruse, P. Pracht,  : VdW corrections, initial TS optimization,
                  C. Bannwarth, S. Ehlert,         DFT functionals, gCP, sTDA/sTD-DF
                  L. Wittmann, M. Mueller
   Ed Valeev, F. Pavosevic, A. Kumar             : LibInt (2-el integral package), F12 methods
   Garnet Chan, S. Sharma, J. Yang, R. Olivares  : DMRG
   Ulf Ekstrom                                   : XCFun DFT Library
   Mihaly Kallay                                 : mrcc  (arbitrary order and MRCC methods)
   Frank Weinhold                                : gennbo (NPA and NBO analysis)
   Simon Mueller                                 : openCOSMO-RS
   Christopher J. Cramer and Donald G. Truhlar   : smd solvation model
   Lars Goerigk                                  : TD-DFT with DH, B97 family of functionals
   V. Asgeirsson, H. Jonsson                     : NEB implementation
   FAccTs GmbH                                   : IRC, NEB, NEB-TS, DLPNO-Multilevel, CI-OPT
                                                   MM, QMMM, 2- and 3-layer-ONIOM, Crystal-QMMM,
                                                   LR-CPCM, SF, NACMEs, symmetry and pop. for TD-DFT,
                                                   nearIR, NL-DFT gradient (VV10), updates on ESD,
                                                   ML-optimized integration grids, MBIS, APM,
                                                   GOAT, DOCKER, SOLVATOR, interface openCOSMO-RS
   S Lehtola, MJT Oliveira, MAL Marques          : LibXC Library
   Liviu Ungur et al                             : ANISO software


 Your calculation uses the libint2 library for the computation of 2-el integrals
 For citations please refer to: http://libint.valeyev.net

 Your ORCA version has been built with support for libXC version: 6.2.2
 For citations please refer to: https://libxc.gitlab.io

 This ORCA versions uses:
   CBLAS   interface :  Fast vector & matrix operations
   LAPACKE interface :  Fast linear algebra routines
   Shared memory     :  Shared parallel matrices


Your calculation utilizes the atom-pairwise dispersion correction
with the zero-damping scheme (D30)


XCFun DFT library Copyright 2009-2010 Ulf Ekstrom and contributors.
See http://admol.org/xcfun for more information.
This is free software; see the source code for copying conditions.
There is ABSOLUTELY NO WARRANTY; not even for MERCHANTABILITY or FITNESS FOR A PARTICULAR PURPOSE.
For details see the documentation.
Scientific users of this library should cite U. Ekstrom, L. Visscher, R. Bast, A. J. Thorvaldsen and K. Ruud;
J.Chem.Theor.Comp. 2010, DOI: 10.1021/ct100117s
XCFun Version 0.99 

Warning: RI is on but no J-basis has been assigned. Assigning Def2/J (nothing to worry about!)
================================================================================

----- Orbital basis set information -----
Your calculation utilizes the basis: def2-TZVP
   F. Weigend and R. Ahlrichs, Phys. Chem. Chem. Phys. 7, 3297 (2005).

----- AuxJ basis set information -----
Your calculation utilizes the auxiliary basis: def2/J
   F. Weigend, Phys. Chem. Chem. Phys. 8, 1057 (2006).

================================================================================
                                        WARNINGS
                       Please study these warnings very carefully!
================================================================================

WARNING: Functional chosen is sensitive to the integration grid.
         DEFGRID3 seems to be a minimum grid for robust results!

================================================================================
                                       INPUT FILE
================================================================================
NAME = data/single_point_PO_M06-2x/13831/13831.inp
|  1> ! RIJCOSX M062X def2-TZVP D3ZERO NormalSCF
|  2> %pal
|  3> nprocs 6
|  4> end
|  5> 
|  6> * xyz 0 1
|  7>   C          -1.52642918365407      5.02859629400766     -1.16367290104739
|  8>   C          -0.60790351123165      4.13854412999273     -0.32137673476879
|  9>   C          -0.79735042007363      2.64250611260164     -0.60333437744731
| 10>   C           0.12742924596335      1.74159159674681      0.22489776218057
| 11>   P           0.00211177683330     -0.02560246919904     -0.29491866244650
| 12>   O           0.01130281398233     -0.21049769208428     -1.80539121926812
| 13>   C           1.39690003495540     -0.88770811494129      0.55374734650038
| 14>   C           2.72969936038486     -0.66003558611803     -0.17061037080765
| 15>   C           3.88354814891063     -1.49863408606263      0.39432061878382
| 16>   C           5.20804883309113     -1.26731743120316     -0.33885439045758
| 17>   C          -1.53163304033428     -0.66569452066494      0.50929054953913
| 18>   C          -1.92609547638976     -2.04375239295974     -0.03714440525983
| 19>   C          -3.28480012977880     -2.53815218059671      0.47577207577517
| 20>   C          -3.67496049026609     -3.90921327988155     -0.08401172581912
| 21>   H          -1.36498504070241      6.10473851531979     -0.95010501031316
| 22>   H          -2.59611573723391      4.80480819178442     -0.96673431168503
| 23>   H          -1.35211654009175      4.87075484794452     -2.24857998631217
| 24>   H          -0.78042260952733      4.33482597050316      0.76088887166281
| 25>   H           0.45514208227246      4.41042017413090     -0.50921390314897
| 26>   H          -1.85943690059377      2.36605877671972     -0.41583785837258
| 27>   H          -0.61837910993117      2.42631888167472     -1.67853899441852
| 28>   H           1.18765353206854      2.03929069580886      0.07238375504060
| 29>   H          -0.07682502871082      1.81930007800422      1.31564764755612
| 30>   H           1.43757260335424     -0.56506126875983      1.61754102799020
| 31>   H           1.14271204183676     -1.97007741254846      0.55386514433473
| 32>   H           3.00395844890602      0.41803892511038     -0.12469677973966
| 33>   H           2.58074603485597     -0.88516194122186     -1.24862067506292
| 34>   H           4.00753158243481     -1.27352321176392      1.47765372963938
| 35>   H           3.60718758675724     -2.57566595026334      0.34177381563446
| 36>   H           5.52690805176472     -0.20589988419337     -0.26944867748441
| 37>   H           6.02431597674771     -1.88986088407011      0.08056748207041
| 38>   H           5.11702305819668     -1.51341729757701     -1.41749373789320
| 39>   H          -1.39238378053090     -0.67633156631762      1.61292084737773
| 40>   H          -2.33288590922549      0.07386946184312      0.29226326786134
| 41>   H          -1.14240764557456     -2.79071254544442      0.22262058477744
| 42>   H          -1.92937695462499     -1.98758888232811     -1.14695133482589
| 43>   H          -3.26786984457774     -2.57554278208350      1.58837992737741
| 44>   H          -4.06476198193404     -1.78864528916168      0.21290889733670
| 45>   H          -4.66328686122845     -4.24128737762683      0.29376633914965
| 46>   H          -3.72767893415604     -3.88890870728208     -1.19266048781632
| 47>   H          -2.93168608294451     -4.68536789783916      0.19572485380710
| 48> **                         ****END OF INPUT****
================================================================================

                       ****************************
                       * Single Point Calculation *
                       ****************************

---------------------------------
CARTESIAN COORDINATES (ANGSTROEM)
---------------------------------
  C     -1.526429    5.028596   -1.163673
  C     -0.607904    4.138544   -0.321377
  C     -0.797350    2.642506   -0.603334
  C      0.127429    1.741592    0.224898
  P      0.002112   -0.025602   -0.294919
  O      0.011303   -0.210498   -1.805391
  C      1.396900   -0.887708    0.553747
  C      2.729699   -0.660036   -0.170610
  C      3.883548   -1.498634    0.394321
  C      5.208049   -1.267317   -0.338854
  C     -1.531633   -0.665695    0.509291
  C     -1.926095   -2.043752   -0.037144
  C     -3.284800   -2.538152    0.475772
  C     -3.674960   -3.909213   -0.084012
  H     -1.364985    6.104739   -0.950105
  H     -2.596116    4.804808   -0.966734
  H     -1.352117    4.870755   -2.248580
  H     -0.780423    4.334826    0.760889
  H      0.455142    4.410420   -0.509214
  H     -1.859437    2.366059   -0.415838
  H     -0.618379    2.426319   -1.678539
  H      1.187654    2.039291    0.072384
  H     -0.076825    1.819300    1.315648
  H      1.437573   -0.565061    1.617541
  H      1.142712   -1.970077    0.553865
  H      3.003958    0.418039   -0.124697
  H      2.580746   -0.885162   -1.248621
  H      4.007532   -1.273523    1.477654
  H      3.607188   -2.575666    0.341774
  H      5.526908   -0.205900   -0.269449
  H      6.024316   -1.889861    0.080567
  H      5.117023   -1.513417   -1.417494
  H     -1.392384   -0.676332    1.612921
  H     -2.332886    0.073869    0.292263
  H     -1.142408   -2.790713    0.222621
  H     -1.929377   -1.987589   -1.146951
  H     -3.267870   -2.575543    1.588380
  H     -4.064762   -1.788645    0.212909
  H     -4.663287   -4.241287    0.293766
  H     -3.727679   -3.888909   -1.192660
  H     -2.931686   -4.685368    0.195725

----------------------------
CARTESIAN COORDINATES (A.U.)
----------------------------
  NO LB      ZA    FRAG     MASS         X           Y           Z
   0 C     6.0000    0    12.011   -2.884533    9.502670   -2.199023
   1 C     6.0000    0    12.011   -1.148771    7.820715   -0.607314
   2 C     6.0000    0    12.011   -1.506774    4.993613   -1.140137
   3 C     6.0000    0    12.011    0.240806    3.291131    0.424995
   4 P    15.0000    0    30.974    0.003991   -0.048382   -0.557316
   5 O     8.0000    0    15.999    0.021359   -0.397783   -3.411695
   6 C     6.0000    0    12.011    2.639759   -1.677525    1.046431
   7 C     6.0000    0    12.011    5.158384   -1.247286   -0.322407
   8 C     6.0000    0    12.011    7.338842   -2.832008    0.745158
   9 C     6.0000    0    12.011    9.841786   -2.394883   -0.640342
  10 C     6.0000    0    12.011   -2.894367   -1.257980    0.962420
  11 C     6.0000    0    12.011   -3.639793   -3.862132   -0.070193
  12 C     6.0000    0    12.011   -6.207373   -4.796413    0.899079
  13 C     6.0000    0    12.011   -6.944669   -7.387342   -0.158759
  14 H     1.0000    0     1.008   -2.579448   11.536284   -1.795438
  15 H     1.0000    0     1.008   -4.905948    9.079772   -1.826863
  16 H     1.0000    0     1.008   -2.555130    9.204393   -4.249200
  17 H     1.0000    0     1.008   -1.474785    8.191634    1.437872
  18 H     1.0000    0     1.008    0.860094    8.334486   -0.962275
  19 H     1.0000    0     1.008   -3.513827    4.471203   -0.785820
  20 H     1.0000    0     1.008   -1.168567    4.585078   -3.171979
  21 H     1.0000    0     1.008    2.244340    3.853701    0.136785
  22 H     1.0000    0     1.008   -0.145178    3.437979    2.486214
  23 H     1.0000    0     1.008    2.716619   -1.067811    3.056710
  24 H     1.0000    0     1.008    2.159413   -3.722907    1.046653
  25 H     1.0000    0     1.008    5.676659    0.789979   -0.235643
  26 H     1.0000    0     1.008    4.876903   -1.672714   -2.359551
  27 H     1.0000    0     1.008    7.573137   -2.406610    2.792361
  28 H     1.0000    0     1.008    6.816597   -4.867303    0.645859
  29 H     1.0000    0     1.008   10.444343   -0.389094   -0.509184
  30 H     1.0000    0     1.008   11.384307   -3.571320    0.152250
  31 H     1.0000    0     1.008    9.669772   -2.859944   -2.678675
  32 H     1.0000    0     1.008   -2.631224   -1.278081    3.047979
  33 H     1.0000    0     1.008   -4.408515    0.139593    0.552298
  34 H     1.0000    0     1.008   -2.158838   -5.273682    0.420692
  35 H     1.0000    0     1.008   -3.645994   -3.755999   -2.167424
  36 H     1.0000    0     1.008   -6.175379   -4.867071    3.001603
  37 H     1.0000    0     1.008   -7.681287   -3.380050    0.402340
  38 H     1.0000    0     1.008   -8.812335   -8.014872    0.555138
  39 H     1.0000    0     1.008   -7.044292   -7.348972   -2.253802
  40 H     1.0000    0     1.008   -5.540084   -8.854062    0.369866

--------------------------------
INTERNAL COORDINATES (ANGSTROEM)
--------------------------------
 C      0   0   0     0.000000000000     0.00000000     0.00000000
 C      1   0   0     1.531451957227     0.00000000     0.00000000
 C      2   1   0     1.534118637203   113.05440529     0.00000000
 C      3   2   1     1.533894674580   113.51997890   179.43338106
 P      4   3   2     1.846317537721   111.66793688   186.78295536
 O      5   4   3     1.521774642817   113.28682119    44.68597138
 C      5   4   3     1.846319155552   105.44034795   169.08459870
 C      7   5   4     1.533910989878   111.71745269   280.72216839
 C      8   7   5     1.534197345159   113.48210473   187.28837569
 C      9   8   7     1.531455207111   113.05443410   179.80492920
 C      5   4   3     1.846305352638   105.40149111   280.29197854
 C     11   5   4     1.534025838335   111.70901834   169.02741705
 C     12  11   5     1.534142366821   113.46210384   187.06126568
 C     13  12  11     1.531467123185   113.07484478   179.53287796
 H      1   2   3     1.108944333922   111.76194625   180.55204556
 H      1   2   3     1.110448218327   111.29011032    60.27689873
 H      1   2   3     1.110100087136   111.14326001   300.85507141
 H      2   1   3     1.113367972889   109.83043735   237.56133643
 H      2   1   3     1.113222942213   109.75499293   121.88582494
 H      3   2   1     1.113375842330   109.20702483   302.27987755
 H      3   2   1     1.111230226832   110.34441459    57.88491062
 H      4   3   2     1.111737744616   110.09701105   304.74917102
 H      4   3   2     1.112426954559   112.19159296    63.68349825
 H      7   5   4     1.112390328054   109.37568416    45.47163024
 H      7   5   4     1.111816012713   106.37372709   160.58585574
 H      8   7   5     1.113360120195   109.77245253    64.79815789
 H      8   7   5     1.111294373705   108.15297226   310.03349717
 H      9   8   7     1.113399041940   109.36088662   302.49017347
 H      9   8   7     1.113163942705   108.95118729    57.47279218
 H     10   9   8     1.110448361441   111.27181592    60.24304140
 H     10   9   8     1.108948649702   111.76135022   180.50079539
 H     10   9   8     1.110096247071   111.14782080   300.81146285
 H     11   5   4     1.112431273115   109.35752951   293.77447781
 H     11   5   4     1.111783200594   106.44170604    48.88842692
 H     12  11   5     1.113370529346   109.79039059    64.54409899
 H     12  11   5     1.111231987003   108.12609525   309.79735647
 H     13  12  11     1.113364685574   109.35755797   302.23849022
 H     13  12  11     1.113192760354   108.94149380    57.21704642
 H     14  13  12     1.108953780960   111.75356631   180.48008337
 H     14  13  12     1.110087198139   111.14756673   300.78313588
 H     14  13  12     1.110461791120   111.29309948    60.22677834

---------------------------
INTERNAL COORDINATES (A.U.)
---------------------------
 C      0   0   0     0.000000000000     0.00000000     0.00000000
 C      1   0   0     2.894024786417     0.00000000     0.00000000
 C      2   1   0     2.899064081258   113.05440529     0.00000000
 C      3   2   1     2.898640853237   113.51997890   179.43338106
 P      4   3   2     3.489034502548   111.66793688   186.78295536
 O      5   4   3     2.875737312470   113.28682119    44.68597138
 C      5   4   3     3.489037559806   105.44034795   169.08459870
 C      7   5   4     2.898671684682   111.71745269   280.72216839
 C      8   7   5     2.899212817739   113.48210473   187.28837569
 C      9   8   7     2.894030927807   113.05443410   179.80492920
 C      5   4   3     3.489011476079   105.40149111   280.29197854
 C     11   5   4     2.898888716812   111.70901834   169.02741705
 C     12  11   5     2.899108923737   113.46210384   187.06126568
 C     13  12  11     2.894053445923   113.07484478   179.53287796
 H      1   2   3     2.095601088875   111.76194625   180.55204556
 H      1   2   3     2.098443018539   111.29011032    60.27689873
 H      1   2   3     2.097785145929   111.14326001   300.85507141
 H      2   1   3     2.103960555040   109.83043735   237.56133643
 H      2   1   3     2.103686486781   109.75499293   121.88582494
 H      3   2   1     2.103975426128   109.20702483   302.27987755
 H      3   2   1     2.099920800449   110.34441459    57.88491062
 H      4   3   2     2.100879870067   110.09701105   304.74917102
 H      4   3   2     2.102182288108   112.19159296    63.68349825
 H      7   5   4     2.102113074045   109.37568416    45.47163024
 H      7   5   4     2.101027775336   106.37372709   160.58585574
 H      8   7   5     2.103945715599   109.77245253    64.79815789
 H      8   7   5     2.100042020471   108.15297226   310.03349717
 H      9   8   7     2.104019267036   109.36088662   302.49017347
 H      9   8   7     2.103574993869   108.95118729    57.47279218
 H     10   9   8     2.098443288985   111.27181592    60.24304140
 H     10   9   8     2.095609244518   111.76135022   180.50079539
 H     10   9   8     2.097777889258   111.14782080   300.81146285
 H     11   5   4     2.102190448996   109.35752951   293.77447781
 H     11   5   4     2.100965769416   106.44170604    48.88842692
 H     12  11   5     2.103965386043   109.79039059    64.54409899
 H     12  11   5     2.099924126689   108.12609525   309.79735647
 H     13  12  11     2.103954342914   109.35755797   302.23849022
 H     13  12  11     2.103629451333   108.94149380    57.21704642
 H     14  13  12     2.095618941190   111.75356631   180.48008337
 H     14  13  12     2.097760789255   111.14756673   300.78313588
 H     14  13  12     2.098468667400   111.29309948    60.22677834

---------------------
BASIS SET INFORMATION
---------------------
There are 4 groups of distinct atoms

 Group   1 Type C   : 11s6p2d1f contracted to 5s3p2d1f pattern {62111/411/11/1}
 Group   2 Type P   : 14s9p3d1f contracted to 5s5p2d1f pattern {73211/51111/21/1}
 Group   3 Type O   : 11s6p2d1f contracted to 5s3p2d1f pattern {62111/411/11/1}
 Group   4 Type H   : 5s1p contracted to 3s1p pattern {311/1}

Atom   0C    basis set group =>   1
Atom   1C    basis set group =>   1
Atom   2C    basis set group =>   1
Atom   3C    basis set group =>   1
Atom   4P    basis set group =>   2
Atom   5O    basis set group =>   3
Atom   6C    basis set group =>   1
Atom   7C    basis set group =>   1
Atom   8C    basis set group =>   1
Atom   9C    basis set group =>   1
Atom  10C    basis set group =>   1
Atom  11C    basis set group =>   1
Atom  12C    basis set group =>   1
Atom  13C    basis set group =>   1
Atom  14H    basis set group =>   4
Atom  15H    basis set group =>   4
Atom  16H    basis set group =>   4
Atom  17H    basis set group =>   4
Atom  18H    basis set group =>   4
Atom  19H    basis set group =>   4
Atom  20H    basis set group =>   4
Atom  21H    basis set group =>   4
Atom  22H    basis set group =>   4
Atom  23H    basis set group =>   4
Atom  24H    basis set group =>   4
Atom  25H    basis set group =>   4
Atom  26H    basis set group =>   4
Atom  27H    basis set group =>   4
Atom  28H    basis set group =>   4
Atom  29H    basis set group =>   4
Atom  30H    basis set group =>   4
Atom  31H    basis set group =>   4
Atom  32H    basis set group =>   4
Atom  33H    basis set group =>   4
Atom  34H    basis set group =>   4
Atom  35H    basis set group =>   4
Atom  36H    basis set group =>   4
Atom  37H    basis set group =>   4
Atom  38H    basis set group =>   4
Atom  39H    basis set group =>   4
Atom  40H    basis set group =>   4
---------------------------------
AUXILIARY/J BASIS SET INFORMATION
---------------------------------
There are 4 groups of distinct atoms

 Group   1 Type C   : 12s5p4d2f1g contracted to 6s4p3d1f1g pattern {711111/2111/211/2/1}
 Group   2 Type P   : 14s5p5d2f1g contracted to 8s4p3d1f1g pattern {71111111/2111/311/2/1}
 Group   3 Type O   : 12s5p4d2f1g contracted to 6s4p3d1f1g pattern {711111/2111/211/2/1}
 Group   4 Type H   : 5s2p1d contracted to 3s1p1d pattern {311/2/1}

Atom   0C    basis set group =>   1
Atom   1C    basis set group =>   1
Atom   2C    basis set group =>   1
Atom   3C    basis set group =>   1
Atom   4P    basis set group =>   2
Atom   5O    basis set group =>   3
Atom   6C    basis set group =>   1
Atom   7C    basis set group =>   1
Atom   8C    basis set group =>   1
Atom   9C    basis set group =>   1
Atom  10C    basis set group =>   1
Atom  11C    basis set group =>   1
Atom  12C    basis set group =>   1
Atom  13C    basis set group =>   1
Atom  14H    basis set group =>   4
Atom  15H    basis set group =>   4
Atom  16H    basis set group =>   4
Atom  17H    basis set group =>   4
Atom  18H    basis set group =>   4
Atom  19H    basis set group =>   4
Atom  20H    basis set group =>   4
Atom  21H    basis set group =>   4
Atom  22H    basis set group =>   4
Atom  23H    basis set group =>   4
Atom  24H    basis set group =>   4
Atom  25H    basis set group =>   4
Atom  26H    basis set group =>   4
Atom  27H    basis set group =>   4
Atom  28H    basis set group =>   4
Atom  29H    basis set group =>   4
Atom  30H    basis set group =>   4
Atom  31H    basis set group =>   4
Atom  32H    basis set group =>   4
Atom  33H    basis set group =>   4
Atom  34H    basis set group =>   4
Atom  35H    basis set group =>   4
Atom  36H    basis set group =>   4
Atom  37H    basis set group =>   4
Atom  38H    basis set group =>   4
Atom  39H    basis set group =>   4
Atom  40H    basis set group =>   4


           ************************************************************
           *        Program running with 6 parallel MPI-processes     *
           *              working on a common directory               *
           ************************************************************
------------------------------------------------------------------------------
                             ORCA STARTUP CALCULATIONS
                           -- RI-GTO INTEGRALS CHOSEN --
------------------------------------------------------------------------------
------------------------------------------------------------------------------
                   ___                                                        
                  /   \      - P O W E R E D   B Y -                         
                 /     \                                                     
                 |  |  |   _    _      __       _____    __    __             
                 |  |  |  | |  | |    /  \     |  _  \  |  |  /  |          
                  \  \/   | |  | |   /    \    | | | |  |  | /  /          
                 / \  \   | |__| |  /  /\  \   | |_| |  |  |/  /          
                |  |  |   |  __  | /  /__\  \  |    /   |      \           
                |  |  |   | |  | | |   __   |  |    \   |  |\   \          
                \     /   | |  | | |  |  |  |  | |\  \  |  | \   \       
                 \___/    |_|  |_| |__|  |__|  |_| \__\ |__|  \__/        
                                                                              
                      - O R C A' S   B I G   F R I E N D -                    
                                      &                                       
                       - I N T E G R A L  F E E D E R -                       
                                                                              
 v1 FN, 2020, v2 2021, v3 2022-2024                                           
------------------------------------------------------------------------------


----------------------
SHARK INTEGRAL PACKAGE
----------------------

Number of atoms                             ...     41
Number of basis functions                   ...    602
Number of shells                            ...    264
Maximum angular momentum                    ...      3
Integral batch strategy                     ... SHARK/LIBINT Hybrid
RI-J (if used) integral strategy            ... SPLIT-RIJ (Revised 2003 algorithm where possible)
Printlevel                                  ...      1
Contraction scheme used                     ... SEGMENTED contraction
Prescreening option                         ... SCHWARTZ
   Thresh                                   ... 1.000e-10
   Tcut                                     ... 1.000e-11
   Tpresel                                  ... 1.000e-11 
Coulomb Range Separation                    ... NOT USED
Exchange Range Separation                   ... NOT USED
Multipole approximations                    ... NOT USED
Finite Nucleus Model                        ... NOT USED
CABS basis                                  ... NOT available
Auxiliary Coulomb fitting basis             ... AVAILABLE
   # of basis functions in Aux-J            ...    985
   # of shells in Aux-J                     ...    347
   Maximum angular momentum in Aux-J        ...      4
Auxiliary J/K fitting basis                 ... NOT available
Auxiliary Correlation fitting basis         ... NOT available
Auxiliary 'external' fitting basis          ... NOT available

Checking pre-screening integrals            ... done (  0.0 sec) Dimension = 264
Check shell pair data                       ... done (  0.0 sec)
Shell pair information
Shell pair cut-off parameter TPreSel        ...   1.0e-11
Total number of shell pairs                 ...     34980
Shell pairs after pre-screening             ...     23955
Total number of primitive shell pairs       ...    101428
Primitive shell pairs kept                  ...     47816
          la=0 lb=0:   7849 shell pairs
          la=1 lb=0:   7432 shell pairs
          la=1 lb=1:   1800 shell pairs
          la=2 lb=0:   2879 shell pairs
          la=2 lb=1:   1379 shell pairs
          la=2 lb=2:    295 shell pairs
          la=3 lb=0:   1353 shell pairs
          la=3 lb=1:    648 shell pairs
          la=3 lb=2:    254 shell pairs
          la=3 lb=3:     66 shell pairs

Calculating one electron integrals          ... done (  0.0 sec)
Calculating RI/J V-Matrix + Cholesky decomp.... done (  0.0 sec)
Calculating Nuclear repulsion               ... done (  0.0 sec) ENN=   1062.717899437656 Eh

Diagonalization of the overlap matrix:
Smallest eigenvalue                        ... 1.116e-04
Time for diagonalization                   ...    0.060 sec
Threshold for overlap eigenvalues          ... 1.000e-07
Number of eigenvalues below threshold      ... 0
Time for construction of square roots      ...    0.032 sec
Total time needed                          ...    0.096 sec

-------------------
DFT GRID GENERATION
-------------------

General Integration Accuracy     IntAcc      ... 4.388
Radial Grid Type                 RadialGrid  ... OptM3 with GC (2021)
Angular Grid (max. ang.)         AngularGrid ... 4 (Lebedev-302)
Angular grid pruning method      GridPruning ... 4 (adaptive)
Weight generation scheme         WeightScheme... mBecke (2022)
Basis function cutoff            BFCut       ... 1.0000e-10
Integration weight cutoff        WCut        ... 1.0000e-14
Partially contracted basis set               ... off
Rotationally invariant grid construction     ... off
Angular grids for H and He will be reduced by one unit

Total number of grid points                  ...   171058
Total number of batches                      ...     2695
Average number of points per batch           ...       63
Average number of grid points per atom       ...     4172

--------------------
COSX GRID GENERATION
--------------------

GRIDX 1
-------
General Integration Accuracy     IntAcc      ... 3.816
Radial Grid Type                 RadialGrid  ... OptM3 with GC (2021)
Angular Grid (max. ang.)         AngularGrid ... 1 (Lebedev-50)
Angular grid pruning method      GridPruning ... 4 (adaptive)
Weight generation scheme         WeightScheme... mBecke (2022)
Basis function cutoff            BFCut       ... 1.0000e-10
Integration weight cutoff        WCut        ... 1.0000e-14
Partially contracted basis set               ... on
Rotationally invariant grid construction     ... off
Angular grids for H and He will be reduced by one unit

Total number of grid points                  ...    22831
Total number of batches                      ...      207
Average number of points per batch           ...      110
Average number of grid points per atom       ...      557
UseSFitting                                  ... on

GRIDX 2
-------
General Integration Accuracy     IntAcc      ... 4.020
Radial Grid Type                 RadialGrid  ... OptM3 with GC (2021)
Angular Grid (max. ang.)         AngularGrid ... 2 (Lebedev-110)
Angular grid pruning method      GridPruning ... 4 (adaptive)
Weight generation scheme         WeightScheme... mBecke (2022)
Basis function cutoff            BFCut       ... 1.0000e-10
Integration weight cutoff        WCut        ... 1.0000e-14
Partially contracted basis set               ... on
Rotationally invariant grid construction     ... off
Angular grids for H and He will be reduced by one unit

Total number of grid points                  ...    44870
Total number of batches                      ...      374
Average number of points per batch           ...      119
Average number of grid points per atom       ...     1094
UseSFitting                                  ... on

GRIDX 3
-------
General Integration Accuracy     IntAcc      ... 4.338
Radial Grid Type                 RadialGrid  ... OptM3 with GC (2021)
Angular Grid (max. ang.)         AngularGrid ... 3 (Lebedev-194)
Angular grid pruning method      GridPruning ... 4 (adaptive)
Weight generation scheme         WeightScheme... mBecke (2022)
Basis function cutoff            BFCut       ... 1.0000e-10
Integration weight cutoff        WCut        ... 1.0000e-14
Partially contracted basis set               ... on
Rotationally invariant grid construction     ... off
Angular grids for H and He will be reduced by one unit

Total number of grid points                  ...    97926
Total number of batches                      ...      787
Average number of points per batch           ...      124
Average number of grid points per atom       ...     2388
UseSFitting                                  ... on
Initializing property integral containers    ... done (  0.0 sec)

SHARK setup successfully completed in   2.9 seconds

Maximum memory used throughout the entire STARTUP-calculation: 63.9 MB


           ************************************************************
           *        Program running with 6 parallel MPI-processes     *
           *              working on a common directory               *
           ************************************************************
-------------------------------------------------------------------------------
                                 ORCA GUESS
                   Start orbitals & Density for SCF / CASSCF
-------------------------------------------------------------------------------

------------
SCF SETTINGS
------------
Hamiltonian:
 Density Functional     Method          .... DFT(GTOs)
 Exchange Functional    Exchange        .... M062X
 Correlation Functional Correlation     .... M062X
 Gradients option       PostSCFGGA      .... off
 Hybrid DFT is turned on
   Fraction HF Exchange ScalHFX         ....  0.540000
   Scaling of DF-GGA-X  ScalDFX         ....  0.460000
   Scaling of DF-GGA-C  ScalDFC         ....  1.000000
   Scaling of DF-LDA-C  ScalLDAC        ....  1.000000
   Perturbative correction              ....  0.000000
 RI-approximation to the Coulomb term is turned on
   Number of AuxJ basis functions       .... 985
   RIJ-COSX (HFX calculated with COS-X)).... on


General Settings:
 Integral files         IntName         .... data/single_point_PO_M06-2x/13831/13831
 Hartree-Fock type      HFTyp           .... RHF
 Total Charge           Charge          ....    0
 Multiplicity           Mult            ....    1
 Number of Electrons    NEL             ....  122
 Basis Dimension        Dim             ....  602
 Nuclear Repulsion      ENuc            ....   1062.7178994377 Eh

Convergence Acceleration:
 AO-DIIS                CNVDIIS         .... on
   Start iteration      DIISMaxIt       ....    12
   Startup error        DIISStart       ....  0.200000
   # of expansion vecs  DIISMaxEq       ....     5
   Bias factor          DIISBfac        ....   1.050
   Max. coefficient     DIISMaxC        ....  10.000
 MO-DIIS                CNVKDIIS        .... off
 Trust-Rad. Augm. Hess. CNVTRAH         .... auto
   Auto Start mean grad. ratio tolernc. ....  1.125000
   Auto Start start iteration           ....    50
   Auto Start num. interpolation iter.  ....    10
   Max. Number of Micro iterations      ....    24
   Max. Number of Macro iterations      .... Maxiter - #DIIS iter
   Number of Davidson start vectors     ....     2
   Converg. threshold    (grad. norm)   ....   5.000e-05
   Grad. Scal. Fac. for Micro threshold ....   0.100
   Minimum threshold for Micro iter.    ....   1.000e-02
   NR start threshold (gradient norm)   ....   1.000e-04
   Initial trust radius                 ....   0.400
   Minimum AH scaling param. (alpha)    ....   1.000
   Maximum AH scaling param. (alpha)    .... 1000.000
   Quad. conv. algorithm                .... NR
   White noise on init. David. guess    .... on
   Maximum white noise                  ....   0.010
   Pseudo random numbers                .... off
   Inactive MOs                         .... canonical
   Orbital update algorithm             .... Taylor
   Preconditioner                       .... Diag
   Full preconditioner red. dimension   ....   250
 SOSCF                  CNVSOSCF        .... on
   Start iteration      SOSCFMaxIt      ....   150
   Startup grad/error   SOSCFStart      ....  0.003300
   Hessian update       SOSCFHessUp     .... L-BFGS
 Level Shifting         CNVShift        .... on
   Level shift para.    LevelShift      ....    0.2500
   Turn off err/grad.   ShiftErr        ....    0.0010
 Zerner damping         CNVZerner       .... off
 Static damping         CNVDamp         .... on
   Fraction old density DampFac         ....    0.7000
   Max. Damping (<1)    DampMax         ....    0.9800
   Min. Damping (>=0)   DampMin         ....    0.0000
   Turn off err/grad.   DampErr         ....    0.1000

SCF Procedure:
 Maximum # iterations   MaxIter         ....   125
 SCF integral mode      SCFMode         .... Direct
   Integral package                     .... SHARK and LIBINT hybrid scheme
 Reset frequency        DirectResetFreq ....    20
 Integral Threshold     Thresh          ....  1.000e-10 Eh
 Primitive CutOff       TCut            ....  1.000e-11 Eh

Convergence Tolerance:
 Convergence Check Mode ConvCheckMode   .... Total+1el-Energy
 Convergence forced     ConvForced      .... 0
 Energy Change          TolE            ....  1.000e-06 Eh
 1-El. energy change                    ....  1.000e-03 Eh
 Orbital Gradient       TolG            ....  5.000e-05
 Orbital Rotation angle TolX            ....  5.000e-05
 DIIS Error             TolErr          ....  1.000e-05

------------------------------
INITIAL GUESS: MODEL POTENTIAL
------------------------------
Loading Hartree-Fock densities                     ... done
Calculating cut-offs                               ... done
Initializing the effective Hamiltonian             ... done
Setting up the integral package (SHARK)            ... done
Starting the Coulomb interaction                   ... done (   0.5 sec)
Making the grid                                    ... done (   0.2 sec)
Mapping shells                                     ... done
Starting the XC term evaluation                    ... done (   0.2 sec)
  promolecular density results
     # of electrons  =    121.997529617
     EX              =    -99.979252304
     EC              =     -4.063306318
     EX+EC           =   -104.042558622
Transforming the Hamiltonian                       ... done (   0.0 sec)
Diagonalizing the Hamiltonian                      ... done (   0.1 sec)
Back transforming the eigenvectors                 ... done (   0.0 sec)
Now organizing SCF variables                       ... done
                      ------------------
                      INITIAL GUESS DONE (   1.1 sec)
                      ------------------
             **** ENERGY FILE WAS UPDATED (data/single_point_PO_M06-2x/13831/13831.en.tmp) ****
Finished Guess after   1.6 sec
Maximum memory used throughout the entire GUESS-calculation: 42.1 MB


           ************************************************************
           *        Program running with 6 parallel MPI-processes     *
           *              working on a common directory               *
           ************************************************************

-------------------------------------------------------------------------------------------
                                      ORCA LEAN-SCF
                              memory conserving SCF solver
-------------------------------------------------------------------------------------------

----------------------------------------D-I-I-S--------------------------------------------
Iteration    Energy (Eh)           Delta-E    RMSDP     MaxDP     DIISErr   Damp  Time(sec)
-------------------------------------------------------------------------------------------
               ***  Starting incremental Fock matrix formation  ***
    1    -889.4819492020621965     0.00e+00  1.19e-03  5.71e-02  3.70e-01  0.700   9.0
    2    -889.7527915395735363    -2.71e-01  9.56e-04  5.41e-02  1.60e-01  0.700   6.0
                               ***Turning on AO-DIIS***
    3    -889.8724159017615420    -1.20e-01  4.54e-04  2.42e-02  4.81e-02  0.700   5.1
    4    -889.9426822049310886    -7.03e-02  9.14e-04  4.20e-02  3.33e-02  0.000   5.1
    5    -890.0939262574306667    -1.51e-01  1.17e-04  6.40e-03  6.20e-03  0.000   6.1
    6    -890.0943295756787847    -4.03e-04  4.80e-05  2.97e-03  4.64e-03  0.000   4.7
                              *** Initializing SOSCF ***
---------------------------------------S-O-S-C-F--------------------------------------
Iteration    Energy (Eh)           Delta-E    RMSDP     MaxDP     MaxGrad    Time(sec)
--------------------------------------------------------------------------------------
    7    -890.0943735911528165    -4.40e-05  1.92e-05  8.72e-04  1.02e-03     4.2
               *** Restarting incremental Fock matrix formation ***
    8    -890.0943776559033722    -4.06e-06  2.12e-05  9.60e-04  5.86e-05     8.9
    9    -890.0943783541667926    -6.98e-07  6.99e-06  2.66e-04  6.48e-05     6.0
                 **** Energy Check signals convergence ****

               *****************************************************
               *                     SUCCESS                       *
               *           SCF CONVERGED AFTER   9 CYCLES          *
               *****************************************************

Recomputing exchange energy using gridx3       ... done (   12.701 sec)
Old exchange energy                            :    -55.433613698 Eh
New exchange energy                            :    -55.433605645 Eh
Exchange energy change after final integration :      0.000008053 Eh
Total energy after final integration           :   -890.094370301 Eh
             **** ENERGY FILE WAS UPDATED (data/single_point_PO_M06-2x/13831/13831.en.tmp) ****

----------------
TOTAL SCF ENERGY
----------------

Total Energy       :       -890.09437030097729 Eh          -24220.69917 eV

Components:
Nuclear Repulsion  :       1062.71789943765589 Eh           28918.02421 eV
Electronic Energy  :      -1952.81227779182268 Eh          -53138.72360 eV
One Electron Energy:      -3324.06890983467792 Eh          -90452.51355 eV
Two Electron Energy:       1371.25663204285524 Eh           37313.78995 eV

Virial components:
Potential Energy   :      -1775.72572108535724 Eh          -48319.95341 eV
Kinetic Energy     :        885.63135078437995 Eh           24099.25424 eV
Virial Ratio       :          2.00503936486964

DFT components:
N(Alpha)           :       61.000162936785 electrons
N(Beta)            :       61.000162936785 electrons
N(Total)           :      122.000325873570 electrons
E(XC)              :      -51.386072264962 Eh       

---------------
SCF CONVERGENCE
---------------

  Last Energy change         ...    6.9826e-07  Tolerance :   1.0000e-06
  Last MAX-Density change    ...    2.6551e-04  Tolerance :   1.0000e-05
  Last RMS-Density change    ...    6.9901e-06  Tolerance :   1.0000e-06
  Last DIIS Error            ...    1.0212e-03  Tolerance :   1.0000e-05
  Last Orbital Gradient      ...    6.4788e-05  Tolerance :   5.0000e-05
  Last Orbital Rotation      ...    9.2756e-05  Tolerance :   5.0000e-05


----------------
ORBITAL ENERGIES
----------------

  NO   OCC          E(Eh)            E(eV) 
   0   2.0000     -78.080954     -2124.6908 
   1   2.0000     -19.555031      -532.1195 
   2   2.0000     -10.547444      -287.0105 
   3   2.0000     -10.547428      -287.0101 
   4   2.0000     -10.547400      -287.0094 
   5   2.0000     -10.540841      -286.8309 
   6   2.0000     -10.540829      -286.8305 
   7   2.0000     -10.540817      -286.8302 
   8   2.0000     -10.538453      -286.7659 
   9   2.0000     -10.538453      -286.7659 
  10   2.0000     -10.538428      -286.7652 
  11   2.0000     -10.529065      -286.5104 
  12   2.0000     -10.529061      -286.5103 
  13   2.0000     -10.529034      -286.5096 
  14   2.0000      -6.887900      -187.4293 
  15   2.0000      -5.004810      -136.1878 
  16   2.0000      -5.004805      -136.1877 
  17   2.0000      -5.003205      -136.1441 
  18   2.0000      -1.050287       -28.5798 
  19   2.0000      -0.905814       -24.6484 
  20   2.0000      -0.896880       -24.4053 
  21   2.0000      -0.896853       -24.4046 
  22   2.0000      -0.845719       -23.0132 
  23   2.0000      -0.820441       -22.3253 
  24   2.0000      -0.820406       -22.3244 
  25   2.0000      -0.748225       -20.3602 
  26   2.0000      -0.716621       -19.5002 
  27   2.0000      -0.716556       -19.4985 
  28   2.0000      -0.663455       -18.0535 
  29   2.0000      -0.661660       -18.0047 
  30   2.0000      -0.661583       -18.0026 
  31   2.0000      -0.596200       -16.2234 
  32   2.0000      -0.548486       -14.9251 
  33   2.0000      -0.548427       -14.9235 
  34   2.0000      -0.544188       -14.8081 
  35   2.0000      -0.509913       -13.8754 
  36   2.0000      -0.509815       -13.8728 
  37   2.0000      -0.502960       -13.6862 
  38   2.0000      -0.491879       -13.3847 
  39   2.0000      -0.491820       -13.3831 
  40   2.0000      -0.483696       -13.1620 
  41   2.0000      -0.471609       -12.8331 
  42   2.0000      -0.471547       -12.8314 
  43   2.0000      -0.456910       -12.4331 
  44   2.0000      -0.439415       -11.9571 
  45   2.0000      -0.439355       -11.9555 
  46   2.0000      -0.428896       -11.6709 
  47   2.0000      -0.416925       -11.3451 
  48   2.0000      -0.416887       -11.3441 
  49   2.0000      -0.412380       -11.2214 
  50   2.0000      -0.406149       -11.0519 
  51   2.0000      -0.397757       -10.8235 
  52   2.0000      -0.397699       -10.8219 
  53   2.0000      -0.393082       -10.6963 
  54   2.0000      -0.385324       -10.4852 
  55   2.0000      -0.384537       -10.4638 
  56   2.0000      -0.384479       -10.4622 
  57   2.0000      -0.376045       -10.2327 
  58   2.0000      -0.375990       -10.2312 
  59   2.0000      -0.318552        -8.6682 
  60   2.0000      -0.318544        -8.6680 
  61   0.0000       0.050578         1.3763 
  62   0.0000       0.063839         1.7371 
  63   0.0000       0.063865         1.7378 
  64   0.0000       0.075129         2.0444 
  65   0.0000       0.084750         2.3062 
  66   0.0000       0.084802         2.3076 
  67   0.0000       0.100736         2.7412 
  68   0.0000       0.102635         2.7928 
  69   0.0000       0.102734         2.7955 
  70   0.0000       0.104231         2.8363 
  71   0.0000       0.114323         3.1109 
*Only the first 10 virtual orbitals were printed.

                    ********************************
                    * MULLIKEN POPULATION ANALYSIS *
                    ********************************

-----------------------
MULLIKEN ATOMIC CHARGES
-----------------------
   0 C :   -0.429315
   1 C :   -0.230532
   2 C :   -0.300405
   3 C :   -0.427307
   4 P :    0.734605
   5 O :   -0.605920
   6 C :   -0.428576
   7 C :   -0.301063
   8 C :   -0.231019
   9 C :   -0.429136
  10 C :   -0.427138
  11 C :   -0.301777
  12 C :   -0.230461
  13 C :   -0.428936
  14 H :    0.142259
  15 H :    0.135904
  16 H :    0.143185
  17 H :    0.127160
  18 H :    0.133801
  19 H :    0.133594
  20 H :    0.183974
  21 H :    0.174893
  22 H :    0.170027
  23 H :    0.170390
  24 H :    0.175358
  25 H :    0.133704
  26 H :    0.184546
  27 H :    0.127107
  28 H :    0.133922
  29 H :    0.135934
  30 H :    0.142268
  31 H :    0.143315
  32 H :    0.170261
  33 H :    0.174757
  34 H :    0.134091
  35 H :    0.184410
  36 H :    0.127028
  37 H :    0.133915
  38 H :    0.142209
  39 H :    0.143069
  40 H :    0.135898
Sum of atomic charges:   -0.0000000

--------------------------------
MULLIKEN REDUCED ORBITAL CHARGES
--------------------------------
  0 C s       :     3.316994  s :     3.316994
      pz      :     1.022143  p :     3.054213
      px      :     1.006995
      py      :     1.025074
      dz2     :     0.022818  d :     0.054814
      dxz     :     0.003245
      dyz     :     0.003835
      dx2y2   :     0.020897
      dxy     :     0.004020
      f0      :     0.000560  f :     0.003294
      f+1     :     0.000473
      f-1     :     0.000458
      f+2     :     0.000423
      f-2     :     0.000319
      f+3     :     0.000510
      f-3     :     0.000552

  1 C s       :     3.247147  s :     3.247147
      pz      :     0.999223  p :     2.889313
      px      :     1.005062
      py      :     0.885029
      dz2     :     0.028618  d :     0.089101
      dxz     :     0.003493
      dyz     :     0.014752
      dx2y2   :     0.025539
      dxy     :     0.016700
      f0      :     0.000729  f :     0.004972
      f+1     :     0.000513
      f-1     :     0.000749
      f+2     :     0.000783
      f-2     :     0.000344
      f+3     :     0.001043
      f-3     :     0.000811

  2 C s       :     3.278085  s :     3.278085
      pz      :     1.033530  p :     2.929710
      px      :     0.976656
      py      :     0.919524
      dz2     :     0.027243  d :     0.087485
      dxz     :     0.003574
      dyz     :     0.016832
      dx2y2   :     0.022714
      dxy     :     0.017121
      f0      :     0.000675  f :     0.005125
      f+1     :     0.000516
      f-1     :     0.000830
      f+2     :     0.000803
      f-2     :     0.000345
      f+3     :     0.001119
      f-3     :     0.000838

  3 C s       :     3.259487  s :     3.259487
      pz      :     1.035165  p :     3.094381
      px      :     1.050170
      py      :     1.009046
      dz2     :     0.028685  d :     0.069757
      dxz     :     0.003754
      dyz     :     0.006210
      dx2y2   :     0.023098
      dxy     :     0.008010
      f0      :     0.000590  f :     0.003682
      f+1     :     0.000574
      f-1     :     0.000516
      f+2     :     0.000529
      f-2     :     0.000252
      f+3     :     0.000608
      f-3     :     0.000613

  4 P s       :     5.308939  s :     5.308939
      pz      :     2.588773  p :     8.213002
      px      :     2.813882
      py      :     2.810347
      dz2     :     0.122121  d :     0.677391
      dxz     :     0.211792
      dyz     :     0.184179
      dx2y2   :     0.092023
      dxy     :     0.067276
      f0      :     0.008211  f :     0.066063
      f+1     :     0.019023
      f-1     :     0.018159
      f+2     :     0.005578
      f-2     :     0.005864
      f+3     :     0.005905
      f-3     :     0.003323

  5 O s       :     3.868154  s :     3.868154
      pz      :     1.384166  p :     4.711891
      px      :     1.665910
      py      :     1.661815
      dz2     :     0.009792  d :     0.024632
      dxz     :     0.007145
      dyz     :     0.007315
      dx2y2   :     0.000164
      dxy     :     0.000215
      f0      :     0.000517  f :     0.001243
      f+1     :     0.000336
      f-1     :     0.000352
      f+2     :     0.000018
      f-2     :     0.000019
      f+3     :     0.000001
      f-3     :     0.000001

  6 C s       :     3.260466  s :     3.260466
      pz      :     1.026791  p :     3.094760
      px      :     0.982125
      py      :     1.085843
      dz2     :     0.024242  d :     0.069664
      dxz     :     0.010061
      dyz     :     0.005021
      dx2y2   :     0.013462
      dxy     :     0.016878
      f0      :     0.000441  f :     0.003686
      f+1     :     0.000816
      f-1     :     0.000340
      f+2     :     0.000383
      f-2     :     0.000440
      f+3     :     0.000592
      f-3     :     0.000673

  7 C s       :     3.278373  s :     3.278373
      pz      :     1.023759  p :     2.930050
      px      :     0.893535
      py      :     1.012757
      dz2     :     0.029991  d :     0.087517
      dxz     :     0.014594
      dyz     :     0.003904
      dx2y2   :     0.023875
      dxy     :     0.015154
      f0      :     0.000537  f :     0.005123
      f+1     :     0.001137
      f-1     :     0.000388
      f+2     :     0.000492
      f-2     :     0.000653
      f+3     :     0.001015
      f-3     :     0.000901

  8 C s       :     3.247518  s :     3.247518
      pz      :     0.989684  p :     2.889452
      px      :     0.902620
      py      :     0.997148
      dz2     :     0.030154  d :     0.089079
      dxz     :     0.013712
      dyz     :     0.003198
      dx2y2   :     0.023908
      dxy     :     0.018106
      f0      :     0.000557  f :     0.004969
      f+1     :     0.001065
      f-1     :     0.000404
      f+2     :     0.000502
      f-2     :     0.000617
      f+3     :     0.000951
      f-3     :     0.000875

  9 C s       :     3.316821  s :     3.316821
      pz      :     1.034874  p :     3.054317
      px      :     0.957504
      py      :     1.061939
      dz2     :     0.020170  d :     0.054720
      dxz     :     0.007070
      dyz     :     0.002780
      dx2y2   :     0.009358
      dxy     :     0.015341
      f0      :     0.000520  f :     0.003278
      f+1     :     0.000642
      f-1     :     0.000243
      f+2     :     0.000333
      f-2     :     0.000418
      f+3     :     0.000500
      f-3     :     0.000622

 10 C s       :     3.260242  s :     3.260242
      pz      :     1.047626  p :     3.093617
      px      :     1.053856
      py      :     0.992134
      dz2     :     0.023086  d :     0.069589
      dxz     :     0.005208
      dyz     :     0.009676
      dx2y2   :     0.010117
      dxy     :     0.021503
      f0      :     0.000659  f :     0.003690
      f+1     :     0.000290
      f-1     :     0.000595
      f+2     :     0.000383
      f-2     :     0.000355
      f+3     :     0.000705
      f-3     :     0.000704

 11 C s       :     3.278574  s :     3.278574
      pz      :     1.051347  p :     2.930732
      px      :     0.968869
      py      :     0.910515
      dz2     :     0.028873  d :     0.087358
      dxz     :     0.008832
      dyz     :     0.008664
      dx2y2   :     0.013386
      dxy     :     0.027604
      f0      :     0.000745  f :     0.005113
      f+1     :     0.000569
      f-1     :     0.000660
      f+2     :     0.000556
      f-2     :     0.000507
      f+3     :     0.001094
      f-3     :     0.000982

 12 C s       :     3.246821  s :     3.246821
      pz      :     1.006823  p :     2.889688
      px      :     0.927704
      py      :     0.955161
      dz2     :     0.028672  d :     0.088992
      dxz     :     0.007357
      dyz     :     0.009095
      dx2y2   :     0.014608
      dxy     :     0.029261
      f0      :     0.000754  f :     0.004961
      f+1     :     0.000549
      f-1     :     0.000627
      f+2     :     0.000551
      f-2     :     0.000509
      f+3     :     0.001022
      f-3     :     0.000948

 13 C s       :     3.316646  s :     3.316646
      pz      :     1.049377  p :     3.054263
      px      :     1.062930
      py      :     0.941956
      dz2     :     0.018924  d :     0.054740
      dxz     :     0.002884
      dyz     :     0.007189
      dx2y2   :     0.008210
      dxy     :     0.017533
      f0      :     0.000697  f :     0.003287
      f+1     :     0.000103
      f-1     :     0.000541
      f+2     :     0.000353
      f-2     :     0.000341
      f+3     :     0.000610
      f-3     :     0.000642

 14 H s       :     0.839251  s :     0.839251
      pz      :     0.003729  p :     0.018490
      px      :     0.003618
      py      :     0.011143

 15 H s       :     0.845867  s :     0.845867
      pz      :     0.003663  p :     0.018230
      px      :     0.010894
      py      :     0.003673

 16 H s       :     0.838487  s :     0.838487
      pz      :     0.011171  p :     0.018328
      px      :     0.003603
      py      :     0.003554

 17 H s       :     0.854467  s :     0.854467
      pz      :     0.011221  p :     0.018373
      px      :     0.003500
      py      :     0.003652

 18 H s       :     0.847775  s :     0.847775
      pz      :     0.003537  p :     0.018423
      px      :     0.011030
      py      :     0.003856

 19 H s       :     0.847829  s :     0.847829
      pz      :     0.003594  p :     0.018578
      px      :     0.011123
      py      :     0.003861

 20 H s       :     0.796766  s :     0.796766
      pz      :     0.011955  p :     0.019260
      px      :     0.003454
      py      :     0.003851

 21 H s       :     0.805330  s :     0.805330
      pz      :     0.003664  p :     0.019777
      px      :     0.011284
      py      :     0.004829

 22 H s       :     0.810787  s :     0.810787
      pz      :     0.011355  p :     0.019186
      px      :     0.003670
      py      :     0.004161

 23 H s       :     0.810459  s :     0.810459
      pz      :     0.011138  p :     0.019151
      px      :     0.003834
      py      :     0.004180

 24 H s       :     0.804864  s :     0.804864
      pz      :     0.003647  p :     0.019778
      px      :     0.004359
      py      :     0.011772

 25 H s       :     0.847716  s :     0.847716
      pz      :     0.003487  p :     0.018580
      px      :     0.003746
      py      :     0.011348

 26 H s       :     0.796202  s :     0.796202
      pz      :     0.012244  p :     0.019252
      px      :     0.003518
      py      :     0.003490

 27 H s       :     0.854514  s :     0.854514
      pz      :     0.011343  p :     0.018379
      px      :     0.003421
      py      :     0.003616

 28 H s       :     0.847646  s :     0.847646
      pz      :     0.003418  p :     0.018432
      px      :     0.003783
      py      :     0.011231

 29 H s       :     0.845810  s :     0.845810
      pz      :     0.003536  p :     0.018256
      px      :     0.004273
      py      :     0.010447

 30 H s       :     0.839228  s :     0.839228
      pz      :     0.004457  p :     0.018504
      px      :     0.008193
      py      :     0.005854

 31 H s       :     0.838345  s :     0.838345
      pz      :     0.011035  p :     0.018340
      px      :     0.003441
      py      :     0.003865

 32 H s       :     0.810576  s :     0.810576
      pz      :     0.011591  p :     0.019163
      px      :     0.004044
      py      :     0.003529

 33 H s       :     0.805474  s :     0.805474
      pz      :     0.003899  p :     0.019768
      px      :     0.008490
      py      :     0.007380

 34 H s       :     0.847334  s :     0.847334
      pz      :     0.003790  p :     0.018575
      px      :     0.007622
      py      :     0.007164

 35 H s       :     0.796316  s :     0.796316
      pz      :     0.012677  p :     0.019274
      px      :     0.003299
      py      :     0.003298

 36 H s       :     0.854580  s :     0.854580
      pz      :     0.011645  p :     0.018392
      px      :     0.003387
      py      :     0.003360

 37 H s       :     0.847667  s :     0.847667
      pz      :     0.003733  p :     0.018418
      px      :     0.007534
      py      :     0.007152

 38 H s       :     0.839308  s :     0.839308
      pz      :     0.004315  p :     0.018483
      px      :     0.009735
      py      :     0.004433

 39 H s       :     0.838588  s :     0.838588
      pz      :     0.011373  p :     0.018343
      px      :     0.003527
      py      :     0.003443

 40 H s       :     0.845859  s :     0.845859
      pz      :     0.003929  p :     0.018243
      px      :     0.006696
      py      :     0.007617



                     *******************************
                     * LOEWDIN POPULATION ANALYSIS *
                     *******************************

----------------------
LOEWDIN ATOMIC CHARGES
----------------------
   0 C :   -0.324004
   1 C :   -0.305479
   2 C :   -0.296236
   3 C :   -0.372212
   4 P :    0.577689
   5 O :   -0.328933
   6 C :   -0.372299
   7 C :   -0.296391
   8 C :   -0.305532
   9 C :   -0.324054
  10 C :   -0.372347
  11 C :   -0.296294
  12 C :   -0.305541
  13 C :   -0.324006
  14 H :    0.122109
  15 H :    0.121963
  16 H :    0.124405
  17 H :    0.135448
  18 H :    0.137648
  19 H :    0.137827
  20 H :    0.151992
  21 H :    0.143864
  22 H :    0.139828
  23 H :    0.139827
  24 H :    0.144083
  25 H :    0.137784
  26 H :    0.152038
  27 H :    0.135470
  28 H :    0.137693
  29 H :    0.121952
  30 H :    0.122134
  31 H :    0.124441
  32 H :    0.139790
  33 H :    0.143890
  34 H :    0.137850
  35 H :    0.152001
  36 H :    0.135467
  37 H :    0.137668
  38 H :    0.122130
  39 H :    0.124406
  40 H :    0.121931

-------------------------------
LOEWDIN REDUCED ORBITAL CHARGES
-------------------------------
  0 C s       :     2.844719  s :     2.844719
      pz      :     1.070201  p :     3.194693
      px      :     1.066171
      py      :     1.058322
      dz2     :     0.090329  d :     0.260460
      dxz     :     0.026352
      dyz     :     0.025309
      dx2y2   :     0.090601
      dxy     :     0.027870
      f0      :     0.002622  f :     0.024131
      f+1     :     0.003519
      f-1     :     0.003394
      f+2     :     0.004197
      f-2     :     0.003822
      f+3     :     0.003066
      f-3     :     0.003510

  1 C s       :     2.791781  s :     2.791781
      pz      :     1.029751  p :     3.075799
      px      :     1.031631
      py      :     1.014416
      dz2     :     0.108190  d :     0.400096
      dxz     :     0.027366
      dyz     :     0.075283
      dx2y2   :     0.108161
      dxy     :     0.081097
      f0      :     0.004379  f :     0.037803
      f+1     :     0.003796
      f-1     :     0.005203
      f+2     :     0.006967
      f-2     :     0.004633
      f+3     :     0.007428
      f-3     :     0.005396

  2 C s       :     2.788277  s :     2.788277
      pz      :     1.039538  p :     3.070814
      px      :     1.019839
      py      :     1.011437
      dz2     :     0.102338  d :     0.399113
      dxz     :     0.027751
      dyz     :     0.076364
      dx2y2   :     0.108647
      dxy     :     0.084014
      f0      :     0.004076  f :     0.038032
      f+1     :     0.003728
      f-1     :     0.005338
      f+2     :     0.006934
      f-2     :     0.004899
      f+3     :     0.007594
      f-3     :     0.005462

  3 C s       :     2.840197  s :     2.840197
      pz      :     1.051353  p :     3.188198
      px      :     1.051054
      py      :     1.085790
      dz2     :     0.100458  d :     0.317186
      dxz     :     0.027346
      dyz     :     0.041624
      dx2y2   :     0.100254
      dxy     :     0.047505
      f0      :     0.002971  f :     0.026631
      f+1     :     0.003984
      f-1     :     0.003554
      f+2     :     0.004676
      f-2     :     0.003566
      f+3     :     0.003702
      f-3     :     0.004179

  4 P s       :     4.670953  s :     4.670953
      pz      :     2.737062  p :     8.324983
      px      :     2.794396
      py      :     2.793525
      dz2     :     0.260295  d :     1.201929
      dxz     :     0.336083
      dyz     :     0.292430
      dx2y2   :     0.177768
      dxy     :     0.135352
      f0      :     0.040358  f :     0.224446
      f+1     :     0.056170
      f-1     :     0.054709
      f+2     :     0.020240
      f-2     :     0.020580
      f+3     :     0.019907
      f-3     :     0.012483

  5 O s       :     3.543359  s :     3.543359
      pz      :     1.536406  p :     4.741732
      px      :     1.603114
      py      :     1.602212
      dz2     :     0.024344  d :     0.041763
      dxz     :     0.008083
      dyz     :     0.008784
      dx2y2   :     0.000301
      dxy     :     0.000251
      f0      :     0.001113  f :     0.002079
      f+1     :     0.000427
      f-1     :     0.000464
      f+2     :     0.000050
      f-2     :     0.000021
      f+3     :     0.000002
      f-3     :     0.000002

  6 C s       :     2.840210  s :     2.840210
      pz      :     1.059024  p :     3.188256
      px      :     1.065749
      py      :     1.063483
      dz2     :     0.085863  d :     0.317197
      dxz     :     0.062047
      dyz     :     0.025004
      dx2y2   :     0.074337
      dxy     :     0.069946
      f0      :     0.002591  f :     0.026637
      f+1     :     0.005259
      f-1     :     0.002813
      f+2     :     0.003204
      f-2     :     0.004382
      f+3     :     0.003527
      f-3     :     0.004861

  7 C s       :     2.788333  s :     2.788333
      pz      :     1.041394  p :     3.071025
      px      :     1.001989
      py      :     1.027641
      dz2     :     0.108409  d :     0.399001
      dxz     :     0.075564
      dyz     :     0.024053
      dx2y2   :     0.112080
      dxy     :     0.078895
      f0      :     0.003255  f :     0.038032
      f+1     :     0.007029
      f-1     :     0.003592
      f+2     :     0.004965
      f-2     :     0.006487
      f+3     :     0.006729
      f-3     :     0.005976

  8 C s       :     2.791800  s :     2.791800
      pz      :     1.028727  p :     3.075844
      px      :     1.020447
      py      :     1.026671
      dz2     :     0.112939  d :     0.400089
      dxz     :     0.075419
      dyz     :     0.023575
      dx2y2   :     0.107306
      dxy     :     0.080849
      f0      :     0.003428  f :     0.037799
      f+1     :     0.006932
      f-1     :     0.003578
      f+2     :     0.004822
      f-2     :     0.006519
      f+3     :     0.006580
      f-3     :     0.005940

  9 C s       :     2.844726  s :     2.844726
      pz      :     1.072362  p :     3.194800
      px      :     1.048713
      py      :     1.073725
      dz2     :     0.079879  d :     0.260411
      dxz     :     0.045273
      dyz     :     0.015256
      dx2y2   :     0.051583
      dxy     :     0.068421
      f0      :     0.002682  f :     0.024117
      f+1     :     0.004244
      f-1     :     0.002220
      f+2     :     0.003227
      f-2     :     0.004546
      f+3     :     0.003016
      f-3     :     0.004181

 10 C s       :     2.840264  s :     2.840264
      pz      :     1.056540  p :     3.188300
      px      :     1.082249
      py      :     1.049511
      dz2     :     0.086194  d :     0.317145
      dxz     :     0.032112
      dyz     :     0.046731
      dx2y2   :     0.055158
      dxy     :     0.096951
      f0      :     0.003524  f :     0.026639
      f+1     :     0.001722
      f-1     :     0.004046
      f+2     :     0.004437
      f-2     :     0.003867
      f+3     :     0.004113
      f-3     :     0.004929

 11 C s       :     2.788344  s :     2.788344
      pz      :     1.044037  p :     3.070984
      px      :     1.021493
      py      :     1.005454
      dz2     :     0.107311  d :     0.398938
      dxz     :     0.044601
      dyz     :     0.046455
      dx2y2   :     0.076057
      dxy     :     0.124515
      f0      :     0.004290  f :     0.038027
      f+1     :     0.003775
      f-1     :     0.004194
      f+2     :     0.006357
      f-2     :     0.005668
      f+3     :     0.007196
      f-3     :     0.006548

 12 C s       :     2.791779  s :     2.791779
      pz      :     1.028474  p :     3.075872
      px      :     1.018031
      py      :     1.029367
      dz2     :     0.111415  d :     0.400092
      dxz     :     0.044006
      dyz     :     0.047731
      dx2y2   :     0.076186
      dxy     :     0.120754
      f0      :     0.004447  f :     0.037798
      f+1     :     0.003733
      f-1     :     0.004202
      f+2     :     0.006362
      f-2     :     0.005650
      f+3     :     0.006999
      f-3     :     0.006405

 13 C s       :     2.844732  s :     2.844732
      pz      :     1.074363  p :     3.194728
      px      :     1.068474
      py      :     1.051892
      dz2     :     0.077178  d :     0.260425
      dxz     :     0.015558
      dyz     :     0.041103
      dx2y2   :     0.047151
      dxy     :     0.079434
      f0      :     0.003495  f :     0.024121
      f+1     :     0.000843
      f-1     :     0.003649
      f+2     :     0.004275
      f-2     :     0.004030
      f+3     :     0.003659
      f-3     :     0.004171

 14 H s       :     0.820165  s :     0.820165
      pz      :     0.012911  p :     0.057726
      px      :     0.012477
      py      :     0.032338

 15 H s       :     0.820574  s :     0.820574
      pz      :     0.012741  p :     0.057463
      px      :     0.031864
      py      :     0.012858

 16 H s       :     0.817920  s :     0.817920
      pz      :     0.032819  p :     0.057675
      px      :     0.012499
      py      :     0.012357

 17 H s       :     0.809582  s :     0.809582
      pz      :     0.030577  p :     0.054969
      px      :     0.012400
      py      :     0.011992

 18 H s       :     0.807364  s :     0.807364
      pz      :     0.012458  p :     0.054988
      px      :     0.030046
      py      :     0.012484

 19 H s       :     0.806745  s :     0.806745
      pz      :     0.012768  p :     0.055428
      px      :     0.030003
      py      :     0.012657

 20 H s       :     0.790667  s :     0.790667
      pz      :     0.032823  p :     0.057341
      px      :     0.012204
      py      :     0.012314

 21 H s       :     0.796700  s :     0.796700
      pz      :     0.012484  p :     0.059436
      px      :     0.031666
      py      :     0.015285

 22 H s       :     0.801216  s :     0.801216
      pz      :     0.032498  p :     0.058956
      px      :     0.012814
      py      :     0.013643

 23 H s       :     0.801221  s :     0.801221
      pz      :     0.031879  p :     0.058951
      px      :     0.012796
      py      :     0.014276

 24 H s       :     0.796511  s :     0.796511
      pz      :     0.012207  p :     0.059406
      px      :     0.013787
      py      :     0.033412

 25 H s       :     0.806775  s :     0.806775
      pz      :     0.012255  p :     0.055442
      px      :     0.012394
      py      :     0.030793

 26 H s       :     0.790605  s :     0.790605
      pz      :     0.033178  p :     0.057357
      px      :     0.011561
      py      :     0.012619

 27 H s       :     0.809555  s :     0.809555
      pz      :     0.030555  p :     0.054975
      px      :     0.011659
      py      :     0.012760

 28 H s       :     0.807299  s :     0.807299
      pz      :     0.011838  p :     0.055008
      px      :     0.012492
      py      :     0.030678

 29 H s       :     0.820573  s :     0.820573
      pz      :     0.012181  p :     0.057474
      px      :     0.013231
      py      :     0.032063

 30 H s       :     0.820127  s :     0.820127
      pz      :     0.015316  p :     0.057740
      px      :     0.023255
      py      :     0.019169

 31 H s       :     0.817869  s :     0.817869
      pz      :     0.032714  p :     0.057689
      px      :     0.011776
      py      :     0.013199

 32 H s       :     0.801257  s :     0.801257
      pz      :     0.033405  p :     0.058953
      px      :     0.013518
      py      :     0.012030

 33 H s       :     0.796698  s :     0.796698
      pz      :     0.013143  p :     0.059412
      px      :     0.024968
      py      :     0.021301

 34 H s       :     0.806712  s :     0.806712
      pz      :     0.013441  p :     0.055438
      px      :     0.021677
      py      :     0.020319

 35 H s       :     0.790637  s :     0.790637
      pz      :     0.034662  p :     0.057362
      px      :     0.011497
      py      :     0.011202

 36 H s       :     0.809554  s :     0.809554
      pz      :     0.031756  p :     0.054979
      px      :     0.011594
      py      :     0.011629

 37 H s       :     0.807332  s :     0.807332
      pz      :     0.013092  p :     0.055000
      px      :     0.021411
      py      :     0.020497

 38 H s       :     0.820140  s :     0.820140
      pz      :     0.014767  p :     0.057730
      px      :     0.029480
      py      :     0.013483

 39 H s       :     0.817909  s :     0.817909
      pz      :     0.034002  p :     0.057685
      px      :     0.012084
      py      :     0.011598

 40 H s       :     0.820596  s :     0.820596
      pz      :     0.013543  p :     0.057473
      px      :     0.022048
      py      :     0.021882



                      *****************************
                      * MAYER POPULATION ANALYSIS *
                      *****************************

  NA   - Mulliken gross atomic population
  ZA   - Total nuclear charge
  QA   - Mulliken gross atomic charge
  VA   - Mayer's total valence
  BVA  - Mayer's bonded valence
  FA   - Mayer's free valence

  ATOM       NA         ZA         QA         VA         BVA        FA
  0 C      6.4293     6.0000    -0.4293     3.8555     3.8555     0.0000
  1 C      6.2305     6.0000    -0.2305     3.7672     3.7672    -0.0000
  2 C      6.3004     6.0000    -0.3004     3.7343     3.7343    -0.0000
  3 C      6.4273     6.0000    -0.4273     3.6720     3.6720    -0.0000
  4 P     14.2654    15.0000     0.7346     4.7463     4.7463    -0.0000
  5 O      8.6059     8.0000    -0.6059     1.9722     1.9722    -0.0000
  6 C      6.4286     6.0000    -0.4286     3.6699     3.6699    -0.0000
  7 C      6.3011     6.0000    -0.3011     3.7344     3.7344     0.0000
  8 C      6.2310     6.0000    -0.2310     3.7700     3.7700     0.0000
  9 C      6.4291     6.0000    -0.4291     3.8556     3.8556    -0.0000
 10 C      6.4271     6.0000    -0.4271     3.6694     3.6694    -0.0000
 11 C      6.3018     6.0000    -0.3018     3.7348     3.7348    -0.0000
 12 C      6.2305     6.0000    -0.2305     3.7690     3.7690    -0.0000
 13 C      6.4289     6.0000    -0.4289     3.8553     3.8553    -0.0000
 14 H      0.8577     1.0000     0.1423     0.9584     0.9584     0.0000
 15 H      0.8641     1.0000     0.1359     0.9562     0.9562     0.0000
 16 H      0.8568     1.0000     0.1432     0.9565     0.9565    -0.0000
 17 H      0.8728     1.0000     0.1272     0.9502     0.9502    -0.0000
 18 H      0.8662     1.0000     0.1338     0.9511     0.9511    -0.0000
 19 H      0.8664     1.0000     0.1336     0.9554     0.9554    -0.0000
 20 H      0.8160     1.0000     0.1840     0.9667     0.9667     0.0000
 21 H      0.8251     1.0000     0.1749     0.9545     0.9545    -0.0000
 22 H      0.8300     1.0000     0.1700     0.9529     0.9529    -0.0000
 23 H      0.8296     1.0000     0.1704     0.9530     0.9530    -0.0000
 24 H      0.8246     1.0000     0.1754     0.9543     0.9543     0.0000
 25 H      0.8663     1.0000     0.1337     0.9551     0.9551    -0.0000
 26 H      0.8155     1.0000     0.1845     0.9666     0.9666    -0.0000
 27 H      0.8729     1.0000     0.1271     0.9502     0.9502     0.0000
 28 H      0.8661     1.0000     0.1339     0.9512     0.9512     0.0000
 29 H      0.8641     1.0000     0.1359     0.9561     0.9561    -0.0000
 30 H      0.8577     1.0000     0.1423     0.9585     0.9585     0.0000
 31 H      0.8567     1.0000     0.1433     0.9565     0.9565    -0.0000
 32 H      0.8297     1.0000     0.1703     0.9530     0.9530     0.0000
 33 H      0.8252     1.0000     0.1748     0.9547     0.9547    -0.0000
 34 H      0.8659     1.0000     0.1341     0.9554     0.9554    -0.0000
 35 H      0.8156     1.0000     0.1844     0.9667     0.9667     0.0000
 36 H      0.8730     1.0000     0.1270     0.9503     0.9503    -0.0000
 37 H      0.8661     1.0000     0.1339     0.9512     0.9512     0.0000
 38 H      0.8578     1.0000     0.1422     0.9585     0.9585    -0.0000
 39 H      0.8569     1.0000     0.1431     0.9567     0.9567    -0.0000
 40 H      0.8641     1.0000     0.1359     0.9563     0.9563    -0.0000

  Mayer bond orders larger than 0.100000
B(  0-C ,  1-C ) :   0.9529 B(  0-C , 14-H ) :   0.9801 B(  0-C , 15-H ) :   0.9740 
B(  0-C , 16-H ) :   0.9728 B(  1-C ,  2-C ) :   0.9234 B(  1-C , 17-H ) :   0.9736 
B(  1-C , 18-H ) :   0.9757 B(  2-C ,  3-C ) :   0.9083 B(  2-C , 19-H ) :   0.9723 
B(  2-C , 20-H ) :   0.9678 B(  3-C ,  4-P ) :   0.9008 B(  3-C , 21-H ) :   0.9589 
B(  3-C , 22-H ) :   0.9460 B(  4-P ,  5-O ) :   1.9400 B(  4-P ,  6-C ) :   0.8998 
B(  4-P , 10-C ) :   0.8998 B(  6-C ,  7-C ) :   0.9078 B(  6-C , 23-H ) :   0.9464 
B(  6-C , 24-H ) :   0.9590 B(  7-C ,  8-C ) :   0.9254 B(  7-C , 25-H ) :   0.9721 
B(  7-C , 26-H ) :   0.9673 B(  8-C ,  9-C ) :   0.9536 B(  8-C , 27-H ) :   0.9736 
B(  8-C , 28-H ) :   0.9755 B(  9-C , 29-H ) :   0.9739 B(  9-C , 30-H ) :   0.9799 
B(  9-C , 31-H ) :   0.9727 B( 10-C , 11-C ) :   0.9075 B( 10-C , 32-H ) :   0.9463 
B( 10-C , 33-H ) :   0.9591 B( 11-C , 12-C ) :   0.9255 B( 11-C , 34-H ) :   0.9722 
B( 11-C , 35-H ) :   0.9677 B( 12-C , 13-C ) :   0.9535 B( 12-C , 36-H ) :   0.9733 
B( 12-C , 37-H ) :   0.9756 B( 13-C , 38-H ) :   0.9800 B( 13-C , 39-H ) :   0.9728 
B( 13-C , 40-H ) :   0.9741 

-------
TIMINGS
-------

Total SCF time: 0 days 0 hours 1 min 8 sec 

Total time                  ....      68.417 sec
Sum of individual times     ....      68.432 sec  (100.0%)

SCF preparation             ....       0.259 sec  (  0.4%)
Fock matrix formation       ....      65.803 sec  ( 96.2%)
  Startup                   ....       0.082 sec  (  0.1% of F)
  Split-RI-J                ....       4.513 sec  (  6.9% of F)
  Chain of spheres X        ....      45.055 sec  ( 68.5% of F)
  XC integration            ....      15.931 sec  ( 24.2% of F)
    Basis function eval.    ....       2.395 sec  ( 15.0% of XC)
    Density eval.           ....       6.422 sec  ( 40.3% of XC)
    XC-Functional eval.     ....       0.423 sec  (  2.7% of XC)
    XC-Potential eval.      ....       5.688 sec  ( 35.7% of XC)
Diagonalization             ....       0.000 sec  (  0.0%)
Density matrix formation    ....       0.214 sec  (  0.3%)
Total Energy calculation    ....       0.071 sec  (  0.1%)
Population analysis         ....       0.142 sec  (  0.2%)
Orbital Transformation      ....       0.281 sec  (  0.4%)
Orbital Orthonormalization  ....       0.000 sec  (  0.0%)
DIIS solution               ....       1.331 sec  (  1.9%)
SOSCF solution              ....       0.331 sec  (  0.5%)
Finished LeanSCF after  68.5 sec

Maximum memory used throughout the entire LEANSCF-calculation: 78.9 MB


-------------------------------------------------------------------------------
                          DFT DISPERSION CORRECTION                            
                                                                               
                              DFTD3 V3.1  Rev 1                                
                              USING zero damping                               
-------------------------------------------------------------------------------
The M062X functional is recognized
Active option DFTDOPT                   ...         3   

molecular C6(AA) [au] = 13049.847197 


            DFT-D V3
 parameters
 s6 scaling factor         :     1.0000 
 rs6 scaling factor        :     1.6190 
 s8 scaling factor         :     0.0000 
 rs8 scaling factor        :     1.0000 
 Damping factor alpha6     :    14.0000 
 Damping factor alpha8     :    16.0000 
 ad hoc parameters k1-k3   :    16.0000     1.3333    -4.0000 

 Edisp/kcal,au: -1.263017505205  -0.002012746297 
 E6   /kcal   :  -1.263017505 
 E8   /kcal   :  -0.000000000 
 % E8         :   0.000000000 

-------------------------   ----------------
Dispersion correction           -0.002012746
-------------------------   ----------------


-------------------------   --------------------
FINAL SINGLE POINT ENERGY      -890.096383047275
-------------------------   --------------------



           ************************************************************
           *        Program running with 6 parallel MPI-processes     *
           *              working on a common directory               *
           ************************************************************

------------------------------------------------------------------------------
                              ORCA PROPERTY CALCULATIONS
------------------------------------------------------------------------------

GBWName                                 ... data/single_point_PO_M06-2x/13831/13831.gbw
Number of atoms                         ...     41
Number of basis functions               ...    602
Max core memory                         ...   1024 MB

Electric properties:
Dipole moment                           ... YES
Quadrupole moment                       ...  NO
Static polarizability (Dipole/Dipole)   ...  NO
Static polarizability (Dipole/Quad.)    ...  NO
Static polarizability (Quad./Quad.)     ...  NO
Static polarizability (Velocity)        ...  NO

Atomic electric properties:
Dipole moment                           ...  NO
Quadrupole moment                       ...  NO
Static polarizability                   ...  NO

Choice of electric origin               ... Center of mass
Position of electric origin             ...     0.001677    -0.026266    -0.400755

General magnetic properties:
Magnetizability                         ...  NO

EPR properties:
g-Tensor (aka g-matrix)                 ...  NO
Zero-Field splitting spin-orbit         ...  NO
Zero-field splitting spin-spin          ...  NO
Hyperfine couplings                     ...  NO (   0 nuclei)
Quadrupole couplings                    ...  NO (   0 nuclei)
Contact density                         ...  NO (   0 nuclei)

NMR properties:
Chemical shifts                         ...  NO (   0 nuclei)
Spin-rotation constants                 ...  NO (   0 nuclei)
Spin-spin couplings                     ...  NO (   0 nuclei,    0 pairs)

Choice of magnetic origin               ... GIAO
Position of magnetic origin             ...     0.000000     0.000000     0.000000

Properties with geometric perturbations:
SCF Hessian                             ...  NO
IR spectrum                             ...  NO
VCD spectrum                            ...  NO
X-ray spectroscopy properties:
SCF XES/XAS/RIXS spectra                ...  NO


-------------
DIPOLE MOMENT
-------------

Method             : SCF
Type of density    : Electron Density
Multiplicity       :   1
Irrep              :   0
Energy             :  -890.0943703009772889 Eh
Relativity type    : 
Basis              : AO
                                X                 Y                 Z
Electronic contribution:      0.023675604      -0.318771866      -2.464107811
Nuclear contribution   :     -0.032671908       0.505393374       3.986972561
                        -----------------------------------------
Total Dipole Moment    :     -0.008996304       0.186621508       1.522864751
                        -----------------------------------------
Magnitude (a.u.)       :      1.534283406
Magnitude (Debye)      :      3.899838492



--------------------
Rotational spectrum 
--------------------
 
Rotational constants in cm-1:             0.012417             0.012383             0.006655 
Rotational constants in MHz :           372.241853           371.218511           199.526734 

Dipole components along the rotational axes: 
x,y,z [a.u.] :     0.002124    -0.000357     1.534282 
x,y,z [Debye]:     0.005399    -0.000907     3.899835 

 

Dipole moment calculation done in   0.0 sec 

Maximum memory used throughout the entire PROP-calculation: 40.5 MB

--------------------------------
SUGGESTED CITATIONS FOR THIS RUN
--------------------------------

Below you find a list of papers that are relevant to this ORCA run
We neither can nor want to force you to cite these papers, but we appreciate if you do
You receive ORCA, which is the product of decades of hard work by many enthusiastic individuals, for free
The only thing we kindly ask in return is that you cite our papers,
We deeply appreciate it, if you show your appreciation for ORCA by not just citing the generic ORCA reference.

Please note that relegating all ORCA citations to the supporting information does *not* help us.
SI sections are not indexed - citations you put there will not count into any citation statistics
But we need these citations in order to attract the funding resources that allow us to do what we are doing

Therefore, if you are a happy ORCA user, please consider citing a few of the papers listed below in the main body of your paper

In addition to the list printed below, the program has created the file data/single_point_PO_M06-2x/13831/13831.bibtex that contains the list in bibtex format
You can import this file easily into all common literature databanks and citation aid programs


List of essential papers. We consider these as the minimum necessary citations

  1. Neese,F.
     Software update: the ORCA program system, version 5.0
     WIRES Comput. Molec. Sci., 2022 12(1)e1606
     doi.org/10.1002/wcms.1606

List of papers to cite with high priority. The work reported in these papers was absolutely
necessary for this run to complete.
Our perspective: the developers of density functionals and basis sets usually get cited in chemistry papers
Good! But without the algorithms to do something with them, the functionals or basis sets would not do anything.
Hence, in our opinion, the algorithm design and method developments papers are equally worthy of getting cited

  1. Neese,F.
     An improvement of the resolution of the identity approximation for the formation of the Coulomb matrix
     J. Comp. Chem., 2003 24(14)1740-1747
     doi.org/10.1002/jcc.10318
  2. Neese,F.; Wennmohs,F.; Hansen,A.; Becker,U.
     Efficient, approximate and parallel Hartree-Fock and hybrid DFT calculations. A 'chain-of-spheres' algorithm for the Hartree-Fock exchange
     Chem. Phys., 2009 356(1-3)98-109
     doi.org/10.1016/j.chemphys.2008.10.036
  3. Helmich-Paris,B.; de Souza,B.; Neese,F.; Izsák,R.
     An improved chain of spheres for exchange algorithm
     J. Chem. Phys., 2021 155 104109
     doi.org/doi: 10.1063/5.0058766.
  4. Neese,F.
     The SHARK Integral Generation and Digestion System
     J. Comp. Chem., 2022  1-16
     doi.org/10.1002/jcc.26942
  5. Grimme,S.; Antony,J.; Ehrlich,S.; Krieg,H.
     A consistent and accurate ab initio parametrization of density functional dispersion correction (DFT-D) for the 94 elements H-Pu
     J. Chem. Phys., 2010 132 154104-XXXX
     doi.org/10.1063/1.3382344

List of suggested additional citations. These are papers that are important in the 'surrounding' of 
of this run, or papers that preceded the highly important papers. If you like your results we are grateful for a citation.

  1. Izsak,R.; Neese,F.
     An overlap fitted chain of spheres exchange method
     J. Chem. Phys., 2011 135 144105
     doi.org/10.1063/1.3646921
  2. Izsak,R.; Hansen,A.; Neese,F.
     The resolution of identity and chain of spheres approximations for the LPNO-CCSD singles Fock term
     Molec. Phys., 2012 110 2413-2417
     doi.org/10.1080/00268976.2012.687466
  3. Neese,F.
     The ORCA program system
     WIRES Comput. Molec. Sci., 2012 2(1)73-78
     doi.org/10.1002/wcms.81
  4. Izsak,R.; Neese,F.; Klopper,W.
     Robust fitting techniques in the chain of spheres approximation to the Fock exchange: The role of the complementary space
     J. Chem. Phys., 2013 139 
     doi.org/10.1063/1.4819264
  5. Neese,F.
     Software update: the ORCA program system, version 4.0
     WIRES Comput. Molec. Sci., 2018 8(1)1-6
     doi.org/10.1002/wcms.1327
  6. Neese,F.; Wennmohs,F.; Becker,U.; Riplinger,C.
     The ORCA quantum chemistry program package
     J. Chem. Phys., 2020 152 Art. No. L224108
     doi.org/10.1063/5.0004608

List of optional additional citations

  1. Neese,F.
     Approximate second-order SCF convergence for spin unrestricted wavefunctions
     Chem. Phys. Lett., 2000 325(1-3)93-98
     doi.org/10.1016/s0009-2614(00)00662-x

Timings for individual modules:

Sum of individual times          ...       73.526 sec (=   1.225 min)
Startup calculation              ...        2.999 sec (=   0.050 min)   4.1 %
SCF iterations                   ...       70.292 sec (=   1.172 min)  95.6 %
Property calculations            ...        0.235 sec (=   0.004 min)   0.3 %
                             ****ORCA TERMINATED NORMALLY****
TOTAL RUN TIME: 0 days 0 hours 1 minutes 13 seconds 762 msec
