
                                 *****************
                                 * O   R   C   A *
                                 *****************

                                            #,                                       
                                            ###                                      
                                            ####                                     
                                            #####                                    
                                            ######                                   
                                           ########,                                 
                                     ,,################,,,,,                         
                               ,,#################################,,                 
                          ,,##########################################,,             
                       ,#########################################, ''#####,          
                    ,#############################################,,   '####,        
                  ,##################################################,,,,####,       
                ,###########''''           ''''###############################       
              ,#####''   ,,,,##########,,,,          '''####'''          '####       
            ,##' ,,,,###########################,,,                        '##       
           ' ,,###''''                  '''############,,,                           
         ,,##''                                '''############,,,,        ,,,,,,###''
      ,#''                                            '''#######################'''  
     '                                                          ''''####''''         
             ,#######,   #######,   ,#######,      ##                                
            ,#'     '#,  ##    ##  ,#'     '#,    #''#        ,####,   ,####,        
            ##       ##  ##   ,#'  ##            #'  '#       #'       #'  '#        
            ##       ##  #######   ##           ,######,      #####,   #    #        
            '#,     ,#'  ##    ##  '#,     ,#' ,#      #,     #,   #   #,  ,#        
             '#######'   ##     ##  '#######'  #'      '#     '####' # '####'        



                #########################################################
                #                        -***-                          #
                #          Department of theory and spectroscopy        #
                #                                                       #
                #                      Frank Neese                      #
                #                                                       #
                #     Directorship, Architecture, Infrastructure        #
                #                    SHARK, DRIVERS                     #
                #        Core code/Algorithms in most modules           #
                #                                                       #
                #        Max Planck Institute fuer Kohlenforschung      #
                #                Kaiser Wilhelm Platz 1                 #
                #                 D-45470 Muelheim/Ruhr                 #
                #                      Germany                          #
                #                                                       #
                #                  All rights reserved                  #
                #                        -***-                          #
                #########################################################


                         Program Version 6.0.0  -   RELEASE   -


 With contributions from (in alphabetic order):
   Daniel Aravena         : Magnetic Suceptibility
   Michael Atanasov       : Ab Initio Ligand Field Theory (pilot matlab implementation)
   Alexander A. Auer      : GIAO ZORA, VPT2 properties, NMR spectrum
   Ute Becker             : All parallelization in ORCA, NUMFREQ, NUMCALC
   Giovanni Bistoni       : ED, misc. LED, open-shell LED, HFLD
   Martin Brehm           : Molecular dynamics
   Dmytro Bykov           : pre 5.0 version of the SCF Hessian
   Marcos Casanova-Páez   : Triplet and SCS-CIS(D). UHF-(DLPNO)-IP/EA/STEOM-CCSD. UHF-CVS-IP/STEOM-CCSD
   Vijay G. Chilkuri      : MRCI spin determinant printing, contributions to CSF-ICE
   Pauline Colinet        : FMM embedding
   Dipayan Datta          : RHF DLPNO-CCSD density
   Achintya Kumar Dutta   : EOM-CC, STEOM-CC
   Nicolas Foglia         : Exact transition moments, OPA infrastructure, MCD improvements
   Dmitry Ganyushin       : Spin-Orbit,Spin-Spin,Magnetic field MRCI
   Miquel Garcia          : C-PCM and meta-GGA Hessian, CCSD/C-PCM, Gaussian charge scheme
   Tiago L. C. Gouveia    : GS-ROHF, GS-ROCIS
   Yang Guo               : DLPNO-NEVPT2, F12-NEVPT2, CIM, IAO-localization
   Andreas Hansen         : Spin unrestricted coupled pair/coupled cluster methods
   Ingolf Harden          : AUTO-CI MPn and infrastructure 
   Benjamin Helmich-Paris : MC-RPA, TRAH-(SCF,CASSCF), AVAS, COSX integrals, SCF dyn. polar.
   Lee Huntington         : MR-EOM, pCC
   Robert Izsak           : Overlap fitted RIJCOSX, COSX-SCS-MP3, EOM
   Riya Kayal             : Wick's Theorem for AUTO-CI, AUTO-CI UHF-CCSDT
   Emily Kempfer          : AUTO-CI, RHF CISDT and CCSDT
   Christian Kollmar      : KDIIS, OOCD, Brueckner-CCSD(T), CCSD density, CASPT2, CASPT2-K, improved NEVPT2
   Axel Koslowski         : Symmetry handling
   Simone Kossmann        : Meta GGA functionals, TD-DFT gradient, OOMP2, (MP2 Hessian; deprecated post 5.0)
   Lucas Lang             : DCDCAS
   Marvin Lechner         : AUTO-CI (C++ implementation), FIC-MRCC
   Spencer Leger          : CASSCF response
   Dagmar Lenk            : GEPOL surface, SMD, ORCA-2-JSON
   Dimitrios Liakos       : Extrapolation schemes; Compound Job, initial MDCI parallelization
   Dimitrios Manganas     : Further ROCIS development; embedding schemes. LFT, Crystal Embedding
   Dimitrios Pantazis     : SARC Basis sets
   Anastasios Papadopoulos: AUTO-CI, single reference methods and gradients
   Taras Petrenko         : pre 6.0 DFT Hessian and TD-DFT gradient, (ASA, deprecated), ECA, 1-Electron XAS/XES, NRVS
   Peter Pinski           : DLPNO-MP2, DLPNO-MP2 Gradient
   Christoph Reimann      : Effective Core Potentials
   Marius Retegan         : Local ZFS, SOC
   Christoph Riplinger    : Optimizer, TS searches, QM/MM, DLPNO-CCSD(T), (RO)-DLPNO pert. Triples
   Michael Roemelt        : Original ROCIS implementation
   Masaaki Saitow         : Open-shell DLPNO-CCSD energy and density
   Barbara Sandhoefer     : DKH picture change effects
   Kantharuban Sivalingam : CASSCF convergence/infrastructure, NEVPT2 and variants, FIC-MRCI
   Bernardo de Souza      : ESD, SOC TD-DFT
   Georgi Stoychev        : AutoAux, RI-MP2 NMR, DLPNO-MP2 response, X2C
   Van Anh Tran           : RI-MP2 g-tensors
   Willem Van den Heuvel  : Paramagnetic NMR
   Zikuan Wang            : NOTCH, Electric field optimization 
   Frank Wennmohs         : Technical directorship and infrastructure
   Hang Xu                : AUTO-CI-Response properties 


 We gratefully acknowledge several colleagues who have allowed us to
 interface, adapt or use parts of their codes:
   Stefan Grimme, W. Hujo, H. Kruse, P. Pracht,  : VdW corrections, initial TS optimization,
                  C. Bannwarth, S. Ehlert,         DFT functionals, gCP, sTDA/sTD-DF
                  L. Wittmann, M. Mueller
   Ed Valeev, F. Pavosevic, A. Kumar             : LibInt (2-el integral package), F12 methods
   Garnet Chan, S. Sharma, J. Yang, R. Olivares  : DMRG
   Ulf Ekstrom                                   : XCFun DFT Library
   Mihaly Kallay                                 : mrcc  (arbitrary order and MRCC methods)
   Frank Weinhold                                : gennbo (NPA and NBO analysis)
   Simon Mueller                                 : openCOSMO-RS
   Christopher J. Cramer and Donald G. Truhlar   : smd solvation model
   Lars Goerigk                                  : TD-DFT with DH, B97 family of functionals
   V. Asgeirsson, H. Jonsson                     : NEB implementation
   FAccTs GmbH                                   : IRC, NEB, NEB-TS, DLPNO-Multilevel, CI-OPT
                                                   MM, QMMM, 2- and 3-layer-ONIOM, Crystal-QMMM,
                                                   LR-CPCM, SF, NACMEs, symmetry and pop. for TD-DFT,
                                                   nearIR, NL-DFT gradient (VV10), updates on ESD,
                                                   ML-optimized integration grids, MBIS, APM,
                                                   GOAT, DOCKER, SOLVATOR, interface openCOSMO-RS
   S Lehtola, MJT Oliveira, MAL Marques          : LibXC Library
   Liviu Ungur et al                             : ANISO software


 Your calculation uses the libint2 library for the computation of 2-el integrals
 For citations please refer to: http://libint.valeyev.net

 Your ORCA version has been built with support for libXC version: 6.2.2
 For citations please refer to: https://libxc.gitlab.io

 This ORCA versions uses:
   CBLAS   interface :  Fast vector & matrix operations
   LAPACKE interface :  Fast linear algebra routines
   Shared memory     :  Shared parallel matrices


Your calculation utilizes the atom-pairwise dispersion correction
with the Becke-Johnson damping scheme (D3BJ)


Warning: RI is on but no J-basis has been assigned. Assigning Def2/J (nothing to worry about!)
================================================================================

----- Orbital basis set information -----
Your calculation utilizes the basis: def2-SVP
   F. Weigend and R. Ahlrichs, Phys. Chem. Chem. Phys. 7, 3297 (2005).

----- AuxJ basis set information -----
Your calculation utilizes the auxiliary basis: def2/J
   F. Weigend, Phys. Chem. Chem. Phys. 8, 1057 (2006).

================================================================================
                                        WARNINGS
                       Please study these warnings very carefully!
================================================================================


WARNING: Geometry Optimization
  ===> : Switching off AutoStart
         For restart on a previous wavefunction, please use MOREAD

================================================================================
                                       INPUT FILE
================================================================================
NAME = data/geom_opt_PO_BP86/70071/70071.inp
|  1> ! RI BP86 def2-SVP D3BJ TIGHTSCF Opt
|  2> %pal
|  3> nprocs 6
|  4> end
|  5> 
|  6> * xyz 0 1
|  7> C     -0.360491    6.580236   -1.093394
|  8> O      0.317148    5.444077   -1.615397
|  9> C      0.178184    4.271647   -0.925783
| 10> C      0.877511    3.190299   -1.465988
| 11> C      0.824833    1.929840   -0.864427
| 12> C      0.064148    1.730149    0.293769
| 13> C     -0.633231    2.821860    0.832990
| 14> C     -0.578362    4.082675    0.229231
| 15> P     -0.065084    0.128448    1.112063
| 16> O     -0.151255    0.298512    2.620450
| 17> C      1.380142   -0.850653    0.659921
| 18> C      1.383030   -1.743481   -0.418402
| 19> C      2.536943   -2.466424   -0.733429
| 20> C      3.704135   -2.315917    0.018369
| 21> C      3.708881   -1.432217    1.095950
| 22> C      2.555354   -0.706938    1.413016
| 23> O      4.756478   -3.081792   -0.400530
| 24> C      5.962838   -2.978548    0.345508
| 25> C     -1.530728   -0.708898    0.477644
| 26> C     -2.095326   -0.408343   -0.767678
| 27> C     -3.223931   -1.099780   -1.216644
| 28> C     -3.810324   -2.097843   -0.435488
| 29> C     -3.257119   -2.400735    0.807232
| 30> C     -2.127090   -1.710515    1.258698
| 31> O     -4.906288   -2.692582   -0.996399
| 32> C     -5.551233   -3.702546   -0.230533
| 33> H     -0.143359    7.429149   -1.748868
| 34> H     -1.444842    6.427775   -1.094383
| 35> H      0.003378    6.831545   -0.091614
| 36> H      1.472982    3.332720   -2.365172
| 37> H      1.385270    1.114564   -1.314375
| 38> H     -1.222927    2.687256    1.739399
| 39> H     -1.135996    4.891755    0.689097
| 40> H      0.494336   -1.890789   -1.026460
| 41> H      2.526044   -3.157773   -1.573263
| 42> H      4.589121   -1.283214    1.712404
| 43> H      2.568728   -0.023518    2.261660
| 44> H      5.814719   -3.298017    1.382386
| 45> H      6.695424   -3.652578   -0.108855
| 46> H      6.370363   -1.963298    0.298096
| 47> H     -1.670184    0.363141   -1.404298
| 48> H     -3.653738   -0.856201   -2.185836
| 49> H     -3.678148   -3.164710    1.452304
| 50> H     -1.706844   -1.951392    2.234816
| 51> H     -5.937219   -3.298329    0.711140
| 52> H     -4.881885   -4.550750   -0.052809
| 53> H     -6.404386   -4.067870   -0.810283
| 54> **                         ****END OF INPUT****
================================================================================

                       *****************************
                       * Geometry Optimization Run *
                       *****************************

Geometry optimization settings:
Update method            Update   .... BFGS
Choice of coordinates    CoordSys .... (2022) Redundant Internals
Initial Hessian          InHess   .... Almloef's Model
Max. no of cycles        MaxIter  .... 141

Convergence Tolerances:
Energy Change            TolE     ....  5.0000e-06 Eh
Max. Gradient            TolMAXG  ....  3.0000e-04 Eh/bohr
RMS Gradient             TolRMSG  ....  1.0000e-04 Eh/bohr
Max. Displacement        TolMAXD  ....  4.0000e-03 bohr
RMS Displacement         TolRMSD  ....  2.0000e-03 bohr
Strict Convergence                .... False

------------------------------------------------------------------------------
                        ORCA OPTIMIZATION COORDINATE SETUP
------------------------------------------------------------------------------

The optimization will be done in redundant internal coordinates (2022)
Making redundant internal coordinates   ...  (2022 redundants) done
Evaluating the initial hessian          ...  (Almloef) done
Evaluating the coordinates              ...  done
Calculating the B-matrix                .... done
Calculating the G-matrix                .... done
Diagonalizing the G-matrix              .... done
Small eigenvalue found = 2.295e-03
Small eigenvalue found = 2.533e-03
Small eigenvalue found = 4.141e-03
Small eigenvalue found = 1.244e-02
Small eigenvalue found = 1.287e-02
Small eigenvalue found = 1.481e-02
Small eigenvalue found = 2.190e-02
Small eigenvalue found = 2.254e-02
The first mode is                       ....   97
The number of degrees of freedom        ....  135

    -----------------------------------------------------------------
                    Redundant Internal Coordinates


    -----------------------------------------------------------------
         Definition                    Initial Value    Approx d2E/dq
    -----------------------------------------------------------------
      1. B(O   1,C   0)                  1.4222         0.497240   
      2. B(C   2,O   1)                  1.3673         0.608295   
      3. B(C   3,C   2)                  1.3965         0.610069   
      4. B(C   4,C   3)                  1.3976         0.607496   
      5. B(C   5,C   4)                  1.4000         0.602311   
      6. B(C   6,C   5)                  1.4032         0.595253   
      7. B(C   7,C   2)                  1.3936         0.616581   
      8. B(C   7,C   6)                  1.3990         0.604486   
      9. B(P   8,C   5)                  1.8033         0.460151   
     10. B(O   9,P   8)                  1.5204         1.165049   
     11. B(C  10,P   8)                  1.8033         0.460152   
     12. B(C  11,C  10)                  1.4000         0.602315   
     13. B(C  12,C  11)                  1.3976         0.607499   
     14. B(C  13,C  12)                  1.3965         0.610072   
     15. B(C  14,C  13)                  1.3936         0.616581   
     16. B(C  15,C  14)                  1.3990         0.604489   
     17. B(C  15,C  10)                  1.4032         0.595254   
     18. B(O  16,C  13)                  1.3673         0.608298   
     19. B(C  17,O  16)                  1.4222         0.497242   
     20. B(C  18,P   8)                  1.8033         0.460153   
     21. B(C  19,C  18)                  1.4000         0.602315   
     22. B(C  20,C  19)                  1.3976         0.607499   
     23. B(C  21,C  20)                  1.3965         0.610071   
     24. B(C  22,C  21)                  1.3936         0.616579   
     25. B(C  23,C  22)                  1.3990         0.604485   
     26. B(C  23,C  18)                  1.4032         0.595253   
     27. B(O  24,C  21)                  1.3673         0.608294   
     28. B(C  25,O  24)                  1.4222         0.497245   
     29. B(H  26,C   0)                  1.0943         0.354484   
     30. B(H  27,C   0)                  1.0950         0.353524   
     31. B(H  28,C   0)                  1.0950         0.353490   
     32. B(H  29,C   3)                  1.0878         0.362965   
     33. B(H  30,C   4)                  1.0868         0.364307   
     34. B(H  31,C   6)                  1.0897         0.360503   
     35. B(H  32,C   7)                  1.0849         0.366889   
     36. B(H  33,C  11)                  1.0868         0.364311   
     37. B(H  34,C  12)                  1.0878         0.362964   
     38. B(H  35,C  14)                  1.0849         0.366890   
     39. B(H  36,C  15)                  1.0897         0.360502   
     40. B(H  37,C  17)                  1.0950         0.353492   
     41. B(H  38,C  17)                  1.0943         0.354485   
     42. B(H  39,C  17)                  1.0950         0.353527   
     43. B(H  40,C  19)                  1.0868         0.364306   
     44. B(H  41,C  20)                  1.0878         0.362968   
     45. B(H  42,C  22)                  1.0849         0.366890   
     46. B(H  43,C  23)                  1.0897         0.360504   
     47. B(H  44,C  25)                  1.0950         0.353487   
     48. B(H  45,C  25)                  1.0950         0.353524   
     49. B(H  46,C  25)                  1.0943         0.354487   
     50. A(O   1,C   0,H  27)          111.1175         0.336951   
     51. A(O   1,C   0,H  26)          107.7795         0.337103   
     52. A(H  27,C   0,H  28)          111.2126         0.289158   
     53. A(H  26,C   0,H  27)          107.6958         0.289285   
     54. A(O   1,C   0,H  28)          111.1495         0.336945   
     55. A(H  26,C   0,H  28)          107.6988         0.289281   
     56. A(C   0,O   1,C   2)          116.8392         0.410487   
     57. A(C   3,C   2,C   7)          119.1737         0.432377   
     58. A(O   1,C   2,C   7)          126.1192         0.429327   
     59. A(O   1,C   2,C   3)          114.7070         0.428510   
     60. A(C   2,C   3,C   4)          120.8610         0.431225   
     61. A(C   4,C   3,H  29)          119.6347         0.352166   
     62. A(C   2,C   3,H  29)          119.5041         0.352418   
     63. A(C   5,C   4,H  30)          121.0433         0.351876   
     64. A(C   3,C   4,C   5)          120.3443         0.430236   
     65. A(C   3,C   4,H  30)          118.6124         0.352386   
     66. A(C   4,C   5,P   8)          122.7552         0.436667   
     67. A(C   6,C   5,P   8)          118.7546         0.435740   
     68. A(C   4,C   5,C   6)          118.4887         0.428667   
     69. A(C   5,C   6,H  31)          119.5047         0.350553   
     70. A(C   5,C   6,C   7)          121.0537         0.428944   
     71. A(C   7,C   6,H  31)          119.4408         0.351466   
     72. A(C   6,C   7,H  32)          117.9698         0.352511   
     73. A(C   2,C   7,H  32)          121.9520         0.353695   
     74. A(C   2,C   7,C   6)          120.0780         0.431663   
     75. A(O   9,P   8,C  10)          110.7882         0.523990   
     76. A(C   5,P   8,C  18)          108.1223         0.443907   
     77. A(C   5,P   8,O   9)          110.7881         0.523989   
     78. A(O   9,P   8,C  18)          110.7883         0.523990   
     79. A(C   5,P   8,C  10)          108.1228         0.443907   
     80. A(C  10,P   8,C  18)          108.1232         0.443907   
     81. A(C  11,C  10,C  15)          118.4886         0.428667   
     82. A(P   8,C  10,C  15)          118.7546         0.435741   
     83. A(P   8,C  10,C  11)          122.7553         0.436667   
     84. A(C  12,C  11,H  33)          118.6124         0.352387   
     85. A(C  10,C  11,H  33)          121.0433         0.351877   
     86. A(C  10,C  11,C  12)          120.3443         0.430236   
     87. A(C  11,C  12,H  34)          119.6348         0.352167   
     88. A(C  11,C  12,C  13)          120.8612         0.431226   
     89. A(C  13,C  12,H  34)          119.5038         0.352418   
     90. A(C  14,C  13,O  16)          126.1194         0.429328   
     91. A(C  12,C  13,O  16)          114.7070         0.428511   
     92. A(C  12,C  13,C  14)          119.1735         0.432378   
     93. A(C  15,C  14,H  35)          117.9699         0.352512   
     94. A(C  13,C  14,H  35)          121.9519         0.353696   
     95. A(C  13,C  14,C  15)          120.0780         0.431664   
     96. A(C  14,C  15,H  36)          119.4408         0.351466   
     97. A(C  10,C  15,H  36)          119.5046         0.350553   
     98. A(C  10,C  15,C  14)          121.0538         0.428944   
     99. A(C  13,O  16,C  17)          116.8392         0.410487   
    100. A(O  16,C  17,H  38)          107.7794         0.337103   
    101. A(O  16,C  17,H  37)          111.1493         0.336946   
    102. A(H  38,C  17,H  39)          107.6956         0.289286   
    103. A(H  37,C  17,H  39)          111.2125         0.289159   
    104. A(O  16,C  17,H  39)          111.1178         0.336951   
    105. A(H  37,C  17,H  38)          107.6990         0.289281   
    106. A(P   8,C  18,C  19)          122.7550         0.436667   
    107. A(C  19,C  18,C  23)          118.4886         0.428667   
    108. A(P   8,C  18,C  23)          118.7549         0.435741   
    109. A(C  18,C  19,C  20)          120.3444         0.430236   
    110. A(C  20,C  19,H  40)          118.6125         0.352386   
    111. A(C  18,C  19,H  40)          121.0431         0.351876   
    112. A(C  19,C  20,C  21)          120.8611         0.431226   
    113. A(C  21,C  20,H  41)          119.5039         0.352419   
    114. A(C  19,C  20,H  41)          119.6347         0.352167   
    115. A(C  22,C  21,O  24)          126.1193         0.429327   
    116. A(C  20,C  21,O  24)          114.7071         0.428510   
    117. A(C  20,C  21,C  22)          119.1736         0.432377   
    118. A(C  23,C  22,H  42)          117.9700         0.352511   
    119. A(C  21,C  22,H  42)          121.9519         0.353695   
    120. A(C  21,C  22,C  23)          120.0780         0.431663   
    121. A(C  22,C  23,H  43)          119.4407         0.351466   
    122. A(C  18,C  23,H  43)          119.5048         0.350553   
    123. A(C  18,C  23,C  22)          121.0537         0.428944   
    124. A(C  21,O  24,C  25)          116.8393         0.410487   
    125. A(H  45,C  25,H  46)          107.6957         0.289286   
    126. A(H  44,C  25,H  46)          107.6991         0.289281   
    127. A(O  24,C  25,H  46)          107.7790         0.337104   
    128. A(H  44,C  25,H  45)          111.2122         0.289158   
    129. A(O  24,C  25,H  45)          111.1180         0.336951   
    130. A(O  24,C  25,H  44)          111.1496         0.336945   
    131. D(C   2,O   1,C   0,H  28)     61.7608         0.019540   
    132. D(C   2,O   1,C   0,H  27)    -62.6626         0.019540   
    133. D(C   2,O   1,C   0,H  26)    179.5600         0.019540   
    134. D(C   7,C   2,O   1,C   0)      0.8911         0.027075   
    135. D(C   3,C   2,O   1,C   0)   -179.1001         0.027075   
    136. D(C   4,C   3,C   2,C   7)      0.0708         0.025705   
    137. D(H  29,C   3,C   2,O   1)      0.2378         0.025705   
    138. D(H  29,C   3,C   2,C   7)   -179.7541         0.025705   
    139. D(C   4,C   3,C   2,O   1)   -179.9373         0.025705   
    140. D(H  30,C   4,C   3,C   2)   -179.8515         0.025476   
    141. D(H  30,C   4,C   3,H  29)     -0.0268         0.025476   
    142. D(C   5,C   4,C   3,H  29)    179.9439         0.025476   
    143. D(C   5,C   4,C   3,C   2)      0.1192         0.025476   
    144. D(C   6,C   5,C   4,C   3)     -0.2750         0.025020   
    145. D(P   8,C   5,C   4,H  30)     -0.7543         0.025020   
    146. D(C   6,C   5,C   4,H  30)    179.6949         0.025020   
    147. D(P   8,C   5,C   4,C   3)    179.2758         0.025020   
    148. D(H  31,C   6,C   5,P   8)      1.0022         0.024406   
    149. D(C   7,C   6,C   5,P   8)   -179.3205         0.024406   
    150. D(H  31,C   6,C   5,C   4)   -179.4287         0.024406   
    151. D(C   7,C   6,C   5,C   4)      0.2487         0.024406   
    152. D(C   6,C   7,C   2,O   1)    179.9107         0.026289   
    153. D(H  32,C   7,C   6,H  31)     -0.2531         0.025211   
    154. D(H  32,C   7,C   6,C   5)   -179.9307         0.025211   
    155. D(C   2,C   7,C   6,H  31)    179.6145         0.025211   
    156. D(C   2,C   7,C   6,C   5)     -0.0630         0.025211   
    157. D(H  32,C   7,C   2,C   3)    179.7639         0.026289   
    158. D(H  32,C   7,C   2,O   1)     -0.2271         0.026289   
    159. D(C   6,C   7,C   2,C   3)     -0.0984         0.026289   
    160. D(O   9,P   8,C   5,C   4)    144.9404         0.004392   
    161. D(O   9,P   8,C   5,C   6)    -35.5099         0.004392   
    162. D(C  18,P   8,C   5,C   4)    -93.4796         0.004392   
    163. D(C  10,P   8,C   5,C   6)   -157.0901         0.004392   
    164. D(C  10,P   8,C   5,C   4)     23.3602         0.004392   
    165. D(C  15,C  10,P   8,O   9)    -35.5086         0.004392   
    166. D(C  15,C  10,P   8,C   5)     86.0716         0.004392   
    167. D(C  11,C  10,P   8,C  18)     23.3610         0.004392   
    168. D(C  11,C  10,P   8,O   9)    144.9416         0.004392   
    169. D(C  11,C  10,P   8,C   5)    -93.4782         0.004392   
    170. D(H  33,C  11,C  10,C  15)    179.6951         0.025020   
    171. D(H  33,C  11,C  10,P   8)     -0.7539         0.025020   
    172. D(C  12,C  11,C  10,C  15)     -0.2751         0.025020   
    173. D(C  12,C  11,C  10,P   8)    179.2759         0.025020   
    174. D(H  34,C  12,C  11,H  33)     -0.0269         0.025477   
    175. D(H  34,C  12,C  11,C  10)    179.9440         0.025477   
    176. D(C  13,C  12,C  11,H  33)   -179.8516         0.025477   
    177. D(C  13,C  12,C  11,C  10)      0.1193         0.025477   
    178. D(O  16,C  13,C  12,H  34)      0.2376         0.025705   
    179. D(O  16,C  13,C  12,C  11)   -179.9375         0.025705   
    180. D(C  14,C  13,C  12,H  34)   -179.7542         0.025705   
    181. D(C  14,C  13,C  12,C  11)      0.0707         0.025705   
    182. D(H  35,C  14,C  13,O  16)     -0.2283         0.026289   
    183. D(H  35,C  14,C  13,C  12)    179.7625         0.026289   
    184. D(C  15,C  14,C  13,O  16)    179.9107         0.026289   
    185. D(C  15,C  14,C  13,C  12)     -0.0985         0.026289   
    186. D(H  36,C  15,C  14,C  13)    179.6147         0.025211   
    187. D(C  10,C  15,C  14,H  35)   -179.9292         0.025211   
    188. D(C  10,C  15,C  14,C  13)     -0.0627         0.025211   
    189. D(H  36,C  15,C  10,C  11)   -179.4287         0.024406   
    190. D(H  36,C  15,C  10,P   8)      1.0021         0.024406   
    191. D(C  14,C  15,C  10,C  11)      0.2485         0.024406   
    192. D(H  36,C  15,C  14,H  35)     -0.2518         0.025211   
    193. D(C  14,C  15,C  10,P   8)   -179.3208         0.024406   
    194. D(C  17,O  16,C  13,C  14)      0.8855         0.027075   
    195. D(C  17,O  16,C  13,C  12)   -179.1057         0.027075   
    196. D(H  39,C  17,O  16,C  13)    -62.6580         0.019540   
    197. D(H  38,C  17,O  16,C  13)    179.5648         0.019540   
    198. D(H  37,C  17,O  16,C  13)     61.7655         0.019540   
    199. D(C  23,C  18,P   8,O   9)    -35.5052         0.004392   
    200. D(C  23,C  18,P   8,C   5)   -157.0851         0.004392   
    201. D(C  19,C  18,P   8,C  10)    -93.4751         0.004392   
    202. D(C  19,C  18,P   8,O   9)    144.9443         0.004392   
    203. D(C  19,C  18,P   8,C   5)     23.3644         0.004392   
    204. D(H  40,C  19,C  18,C  23)    179.6954         0.025020   
    205. D(H  40,C  19,C  18,P   8)     -0.7529         0.025020   
    206. D(C  20,C  19,C  18,C  23)     -0.2744         0.025020   
    207. D(C  20,C  19,C  18,P   8)    179.2773         0.025020   
    208. D(H  41,C  20,C  19,H  40)     -0.0270         0.025477   
    209. D(H  41,C  20,C  19,C  18)    179.9435         0.025477   
    210. D(C  21,C  20,C  19,H  40)   -179.8513         0.025477   
    211. D(C  21,C  20,C  19,C  18)      0.1192         0.025477   
    212. D(O  24,C  21,C  20,H  41)      0.2376         0.025705   
    213. D(O  24,C  21,C  20,C  19)   -179.9379         0.025705   
    214. D(C  22,C  21,C  20,H  41)   -179.7544         0.025705   
    215. D(C  22,C  21,C  20,C  19)      0.0701         0.025705   
    216. D(H  42,C  22,C  21,O  24)     -0.2276         0.026289   
    217. D(H  42,C  22,C  21,C  20)    179.7634         0.026289   
    218. D(C  23,C  22,C  21,O  24)    179.9112         0.026289   
    219. D(C  23,C  22,C  21,C  20)     -0.0978         0.026289   
    220. D(H  43,C  23,C  22,H  42)     -0.2524         0.025210   
    221. D(H  43,C  23,C  22,C  21)    179.6143         0.025210   
    222. D(C  18,C  23,C  22,H  42)   -179.9295         0.025210   
    223. D(C  18,C  23,C  22,C  21)     -0.0629         0.025210   
    224. D(H  43,C  23,C  18,C  19)   -179.4291         0.024406   
    225. D(H  43,C  23,C  18,P   8)      1.0010         0.024406   
    226. D(C  22,C  23,C  18,C  19)      0.2479         0.024406   
    227. D(C  22,C  23,C  18,P   8)   -179.3221         0.024406   
    228. D(C  25,O  24,C  21,C  22)      0.8891         0.027075   
    229. D(C  25,O  24,C  21,C  20)   -179.1023         0.027075   
    230. D(H  46,C  25,O  24,C  21)    179.5634         0.019540   
    231. D(H  45,C  25,O  24,C  21)    -62.6593         0.019540   
    232. D(H  44,C  25,O  24,C  21)     61.7640         0.019540   
    -----------------------------------------------------------------

Number of atoms                         .... 47
Number of degrees of freedom            .... 232


         *************************************************************
         *                GEOMETRY OPTIMIZATION CYCLE   1            *
         *************************************************************
---------------------------------
CARTESIAN COORDINATES (ANGSTROEM)
---------------------------------
  C     -0.360491    6.580236   -1.093394
  O      0.317148    5.444077   -1.615397
  C      0.178184    4.271647   -0.925783
  C      0.877511    3.190299   -1.465988
  C      0.824833    1.929840   -0.864427
  C      0.064148    1.730149    0.293769
  C     -0.633231    2.821860    0.832990
  C     -0.578362    4.082675    0.229231
  P     -0.065084    0.128448    1.112063
  O     -0.151255    0.298512    2.620450
  C      1.380142   -0.850653    0.659921
  C      1.383030   -1.743481   -0.418402
  C      2.536943   -2.466424   -0.733429
  C      3.704135   -2.315917    0.018369
  C      3.708881   -1.432217    1.095950
  C      2.555354   -0.706938    1.413016
  O      4.756478   -3.081792   -0.400530
  C      5.962838   -2.978548    0.345508
  C     -1.530728   -0.708898    0.477644
  C     -2.095326   -0.408343   -0.767678
  C     -3.223931   -1.099780   -1.216644
  C     -3.810324   -2.097843   -0.435488
  C     -3.257119   -2.400735    0.807232
  C     -2.127090   -1.710515    1.258698
  O     -4.906288   -2.692582   -0.996399
  C     -5.551233   -3.702546   -0.230533
  H     -0.143359    7.429149   -1.748868
  H     -1.444842    6.427775   -1.094383
  H      0.003378    6.831545   -0.091614
  H      1.472982    3.332720   -2.365172
  H      1.385270    1.114564   -1.314375
  H     -1.222927    2.687256    1.739399
  H     -1.135996    4.891755    0.689097
  H      0.494336   -1.890789   -1.026460
  H      2.526044   -3.157773   -1.573263
  H      4.589121   -1.283214    1.712404
  H      2.568728   -0.023518    2.261660
  H      5.814719   -3.298017    1.382386
  H      6.695424   -3.652578   -0.108855
  H      6.370363   -1.963298    0.298096
  H     -1.670184    0.363141   -1.404298
  H     -3.653738   -0.856201   -2.185836
  H     -3.678148   -3.164710    1.452304
  H     -1.706844   -1.951392    2.234816
  H     -5.937219   -3.298329    0.711140
  H     -4.881885   -4.550750   -0.052809
  H     -6.404386   -4.067870   -0.810283

----------------------------
CARTESIAN COORDINATES (A.U.)
----------------------------
  NO LB      ZA    FRAG     MASS         X           Y           Z
   0 C     6.0000    0    12.011   -0.681229   12.434844   -2.066215
   1 O     8.0000    0    15.999    0.599323   10.287815   -3.052658
   2 C     6.0000    0    12.011    0.336719    8.072243   -1.749476
   3 C     6.0000    0    12.011    1.658255    6.028791   -2.770316
   4 C     6.0000    0    12.011    1.558708    3.646869   -1.633530
   5 C     6.0000    0    12.011    0.121222    3.269508    0.555143
   6 C     6.0000    0    12.011   -1.196633    5.332543    1.574123
   7 C     6.0000    0    12.011   -1.092946    7.715138    0.433184
   8 P    15.0000    0    30.974   -0.122991    0.242732    2.101495
   9 O     8.0000    0    15.999   -0.285831    0.564106    4.951933
  10 C     6.0000    0    12.011    2.608090   -1.607501    1.247070
  11 C     6.0000    0    12.011    2.613548   -3.294702   -0.790665
  12 C     6.0000    0    12.011    4.794127   -4.660866   -1.385980
  13 C     6.0000    0    12.011    6.999801   -4.376449    0.034712
  14 C     6.0000    0    12.011    7.008769   -2.706498    2.071045
  15 C     6.0000    0    12.011    4.828919   -1.335919    2.670213
  16 O     8.0000    0    15.999    8.988441   -5.823743   -0.756892
  17 C     6.0000    0    12.011   11.268131   -5.628640    0.652915
  18 C     6.0000    0    12.011   -2.892657   -1.339623    0.902616
  19 C     6.0000    0    12.011   -3.959592   -0.771656   -1.450701
  20 C     6.0000    0    12.011   -6.092347   -2.078283   -2.299124
  21 C     6.0000    0    12.011   -7.200469   -3.964349   -0.822953
  22 C     6.0000    0    12.011   -6.155063   -4.536732    1.525447
  23 C     6.0000    0    12.011   -4.019618   -3.232405    2.378595
  24 O     8.0000    0    15.999   -9.271541   -5.088243   -1.882921
  25 C     6.0000    0    12.011  -10.490310   -6.996798   -0.435644
  26 H     1.0000    0     1.008   -0.270909   14.039057   -3.304882
  27 H     1.0000    0     1.008   -2.730356   12.146734   -2.068084
  28 H     1.0000    0     1.008    0.006383   12.909749   -0.173125
  29 H     1.0000    0     1.008    2.783533    6.297928   -4.469527
  30 H     1.0000    0     1.008    2.617781    2.106221   -2.483809
  31 H     1.0000    0     1.008   -2.310997    5.078178    3.286988
  32 H     1.0000    0     1.008   -2.146721    9.244077    1.302205
  33 H     1.0000    0     1.008    0.934160   -3.573073   -1.939728
  34 H     1.0000    0     1.008    4.773531   -5.967326   -2.973036
  35 H     1.0000    0     1.008    8.672182   -2.424923    3.235975
  36 H     1.0000    0     1.008    4.854192   -0.044443    4.273918
  37 H     1.0000    0     1.008   10.988226   -6.232349    2.612331
  38 H     1.0000    0     1.008   12.652518   -6.902372   -0.205706
  39 H     1.0000    0     1.008   12.038241   -3.710096    0.563320
  40 H     1.0000    0     1.008   -3.156190    0.686237   -2.653739
  41 H     1.0000    0     1.008   -6.904564   -1.617985   -4.130631
  42 H     1.0000    0     1.008   -6.950692   -5.980435    2.744457
  43 H     1.0000    0     1.008   -3.225468   -3.687596    4.223190
  44 H     1.0000    0     1.008  -11.219718   -6.232939    1.343860
  45 H     1.0000    0     1.008   -9.225426   -8.599671   -0.099795
  46 H     1.0000    0     1.008  -12.102536   -7.687160   -1.531213

--------------------------------
INTERNAL COORDINATES (ANGSTROEM)
--------------------------------
 C      0   0   0     0.000000000000     0.00000000     0.00000000
 O      1   0   0     1.422159983831     0.00000000     0.00000000
 C      2   1   0     1.367285839608   116.83922022     0.00000000
 C      3   2   1     1.396493176517   114.70703548   180.89985844
 C      4   3   2     1.397643552229   120.86099898   180.06272685
 C      5   4   3     1.399977192358   120.34429037     0.11916737
 C      6   5   4     1.403185541546   118.48873563   359.72496382
 C      3   2   1     1.393603102428   126.11922368     0.89114796
 P      6   5   4     1.803261510059   122.75516476   179.27578999
 O      9   6   5     1.520387630542   110.78808724   144.94038059
 C      9   6   5     1.803260754145   108.12280638    23.36016565
 C     11   9   6     1.399975239230   122.75530618   266.52179588
 C     12  11   9     1.397642230167   120.34429719   179.27585576
 C     13  12  11     1.396491945812   120.86119698     0.11934523
 C     14  13  12     1.393602893968   119.17353323     0.07071965
 C     15  14  13     1.398994287310   120.07799326   359.90145198
 O     14  13  12     1.367284417184   114.70704400   180.06250040
 C     17  14  13     1.422159087648   116.83923686   180.89433445
 C      9   6   5     1.803260415473   108.12229545   266.52038760
 C     19   9   6     1.399975390253   122.75502209    23.36438023
 C     20  19   9     1.397642601007   120.34440010   179.27729764
 C     21  20  19     1.396492462835   120.86110347     0.11924585
 C     22  21  20     1.393604080824   119.17356742     0.07009820
 C     23  22  21     1.398996332517   120.07800797   359.90218635
 O     22  21  20     1.367286625890   114.70713248   180.06212509
 C     25  22  21     1.422157538488   116.83925088   180.89769633
 H      1   2   3     1.094278644436   107.77945277   179.55997870
 H      1   2   3     1.095017089293   111.11747453   297.33737146
 H      1   2   3     1.095043392310   111.14948397    61.76082724
 H      4   3   2     1.087842506495   119.50405252     0.23779783
 H      5   4   3     1.086838437786   118.61241967   180.14851247
 H      7   6   5     1.089695776129   119.50472512   180.57129335
 H      8   3   2     1.084916062335   121.95204599   359.77291812
 H     12  11   9     1.086835407899   121.04326811   359.24606595
 H     13  12  11     1.087843451770   119.63479608   179.94404646
 H     15  14  13     1.084914690529   121.95194973   179.76248854
 H     16  15  14     1.089696471047   119.44084122   179.61466176
 H     18  17  14     1.095041399677   111.14933996    61.76551049
 H     18  17  14     1.094278037824   107.77936591   179.56479650
 H     18  17  14     1.095014650984   111.11780782   297.34204781
 H     20  19   9     1.086838675618   121.04311046   359.24711172
 H     21  20  19     1.087840943959   119.63474308   179.94350284
 H     23  22  21     1.084915252289   121.95188989   179.76338664
 H     24  23  22     1.089694810288   119.44071681   179.61429412
 H     26  25  22     1.095045484998   111.14960336    61.76404596
 H     26  25  22     1.095017164658   111.11803558   297.34066452
 H     26  25  22     1.094276806336   107.77898929   179.56336330

---------------------------
INTERNAL COORDINATES (A.U.)
---------------------------
 C      0   0   0     0.000000000000     0.00000000     0.00000000
 O      1   0   0     2.687492888063     0.00000000     0.00000000
 C      2   1   0     2.583795783647   116.83922022     0.00000000
 C      3   2   1     2.638989651507   114.70703548   180.89985844
 C      4   3   2     2.641163546553   120.86099898   180.06272685
 C      5   4   3     2.645573487292   120.34429037     0.11916737
 C      6   5   4     2.651636388599   118.48873563   359.72496382
 C      3   2   1     2.633528202971   126.11922368     0.89114796
 P      6   5   4     3.407670401853   122.75516476   179.27578999
 O      9   6   5     2.873116239126   110.78808724   144.94038059
 C      9   6   5     3.407668973383   108.12280638    23.36016565
 C     11   9   6     2.645569796416   122.75530618   266.52179588
 C     12  11   9     2.641161048219   120.34429719   179.27585576
 C     13  12  11     2.638987325811   120.86119698     0.11934523
 C     14  13  12     2.633527809040   119.17353323     0.07071965
 C     15  14  13     2.643716065936   120.07799326   359.90145198
 O     14  13  12     2.583793095656   114.70704400   180.06250040
 C     17  14  13     2.687491194522   116.83923686   180.89433445
 C      9   6   5     3.407668333386   108.12229545   266.52038760
 C     19   9   6     2.645570081807   122.75502209    23.36438023
 C     20  19   9     2.641161749005   120.34440010   179.27729764
 C     21  20  19     2.638988302843   120.86110347     0.11924585
 C     22  21  20     2.633530051872   119.17356742     0.07009820
 C     23  22  21     2.643719930818   120.07800797   359.90218635
 O     22  21  20     2.583797269506   114.70713248   180.06212509
 C     25  22  21     2.687488267033   116.83925088   180.89769633
 H      1   2   3     2.067886952183   107.77945277   179.55997870
 H      1   2   3     2.069282410727   111.11747453   297.33737146
 H      1   2   3     2.069332116226   111.14948397    61.76082724
 H      4   3   2     2.055724414115   119.50405252     0.23779783
 H      5   4   3     2.053826999234   118.61241967   180.14851247
 H      7   6   5     2.059226586174   119.50472512   180.57129335
 H      8   3   2     2.050194236105   121.95204599   359.77291812
 H     12  11   9     2.053821273579   121.04326811   359.24606595
 H     13  12  11     2.055726200424   119.63479608   179.94404646
 H     15  14  13     2.050191643767   121.95194973   179.76248854
 H     16  15  14     2.059227899379   119.44084122   179.61466176
 H     18  17  14     2.069328350695   111.14933996    61.76551049
 H     18  17  14     2.067885805853   107.77936591   179.56479650
 H     18  17  14     2.069277802991   111.11780782   297.34204781
 H     20  19   9     2.053827448672   121.04311046   359.24711172
 H     21  20  19     2.055721461349   119.63474308   179.94350284
 H     23  22  21     2.050192705341   121.95188989   179.76338664
 H     24  23  22     2.059224761000   119.44071681   179.61429412
 H     26  25  22     2.069336070833   111.14960336    61.76404596
 H     26  25  22     2.069282553147   111.11803558   297.34066452
 H     26  25  22     2.067883478677   107.77898929   179.56336330

---------------------
BASIS SET INFORMATION
---------------------
There are 4 groups of distinct atoms

 Group   1 Type C   : 7s4p1d contracted to 3s2p1d pattern {511/31/1}
 Group   2 Type O   : 7s4p1d contracted to 3s2p1d pattern {511/31/1}
 Group   3 Type P   : 10s7p1d contracted to 4s3p1d pattern {5311/511/1}
 Group   4 Type H   : 4s1p contracted to 2s1p pattern {31/1}

Atom   0C    basis set group =>   1
Atom   1O    basis set group =>   2
Atom   2C    basis set group =>   1
Atom   3C    basis set group =>   1
Atom   4C    basis set group =>   1
Atom   5C    basis set group =>   1
Atom   6C    basis set group =>   1
Atom   7C    basis set group =>   1
Atom   8P    basis set group =>   3
Atom   9O    basis set group =>   2
Atom  10C    basis set group =>   1
Atom  11C    basis set group =>   1
Atom  12C    basis set group =>   1
Atom  13C    basis set group =>   1
Atom  14C    basis set group =>   1
Atom  15C    basis set group =>   1
Atom  16O    basis set group =>   2
Atom  17C    basis set group =>   1
Atom  18C    basis set group =>   1
Atom  19C    basis set group =>   1
Atom  20C    basis set group =>   1
Atom  21C    basis set group =>   1
Atom  22C    basis set group =>   1
Atom  23C    basis set group =>   1
Atom  24O    basis set group =>   2
Atom  25C    basis set group =>   1
Atom  26H    basis set group =>   4
Atom  27H    basis set group =>   4
Atom  28H    basis set group =>   4
Atom  29H    basis set group =>   4
Atom  30H    basis set group =>   4
Atom  31H    basis set group =>   4
Atom  32H    basis set group =>   4
Atom  33H    basis set group =>   4
Atom  34H    basis set group =>   4
Atom  35H    basis set group =>   4
Atom  36H    basis set group =>   4
Atom  37H    basis set group =>   4
Atom  38H    basis set group =>   4
Atom  39H    basis set group =>   4
Atom  40H    basis set group =>   4
Atom  41H    basis set group =>   4
Atom  42H    basis set group =>   4
Atom  43H    basis set group =>   4
Atom  44H    basis set group =>   4
Atom  45H    basis set group =>   4
Atom  46H    basis set group =>   4
---------------------------------
AUXILIARY/J BASIS SET INFORMATION
---------------------------------
There are 4 groups of distinct atoms

 Group   1 Type C   : 12s5p4d2f1g contracted to 6s4p3d1f1g pattern {711111/2111/211/2/1}
 Group   2 Type O   : 12s5p4d2f1g contracted to 6s4p3d1f1g pattern {711111/2111/211/2/1}
 Group   3 Type P   : 14s5p5d2f1g contracted to 8s4p3d1f1g pattern {71111111/2111/311/2/1}
 Group   4 Type H   : 5s2p1d contracted to 3s1p1d pattern {311/2/1}

Atom   0C    basis set group =>   1
Atom   1O    basis set group =>   2
Atom   2C    basis set group =>   1
Atom   3C    basis set group =>   1
Atom   4C    basis set group =>   1
Atom   5C    basis set group =>   1
Atom   6C    basis set group =>   1
Atom   7C    basis set group =>   1
Atom   8P    basis set group =>   3
Atom   9O    basis set group =>   2
Atom  10C    basis set group =>   1
Atom  11C    basis set group =>   1
Atom  12C    basis set group =>   1
Atom  13C    basis set group =>   1
Atom  14C    basis set group =>   1
Atom  15C    basis set group =>   1
Atom  16O    basis set group =>   2
Atom  17C    basis set group =>   1
Atom  18C    basis set group =>   1
Atom  19C    basis set group =>   1
Atom  20C    basis set group =>   1
Atom  21C    basis set group =>   1
Atom  22C    basis set group =>   1
Atom  23C    basis set group =>   1
Atom  24O    basis set group =>   2
Atom  25C    basis set group =>   1
Atom  26H    basis set group =>   4
Atom  27H    basis set group =>   4
Atom  28H    basis set group =>   4
Atom  29H    basis set group =>   4
Atom  30H    basis set group =>   4
Atom  31H    basis set group =>   4
Atom  32H    basis set group =>   4
Atom  33H    basis set group =>   4
Atom  34H    basis set group =>   4
Atom  35H    basis set group =>   4
Atom  36H    basis set group =>   4
Atom  37H    basis set group =>   4
Atom  38H    basis set group =>   4
Atom  39H    basis set group =>   4
Atom  40H    basis set group =>   4
Atom  41H    basis set group =>   4
Atom  42H    basis set group =>   4
Atom  43H    basis set group =>   4
Atom  44H    basis set group =>   4
Atom  45H    basis set group =>   4
Atom  46H    basis set group =>   4


           ************************************************************
           *        Program running with 6 parallel MPI-processes     *
           *              working on a common directory               *
           ************************************************************
------------------------------------------------------------------------------
                             ORCA STARTUP CALCULATIONS
                           -- RI-GTO INTEGRALS CHOSEN --
------------------------------------------------------------------------------
------------------------------------------------------------------------------
                   ___                                                        
                  /   \      - P O W E R E D   B Y -                         
                 /     \                                                     
                 |  |  |   _    _      __       _____    __    __             
                 |  |  |  | |  | |    /  \     |  _  \  |  |  /  |          
                  \  \/   | |  | |   /    \    | | | |  |  | /  /          
                 / \  \   | |__| |  /  /\  \   | |_| |  |  |/  /          
                |  |  |   |  __  | /  /__\  \  |    /   |      \           
                |  |  |   | |  | | |   __   |  |    \   |  |\   \          
                \     /   | |  | | |  |  |  |  | |\  \  |  | \   \       
                 \___/    |_|  |_| |__|  |__|  |_| \__\ |__|  \__/        
                                                                              
                      - O R C A' S   B I G   F R I E N D -                    
                                      &                                       
                       - I N T E G R A L  F E E D E R -                       
                                                                              
 v1 FN, 2020, v2 2021, v3 2022-2024                                           
------------------------------------------------------------------------------


----------------------
SHARK INTEGRAL PACKAGE
----------------------

Number of atoms                             ...     47
Number of basis functions                   ...    473
Number of shells                            ...    221
Maximum angular momentum                    ...      2
Integral batch strategy                     ... SHARK/LIBINT Hybrid
RI-J (if used) integral strategy            ... SPLIT-RIJ (Revised 2003 algorithm where possible)
Printlevel                                  ...      1
Contraction scheme used                     ... SEGMENTED contraction
Prescreening option                         ... SCHWARTZ
   Thresh                                   ... 2.500e-11
   Tcut                                     ... 2.500e-12
   Tpresel                                  ... 2.500e-12 
Coulomb Range Separation                    ... NOT USED
Exchange Range Separation                   ... NOT USED
Multipole approximations                    ... NOT USED
Finite Nucleus Model                        ... NOT USED
CABS basis                                  ... NOT available
Auxiliary Coulomb fitting basis             ... AVAILABLE
   # of basis functions in Aux-J            ...   1507
   # of shells in Aux-J                     ...    497
   Maximum angular momentum in Aux-J        ...      4
Auxiliary J/K fitting basis                 ... NOT available
Auxiliary Correlation fitting basis         ... NOT available
Auxiliary 'external' fitting basis          ... NOT available

Checking pre-screening integrals            ... done (  0.0 sec) Dimension = 221
Check shell pair data                       ... done (  0.0 sec)
Shell pair information
Shell pair cut-off parameter TPreSel        ...   2.5e-12
Total number of shell pairs                 ...     24531
Shell pairs after pre-screening             ...     15173
Total number of primitive shell pairs       ...     90087
Primitive shell pairs kept                  ...     34887
          la=0 lb=0:   4686 shell pairs
          la=1 lb=0:   5682 shell pairs
          la=1 lb=1:   1775 shell pairs
          la=2 lb=0:   1776 shell pairs
          la=2 lb=1:   1089 shell pairs
          la=2 lb=2:    165 shell pairs

Calculating one electron integrals          ... done (  0.0 sec)
Calculating RI/J V-Matrix + Cholesky decomp.... done (  0.1 sec)
Calculating Nuclear repulsion               ... done (  0.0 sec) ENN=   2371.550581643697 Eh

Diagonalization of the overlap matrix:
Smallest eigenvalue                        ... 2.427e-04
Time for diagonalization                   ...    0.033 sec
Threshold for overlap eigenvalues          ... 1.000e-07
Number of eigenvalues below threshold      ... 0
Time for construction of square roots      ...    0.017 sec
Total time needed                          ...    0.051 sec

-------------------
DFT GRID GENERATION
-------------------

General Integration Accuracy     IntAcc      ... 4.388
Radial Grid Type                 RadialGrid  ... OptM3 with GC (2021)
Angular Grid (max. ang.)         AngularGrid ... 4 (Lebedev-302)
Angular grid pruning method      GridPruning ... 4 (adaptive)
Weight generation scheme         WeightScheme... mBecke (2022)
Basis function cutoff            BFCut       ... 1.0000e-11
Integration weight cutoff        WCut        ... 1.0000e-14
Partially contracted basis set               ... off
Rotationally invariant grid construction     ... off
Angular grids for H and He will be reduced by one unit

Total number of grid points                  ...   223928
Total number of batches                      ...     3521
Average number of points per batch           ...       63
Average number of grid points per atom       ...     4764
Initializing property integral containers    ... done (  0.0 sec)

SHARK setup successfully completed in   1.8 seconds

Maximum memory used throughout the entire STARTUP-calculation: 61.3 MB


           ************************************************************
           *        Program running with 6 parallel MPI-processes     *
           *              working on a common directory               *
           ************************************************************
-------------------------------------------------------------------------------
                                 ORCA GUESS
                   Start orbitals & Density for SCF / CASSCF
-------------------------------------------------------------------------------

------------
SCF SETTINGS
------------
Hamiltonian:
 Density Functional     Method          .... DFT(GTOs)
 Exchange Functional    Exchange        .... B88
   X-Alpha parameter    XAlpha          ....  0.666667
   Becke's b parameter  XBeta           ....  0.004200
 Correlation Functional Correlation     .... P86
 LDA part of GGA corr.  LDAOpt          .... PW91-LDA
 Gradients option       PostSCFGGA      .... off
   NL short-range parameter             ....  4.400000
 RI-approximation to the Coulomb term is turned on
   Number of AuxJ basis functions       .... 1507


General Settings:
 Integral files         IntName         .... data/geom_opt_PO_BP86/70071/70071
 Hartree-Fock type      HFTyp           .... RHF
 Total Charge           Charge          ....    0
 Multiplicity           Mult            ....    1
 Number of Electrons    NEL             ....  194
 Basis Dimension        Dim             ....  473
 Nuclear Repulsion      ENuc            ....   2371.5505816437 Eh

Convergence Acceleration:
 AO-DIIS                CNVDIIS         .... on
   Start iteration      DIISMaxIt       ....    12
   Startup error        DIISStart       ....  0.200000
   # of expansion vecs  DIISMaxEq       ....     5
   Bias factor          DIISBfac        ....   1.050
   Max. coefficient     DIISMaxC        ....  10.000
 MO-DIIS                CNVKDIIS        .... off
 Trust-Rad. Augm. Hess. CNVTRAH         .... auto
   Auto Start mean grad. ratio tolernc. ....  1.125000
   Auto Start start iteration           ....    50
   Auto Start num. interpolation iter.  ....    10
   Max. Number of Micro iterations      ....    24
   Max. Number of Macro iterations      .... Maxiter - #DIIS iter
   Number of Davidson start vectors     ....     2
   Converg. threshold    (grad. norm)   ....   1.000e-05
   Grad. Scal. Fac. for Micro threshold ....   0.100
   Minimum threshold for Micro iter.    ....   1.000e-02
   NR start threshold (gradient norm)   ....   1.000e-04
   Initial trust radius                 ....   0.400
   Minimum AH scaling param. (alpha)    ....   1.000
   Maximum AH scaling param. (alpha)    .... 1000.000
   Quad. conv. algorithm                .... NR
   White noise on init. David. guess    .... on
   Maximum white noise                  ....   0.010
   Pseudo random numbers                .... off
   Inactive MOs                         .... canonical
   Orbital update algorithm             .... Taylor
   Preconditioner                       .... Diag
   Full preconditioner red. dimension   ....   250
 SOSCF                  CNVSOSCF        .... on
   Start iteration      SOSCFMaxIt      ....   150
   Startup grad/error   SOSCFStart      ....  0.003300
   Hessian update       SOSCFHessUp     .... L-BFGS
 Level Shifting         CNVShift        .... on
   Level shift para.    LevelShift      ....    0.2500
   Turn off err/grad.   ShiftErr        ....    0.0010
 Zerner damping         CNVZerner       .... off
 Static damping         CNVDamp         .... on
   Fraction old density DampFac         ....    0.7000
   Max. Damping (<1)    DampMax         ....    0.9800
   Min. Damping (>=0)   DampMin         ....    0.0000
   Turn off err/grad.   DampErr         ....    0.1000

SCF Procedure:
 Maximum # iterations   MaxIter         ....   125
 SCF integral mode      SCFMode         .... Direct
   Integral package                     .... SHARK and LIBINT hybrid scheme
 Reset frequency        DirectResetFreq ....    20
 Integral Threshold     Thresh          ....  2.500e-11 Eh
 Primitive CutOff       TCut            ....  2.500e-12 Eh

Convergence Tolerance:
 Convergence Check Mode ConvCheckMode   .... Total+1el-Energy
 Convergence forced     ConvForced      .... 0
 Energy Change          TolE            ....  1.000e-08 Eh
 1-El. energy change                    ....  1.000e-05 Eh
 Orbital Gradient       TolG            ....  1.000e-05
 Orbital Rotation angle TolX            ....  1.000e-05
 DIIS Error             TolErr          ....  5.000e-07

------------------------------
INITIAL GUESS: MODEL POTENTIAL
------------------------------
Loading Hartree-Fock densities                     ... done
Calculating cut-offs                               ... done
Initializing the effective Hamiltonian             ... done
Setting up the integral package (SHARK)            ... done
Starting the Coulomb interaction                   ... done (   0.3 sec)
Making the grid                                    ... done (   0.3 sec)
Mapping shells                                     ... done
Starting the XC term evaluation                    ... done (   0.2 sec)
  promolecular density results
     # of electrons  =    193.990286092
     EX              =   -169.704951945
     EC              =     -7.219457672
     EX+EC           =   -176.924409617
Transforming the Hamiltonian                       ... done (   0.0 sec)
Diagonalizing the Hamiltonian                      ... done (   0.0 sec)
Back transforming the eigenvectors                 ... done (   0.0 sec)
Now organizing SCF variables                       ... done
                      ------------------
                      INITIAL GUESS DONE (   0.9 sec)
                      ------------------
             **** ENERGY FILE WAS UPDATED (data/geom_opt_PO_BP86/70071/70071.en.tmp) ****
Finished Guess after   1.0 sec
Maximum memory used throughout the entire GUESS-calculation: 34.4 MB


           ************************************************************
           *        Program running with 6 parallel MPI-processes     *
           *              working on a common directory               *
           ************************************************************

-------------------------------------------------------------------------------------------
                                      ORCA LEAN-SCF
                              memory conserving SCF solver
-------------------------------------------------------------------------------------------

----------------------------------------D-I-I-S--------------------------------------------
Iteration    Energy (Eh)           Delta-E    RMSDP     MaxDP     DIISErr   Damp  Time(sec)
-------------------------------------------------------------------------------------------
               ***  Starting incremental Fock matrix formation  ***
    1    -1453.7334071971108642     0.00e+00  2.72e-03  1.49e-01  3.36e-01  0.700   1.3
    2    -1453.9830578871319631    -2.50e-01  1.62e-03  5.89e-02  8.13e-02  0.700   1.3
                               ***Turning on AO-DIIS***
    3    -1454.0662357323208198    -8.32e-02  5.90e-04  1.92e-02  2.86e-02  0.700   1.3
    4    -1454.1214067742303087    -5.52e-02  1.02e-03  4.38e-02  1.21e-02  0.000   1.2
    5    -1454.2430526776124680    -1.22e-01  2.33e-04  1.04e-02  7.26e-03  0.000   1.7
                              *** Initializing SOSCF ***
---------------------------------------S-O-S-C-F--------------------------------------
Iteration    Energy (Eh)           Delta-E    RMSDP     MaxDP     MaxGrad    Time(sec)
--------------------------------------------------------------------------------------
    6    -1454.2441685295184470    -1.12e-03  8.63e-05  2.27e-03  2.49e-03     1.3
               *** Restarting incremental Fock matrix formation ***
    7    -1454.2442479372739399    -7.94e-05  9.51e-05  4.78e-03  5.05e-04     1.3
    8    -1454.2441676371468020     8.03e-05  5.78e-05  2.44e-03  1.63e-03     1.2
    9    -1454.2442655328727596    -9.79e-05  2.16e-05  8.23e-04  1.31e-04     1.2
   10    -1454.2442630721775458     2.46e-06  1.21e-05  4.66e-04  2.17e-04     1.1
   11    -1454.2442671379003514    -4.07e-06  7.94e-06  2.74e-04  4.46e-05     1.1
   12    -1454.2442667310888282     4.07e-07  5.61e-06  2.28e-04  7.99e-05     1.1
   13    -1454.2442673003802156    -5.69e-07  2.93e-06  8.59e-05  1.46e-05     1.0
   14    -1454.2442672206684620     7.97e-08  1.80e-06  4.96e-05  2.34e-05     1.0
   15    -1454.2442673372352147    -1.17e-07  6.76e-07  2.01e-05  3.52e-06     1.1
   16    -1454.2442673051809834     3.21e-08  4.26e-07  1.64e-05  7.48e-06     1.0
   17    -1454.2442673343739443    -2.92e-08  2.30e-07  1.60e-05  1.26e-06     1.0
                  *** Gradient check signals convergence ***

               *****************************************************
               *                     SUCCESS                       *
               *           SCF CONVERGED AFTER  17 CYCLES          *
               *****************************************************

             **** ENERGY FILE WAS UPDATED (data/geom_opt_PO_BP86/70071/70071.en.tmp) ****

----------------
TOTAL SCF ENERGY
----------------

Total Energy       :      -1454.24426733437394 Eh          -39571.99832 eV

Components:
Nuclear Repulsion  :       2371.55058164369711 Eh           64533.17213 eV
Electronic Energy  :      -3825.79484897807106 Eh         -104105.17045 eV
One Electron Energy:      -6700.71567855195917 Eh         -182335.74338 eV
Two Electron Energy:       2874.92082957388811 Eh           78230.57294 eV

Virial components:
Potential Energy   :      -2895.71491747629170 Eh          -78796.40884 eV
Kinetic Energy     :       1441.47065014191753 Eh           39224.41052 eV
Virial Ratio       :          2.00886151736159

DFT components:
N(Alpha)           :       96.999921187367 electrons
N(Beta)            :       96.999921187367 electrons
N(Total)           :      193.999842374733 electrons
E(X)               :     -172.159425973960 Eh       
E(C)               :       -7.220090566535 Eh       
E(XC)              :     -179.379516540495 Eh       

---------------
SCF CONVERGENCE
---------------

  Last Energy change         ...    2.9193e-08  Tolerance :   1.0000e-08
  Last MAX-Density change    ...    1.6040e-05  Tolerance :   1.0000e-07
  Last RMS-Density change    ...    2.2993e-07  Tolerance :   5.0000e-09
  Last DIIS Error            ...    2.4908e-03  Tolerance :   5.0000e-07
  Last Orbital Gradient      ...    1.2604e-06  Tolerance :   1.0000e-05
  Last Orbital Rotation      ...    4.8422e-06  Tolerance :   1.0000e-05


----------------
ORBITAL ENERGIES
----------------

  NO   OCC          E(Eh)            E(eV) 
   0   2.0000     -76.397989     -2078.8950 
   1   2.0000     -18.817058      -512.0382 
   2   2.0000     -18.817057      -512.0382 
   3   2.0000     -18.817056      -512.0381 
   4   2.0000     -18.692257      -508.6422 
   5   2.0000      -9.976083      -271.4630 
   6   2.0000      -9.976081      -271.4630 
   7   2.0000      -9.976080      -271.4630 
   8   2.0000      -9.971017      -271.3252 
   9   2.0000      -9.971015      -271.3251 
  10   2.0000      -9.971009      -271.3249 
  11   2.0000      -9.921768      -269.9850 
  12   2.0000      -9.921730      -269.9840 
  13   2.0000      -9.921727      -269.9839 
  14   2.0000      -9.921455      -269.9765 
  15   2.0000      -9.921430      -269.9758 
  16   2.0000      -9.921429      -269.9758 
  17   2.0000      -9.917791      -269.8768 
  18   2.0000      -9.917786      -269.8767 
  19   2.0000      -9.917785      -269.8766 
  20   2.0000      -9.913208      -269.7521 
  21   2.0000      -9.913207      -269.7521 
  22   2.0000      -9.913201      -269.7519 
  23   2.0000      -9.910077      -269.6669 
  24   2.0000      -9.910071      -269.6668 
  25   2.0000      -9.910009      -269.6651 
  26   2.0000      -6.356655      -172.9734 
  27   2.0000      -4.577743      -124.5667 
  28   2.0000      -4.577741      -124.5667 
  29   2.0000      -4.577723      -124.5662 
  30   2.0000      -0.975704       -26.5503 
  31   2.0000      -0.975703       -26.5502 
  32   2.0000      -0.975701       -26.5502 
  33   2.0000      -0.831751       -22.6331 
  34   2.0000      -0.776348       -21.1255 
  35   2.0000      -0.774686       -21.0803 
  36   2.0000      -0.774680       -21.0801 
  37   2.0000      -0.698337       -19.0027 
  38   2.0000      -0.687683       -18.7128 
  39   2.0000      -0.687680       -18.7127 
  40   2.0000      -0.678060       -18.4510 
  41   2.0000      -0.673869       -18.3369 
  42   2.0000      -0.673866       -18.3368 
  43   2.0000      -0.640478       -17.4283 
  44   2.0000      -0.629293       -17.1239 
  45   2.0000      -0.629291       -17.1239 
  46   2.0000      -0.568763       -15.4768 
  47   2.0000      -0.551841       -15.0163 
  48   2.0000      -0.551838       -15.0163 
  49   2.0000      -0.549463       -14.9516 
  50   2.0000      -0.532058       -14.4780 
  51   2.0000      -0.532056       -14.4780 
  52   2.0000      -0.501391       -13.6436 
  53   2.0000      -0.490036       -13.3346 
  54   2.0000      -0.490033       -13.3345 
  55   2.0000      -0.482604       -13.1323 
  56   2.0000      -0.443801       -12.0764 
  57   2.0000      -0.443801       -12.0764 
  58   2.0000      -0.439221       -11.9518 
  59   2.0000      -0.427889       -11.6435 
  60   2.0000      -0.427887       -11.6434 
  61   2.0000      -0.427795       -11.6409 
  62   2.0000      -0.423326       -11.5193 
  63   2.0000      -0.423324       -11.5192 
  64   2.0000      -0.401173       -10.9165 
  65   2.0000      -0.401050       -10.9131 
  66   2.0000      -0.401047       -10.9131 
  67   2.0000      -0.381317       -10.3762 
  68   2.0000      -0.379573       -10.3287 
  69   2.0000      -0.379571       -10.3286 
  70   2.0000      -0.373294       -10.1578 
  71   2.0000      -0.371643       -10.1129 
  72   2.0000      -0.371641       -10.1129 
  73   2.0000      -0.365361        -9.9420 
  74   2.0000      -0.348058        -9.4711 
  75   2.0000      -0.348055        -9.4711 
  76   2.0000      -0.345217        -9.3938 
  77   2.0000      -0.326382        -8.8813 
  78   2.0000      -0.326380        -8.8813 
  79   2.0000      -0.322131        -8.7656 
  80   2.0000      -0.312833        -8.5126 
  81   2.0000      -0.312832        -8.5126 
  82   2.0000      -0.294426        -8.0118 
  83   2.0000      -0.290486        -7.9045 
  84   2.0000      -0.290484        -7.9045 
  85   2.0000      -0.290473        -7.9042 
  86   2.0000      -0.288223        -7.8429 
  87   2.0000      -0.288221        -7.8429 
  88   2.0000      -0.276463        -7.5229 
  89   2.0000      -0.236272        -6.4293 
  90   2.0000      -0.233638        -6.3576 
  91   2.0000      -0.233636        -6.3576 
  92   2.0000      -0.211535        -5.7562 
  93   2.0000      -0.211533        -5.7561 
  94   2.0000      -0.201172        -5.4742 
  95   2.0000      -0.192639        -5.2420 
  96   2.0000      -0.192636        -5.2419 
  97   0.0000      -0.053395        -1.4530 
  98   0.0000      -0.047570        -1.2944 
  99   0.0000      -0.047566        -1.2943 
 100   0.0000      -0.039720        -1.0808 
 101   0.0000      -0.037459        -1.0193 
 102   0.0000      -0.037458        -1.0193 
 103   0.0000       0.040752         1.1089 
 104   0.0000       0.045844         1.2475 
 105   0.0000       0.045845         1.2475 
 106   0.0000       0.054372         1.4795 
 107   0.0000       0.058559         1.5935 
*Only the first 10 virtual orbitals were printed.

                    ********************************
                    * MULLIKEN POPULATION ANALYSIS *
                    ********************************

-----------------------
MULLIKEN ATOMIC CHARGES
-----------------------
   0 C :    0.121238
   1 O :   -0.275628
   2 C :    0.219861
   3 C :   -0.021682
   4 C :   -0.014127
   5 C :   -0.106461
   6 C :    0.005001
   7 C :   -0.088747
   8 P :    0.619831
   9 O :   -0.477405
  10 C :   -0.106699
  11 C :   -0.014144
  12 C :   -0.021680
  13 C :    0.219839
  14 C :   -0.088784
  15 C :    0.005235
  16 O :   -0.275627
  17 C :    0.121217
  18 C :   -0.106742
  19 C :   -0.013981
  20 C :   -0.021766
  21 C :    0.220018
  22 C :   -0.088953
  23 C :    0.005156
  24 O :   -0.275654
  25 C :    0.121254
  26 H :    0.048297
  27 H :    0.038938
  28 H :    0.040243
  29 H :   -0.009428
  30 H :    0.000817
  31 H :    0.010646
  32 H :   -0.016420
  33 H :    0.000891
  34 H :   -0.009420
  35 H :   -0.016393
  36 H :    0.010599
  37 H :    0.040270
  38 H :    0.048309
  39 H :    0.038911
  40 H :    0.000871
  41 H :   -0.009400
  42 H :   -0.016390
  43 H :    0.010636
  44 H :    0.040263
  45 H :    0.038872
  46 H :    0.048317
Sum of atomic charges:   -0.0000000

--------------------------------
MULLIKEN REDUCED ORBITAL CHARGES
--------------------------------
  0 C s       :     3.027108  s :     3.027108
      pz      :     1.002914  p :     2.802260
      px      :     0.963975
      py      :     0.835371
      dz2     :     0.009009  d :     0.049394
      dxz     :     0.004369
      dyz     :     0.012415
      dx2y2   :     0.013444
      dxy     :     0.010157

  1 O s       :     3.744904  s :     3.744904
      pz      :     1.633646  p :     4.514267
      px      :     1.682552
      py      :     1.198070
      dz2     :     0.002396  d :     0.016457
      dxz     :     0.002311
      dyz     :     0.005422
      dx2y2   :     0.002703
      dxy     :     0.003625

  2 C s       :     2.938996  s :     2.938996
      pz      :     0.940473  p :     2.769871
      px      :     0.986096
      py      :     0.843302
      dz2     :     0.013574  d :     0.071272
      dxz     :     0.007890
      dyz     :     0.020606
      dx2y2   :     0.013892
      dxy     :     0.015310

  3 C s       :     3.250085  s :     3.250085
      pz      :     0.858866  p :     2.741460
      px      :     0.958514
      py      :     0.924080
      dz2     :     0.005231  d :     0.030136
      dxz     :     0.003807
      dyz     :     0.007836
      dx2y2   :     0.005936
      dxy     :     0.007325

  4 C s       :     3.238055  s :     3.238055
      pz      :     0.937646  p :     2.742379
      px      :     0.943087
      py      :     0.861646
      dz2     :     0.007460  d :     0.033693
      dxz     :     0.004962
      dyz     :     0.009026
      dx2y2   :     0.005119
      dxy     :     0.007126

  5 C s       :     3.054488  s :     3.054488
      pz      :     0.991343  p :     3.018887
      px      :     1.034308
      py      :     0.993236
      dz2     :     0.007216  d :     0.033087
      dxz     :     0.005194
      dyz     :     0.008546
      dx2y2   :     0.006732
      dxy     :     0.005398

  6 C s       :     3.246516  s :     3.246516
      pz      :     0.870483  p :     2.715113
      px      :     0.926619
      py      :     0.918011
      dz2     :     0.005735  d :     0.033371
      dxz     :     0.004342
      dyz     :     0.008411
      dx2y2   :     0.007271
      dxy     :     0.007612

  7 C s       :     3.253536  s :     3.253536
      pz      :     0.957808  p :     2.804552
      px      :     0.984312
      py      :     0.862433
      dz2     :     0.007172  d :     0.030659
      dxz     :     0.004879
      dyz     :     0.007472
      dx2y2   :     0.004928
      dxy     :     0.006207

  8 P s       :     5.210108  s :     5.210108
      pz      :     2.813029  p :     8.682309
      px      :     2.935229
      py      :     2.934052
      dz2     :     0.093732  d :     0.487752
      dxz     :     0.126073
      dyz     :     0.140296
      dx2y2   :     0.054614
      dxy     :     0.073037

  9 O s       :     3.821105  s :     3.821105
      pz      :     1.341340  p :     4.644729
      px      :     1.653170
      py      :     1.650218
      dz2     :     0.004923  d :     0.011571
      dxz     :     0.003225
      dyz     :     0.003255
      dx2y2   :     0.000098
      dxy     :     0.000069

 10 C s       :     3.054582  s :     3.054582
      pz      :     0.993090  p :     3.019030
      px      :     1.011118
      py      :     1.014821
      dz2     :     0.007588  d :     0.033087
      dxz     :     0.007493
      dyz     :     0.005327
      dx2y2   :     0.005560
      dxy     :     0.007120

 11 C s       :     3.237955  s :     3.237955
      pz      :     0.930490  p :     2.742496
      px      :     0.850603
      py      :     0.961403
      dz2     :     0.006134  d :     0.033694
      dxz     :     0.008954
      dyz     :     0.004850
      dx2y2   :     0.007610
      dxy     :     0.006145

 12 C s       :     3.250135  s :     3.250135
      pz      :     0.887858  p :     2.741409
      px      :     0.937190
      py      :     0.916361
      dz2     :     0.004408  d :     0.030136
      dxz     :     0.007718
      dyz     :     0.004592
      dx2y2   :     0.007189
      dxy     :     0.006229

 13 C s       :     2.938977  s :     2.938977
      pz      :     0.972116  p :     2.769912
      px      :     0.873488
      py      :     0.924309
      dz2     :     0.012267  d :     0.071272
      dxz     :     0.017102
      dyz     :     0.008727
      dx2y2   :     0.015799
      dxy     :     0.017377

 14 C s       :     3.253513  s :     3.253513
      pz      :     0.941755  p :     2.804611
      px      :     0.850671
      py      :     1.012186
      dz2     :     0.005676  d :     0.030660
      dxz     :     0.007428
      dyz     :     0.005352
      dx2y2   :     0.007176
      dxy     :     0.005028

 15 C s       :     3.246464  s :     3.246464
      pz      :     0.892034  p :     2.714931
      px      :     0.931662
      py      :     0.891236
      dz2     :     0.005262  d :     0.033370
      dxz     :     0.008019
      dyz     :     0.004890
      dx2y2   :     0.007715
      dxy     :     0.007483

 16 O s       :     3.744907  s :     3.744907
      pz      :     1.638972  p :     4.514262
      px      :     1.223551
      py      :     1.651739
      dz2     :     0.002387  d :     0.016457
      dxz     :     0.004882
      dyz     :     0.002405
      dx2y2   :     0.002845
      dxy     :     0.003938

 17 C s       :     3.027121  s :     3.027121
      pz      :     0.954634  p :     2.802267
      px      :     0.807373
      py      :     1.040260
      dz2     :     0.011376  d :     0.049394
      dxz     :     0.012648
      dyz     :     0.004166
      dx2y2   :     0.009705
      dxy     :     0.011499

 18 C s       :     3.054582  s :     3.054582
      pz      :     0.980564  p :     3.019073
      px      :     1.000780
      py      :     1.037730
      dz2     :     0.008379  d :     0.033087
      dxz     :     0.007415
      dyz     :     0.007202
      dx2y2   :     0.004715
      dxy     :     0.005376

 19 C s       :     3.237863  s :     3.237863
      pz      :     0.926537  p :     2.742424
      px      :     0.922290
      py      :     0.893598
      dz2     :     0.007234  d :     0.033694
      dxz     :     0.007964
      dyz     :     0.007600
      dx2y2   :     0.005489
      dxy     :     0.005406

 20 C s       :     3.250164  s :     3.250164
      pz      :     0.840361  p :     2.741466
      px      :     0.923976
      py      :     0.977129
      dz2     :     0.005764  d :     0.030135
      dxz     :     0.007243
      dyz     :     0.005231
      dx2y2   :     0.006436
      dxy     :     0.005461

 21 C s       :     2.939002  s :     2.939002
      pz      :     0.961213  p :     2.769708
      px      :     0.857404
      py      :     0.951091
      dz2     :     0.013414  d :     0.071272
      dxz     :     0.016284
      dyz     :     0.012729
      dx2y2   :     0.015785
      dxy     :     0.013059

 22 C s       :     3.253520  s :     3.253520
      pz      :     0.916850  p :     2.804774
      px      :     0.963726
      py      :     0.924198
      dz2     :     0.007072  d :     0.030659
      dxz     :     0.007688
      dyz     :     0.006138
      dx2y2   :     0.004547
      dxy     :     0.005215

 23 C s       :     3.246441  s :     3.246441
      pz      :     0.872599  p :     2.715033
      px      :     0.897243
      py      :     0.945191
      dz2     :     0.006950  d :     0.033370
      dxz     :     0.007017
      dyz     :     0.005653
      dx2y2   :     0.007481
      dxy     :     0.006268

 24 O s       :     3.744916  s :     3.744916
      pz      :     1.609450  p :     4.514281
      px      :     1.421594
      py      :     1.483236
      dz2     :     0.002461  d :     0.016457
      dxz     :     0.004201
      dyz     :     0.003894
[...]
      dyz     :     0.006872
      dx2y2   :     0.005809
      dxy     :     0.006403

 25 C s       :     2.862101  s :     2.862101
      pz      :     1.004036  p :     2.964904
      px      :     1.000505
      py      :     0.960364
      dz2     :     0.014076  d :     0.115398
      dxz     :     0.029944
      dyz     :     0.029253
      dx2y2   :     0.014554
      dxy     :     0.027571

 26 H s       :     0.904379  s :     0.904379
      pz      :     0.024102  p :     0.062101
      px      :     0.012193
      py      :     0.025806

 27 H s       :     0.915140  s :     0.915140
      pz      :     0.012249  p :     0.064089
      px      :     0.042534
      py      :     0.009307

 28 H s       :     0.914830  s :     0.914830
      pz      :     0.035976  p :     0.064127
      px      :     0.016574
      py      :     0.011576

 29 H s       :     0.894612  s :     0.894612
      pz      :     0.036412  p :     0.067884
      px      :     0.020268
      py      :     0.011204

 30 H s       :     0.898130  s :     0.898130
      pz      :     0.017289  p :     0.068115
      px      :     0.019596
      py      :     0.031231

 31 H s       :     0.892966  s :     0.892966
      pz      :     0.038988  p :     0.068811
      px      :     0.017916
      py      :     0.011907

 32 H s       :     0.897277  s :     0.897277
      pz      :     0.018979  p :     0.069798
      px      :     0.020680
      py      :     0.030138

 33 H s       :     0.898296  s :     0.898296
      pz      :     0.022626  p :     0.068092
      px      :     0.032525
      py      :     0.012941

 34 H s       :     0.894606  s :     0.894606
      pz      :     0.034055  p :     0.067881
      px      :     0.011077
      py      :     0.022750

 35 H s       :     0.897273  s :     0.897273
      pz      :     0.024413  p :     0.069800
      px      :     0.030546
      py      :     0.014841

 36 H s       :     0.892838  s :     0.892838
      pz      :     0.036025  p :     0.068863
      px      :     0.011572
      py      :     0.021266

 37 H s       :     0.914824  s :     0.914824
      pz      :     0.037247  p :     0.064122
      px      :     0.009795
      py      :     0.017080

 38 H s       :     0.904370  s :     0.904370
      pz      :     0.017373  p :     0.062103
      px      :     0.022684
      py      :     0.022046

 39 H s       :     0.915117  s :     0.915117
      pz      :     0.011411  p :     0.064101
      px      :     0.014742
      py      :     0.037948

 40 H s       :     0.898321  s :     0.898321
      pz      :     0.022483  p :     0.068054
      px      :     0.019126
      py      :     0.026445

 41 H s       :     0.894616  s :     0.894616
      pz      :     0.038776  p :     0.067885
      px      :     0.015691
      py      :     0.013417

 42 H s       :     0.897285  s :     0.897285
      pz      :     0.023708  p :     0.069796
      px      :     0.020182
      py      :     0.025907

 43 H s       :     0.892870  s :     0.892870
      pz      :     0.041153  p :     0.068883
      px      :     0.015517
      py      :     0.012213

 44 H s       :     0.914894  s :     0.914894
      pz      :     0.031447  p :     0.064106
      px      :     0.016993
      py      :     0.015665

 45 H s       :     0.915118  s :     0.915118
      pz      :     0.014479  p :     0.064098
      px      :     0.020146
      py      :     0.029473

 46 H s       :     0.904393  s :     0.904393
      pz      :     0.020664  p :     0.062098
      px      :     0.027075
      py      :     0.014359



                      *****************************
                      * MAYER POPULATION ANALYSIS *
                      *****************************

  NA   - Mulliken gross atomic population
  ZA   - Total nuclear charge
  QA   - Mulliken gross atomic charge
  VA   - Mayer's total valence
  BVA  - Mayer's bonded valence
  FA   - Mayer's free valence

  ATOM       NA         ZA         QA         VA         BVA        FA
  0 C      5.8972     6.0000     0.1028     3.9314     3.9314    -0.0000
  1 O      8.2685     8.0000    -0.2685     2.2781     2.2781    -0.0000
  2 C      5.8059     6.0000     0.1941     3.8997     3.8997    -0.0000
  3 C      6.0215     6.0000    -0.0215     3.8338     3.8338    -0.0000
  4 C      6.0182     6.0000    -0.0182     3.8676     3.8676    -0.0000
  5 C      6.1139     6.0000    -0.1139     3.7298     3.7298    -0.0000
  6 C      6.0010     6.0000    -0.0010     3.8961     3.8961    -0.0000
  7 C      6.0851     6.0000    -0.0851     3.7902     3.7902    -0.0000
  8 P     14.3667    15.0000     0.6333     4.7232     4.7232    -0.0000
  9 O      8.4646     8.0000    -0.4646     2.1378     2.1378    -0.0000
 10 C      6.1138     6.0000    -0.1138     3.7284     3.7284    -0.0000
 11 C      6.0178     6.0000    -0.0178     3.8666     3.8666    -0.0000
 12 C      6.0215     6.0000    -0.0215     3.8342     3.8342    -0.0000
 13 C      5.8061     6.0000     0.1939     3.8999     3.8999    -0.0000
 14 C      6.0852     6.0000    -0.0852     3.7898     3.7898    -0.0000
 15 C      6.0017     6.0000    -0.0017     3.8968     3.8968    -0.0000
 16 O      8.2685     8.0000    -0.2685     2.2781     2.2781    -0.0000
 17 C      5.8972     6.0000     0.1028     3.9314     3.9314    -0.0000
 18 C      6.1138     6.0000    -0.1138     3.7304     3.7304    -0.0000
 19 C      6.0176     6.0000    -0.0176     3.8670     3.8670    -0.0000
 20 C      6.0214     6.0000    -0.0214     3.8338     3.8338    -0.0000
 21 C      5.8060     6.0000     0.1940     3.8999     3.8999    -0.0000
 22 C      6.0852     6.0000    -0.0852     3.7895     3.7895    -0.0000
 23 C      6.0016     6.0000    -0.0016     3.8963     3.8963    -0.0000
 24 O      8.2685     8.0000    -0.2685     2.2781     2.2781    -0.0000
 25 C      5.8972     6.0000     0.1028     3.9314     3.9314    -0.0000
 26 H      0.9447     1.0000     0.0553     0.9863     0.9863    -0.0000
 27 H      0.9567     1.0000     0.0433     0.9841     0.9841    -0.0000
 28 H      0.9558     1.0000     0.0442     0.9842     0.9842    -0.0000
 29 H      1.0020     1.0000    -0.0020     0.9960     0.9960     0.0000
 30 H      0.9943     1.0000     0.0057     0.9996     0.9996    -0.0000
 31 H      0.9823     1.0000     0.0177     1.0124     1.0124     0.0000
 32 H      1.0090     1.0000    -0.0090     0.9991     0.9991     0.0000
 33 H      0.9949     1.0000     0.0051     0.9999     0.9999    -0.0000
 34 H      1.0019     1.0000    -0.0019     0.9960     0.9960     0.0000
 35 H      1.0090     1.0000    -0.0090     0.9991     0.9991    -0.0000
 36 H      0.9822     1.0000     0.0178     1.0128     1.0128    -0.0000
 37 H      0.9558     1.0000     0.0442     0.9842     0.9842    -0.0000
 38 H      0.9446     1.0000     0.0554     0.9863     0.9863    -0.0000
 39 H      0.9566     1.0000     0.0434     0.9842     0.9842    -0.0000
 40 H      0.9943     1.0000     0.0057     0.9992     0.9992    -0.0000
 41 H      1.0020     1.0000    -0.0020     0.9960     0.9960     0.0000
 42 H      1.0090     1.0000    -0.0090     0.9991     0.9991    -0.0000
 43 H      0.9823     1.0000     0.0177     1.0129     1.0129    -0.0000
 44 H      0.9559     1.0000     0.0441     0.9841     0.9841    -0.0000
 45 H      0.9567     1.0000     0.0433     0.9843     0.9843    -0.0000
 46 H      0.9447     1.0000     0.0553     0.9863     0.9863     0.0000

  Mayer bond orders larger than 0.100000
B(  0-C ,  1-O ) :   0.9765 B(  0-C , 26-H ) :   0.9715 B(  0-C , 27-H ) :   0.9583 
B(  0-C , 28-H ) :   0.9583 B(  1-O ,  2-C ) :   1.1544 B(  2-C ,  3-C ) :   1.3309 
B(  2-C ,  7-C ) :   1.2876 B(  3-C ,  4-C ) :   1.4035 B(  3-C , 29-H ) :   0.9788 
B(  4-C ,  5-C ) :   1.3292 B(  4-C , 30-H ) :   0.9649 B(  5-C ,  6-C ) :   1.3809 
B(  5-C ,  8-P ) :   0.8859 B(  6-C ,  7-C ) :   1.3523 B(  6-C , 31-H ) :   0.9689 
B(  7-C , 32-H ) :   0.9806 B(  8-P ,  9-O ) :   1.8691 B(  8-P , 10-C ) :   0.8853 
B(  8-P , 18-C ) :   0.8865 B( 10-C , 11-C ) :   1.3274 B( 10-C , 15-C ) :   1.3819 
B( 11-C , 12-C ) :   1.4042 B( 11-C , 33-H ) :   0.9648 B( 12-C , 13-C ) :   1.3304 
B( 12-C , 34-H ) :   0.9789 B( 13-C , 14-C ) :   1.2881 B( 13-C , 16-O ) :   1.1545 
B( 14-C , 15-C ) :   1.3513 B( 14-C , 35-H ) :   0.9807 B( 15-C , 36-H ) :   0.9689 
B( 16-O , 17-C ) :   0.9764 B( 17-C , 37-H ) :   0.9584 B( 17-C , 38-H ) :   0.9715 
B( 17-C , 39-H ) :   0.9583 B( 18-C , 19-C ) :   1.3285 B( 18-C , 23-C ) :   1.3819 
B( 19-C , 20-C ) :   1.4037 B( 19-C , 40-H ) :   0.9646 B( 20-C , 21-C ) :   1.3306 
B( 20-C , 41-H ) :   0.9789 B( 21-C , 22-C ) :   1.2881 B( 21-C , 24-O ) :   1.1543 
B( 22-C , 23-C ) :   1.3511 B( 22-C , 42-H ) :   0.9807 B( 23-C , 43-H ) :   0.9689 
B( 24-O , 25-C ) :   0.9765 B( 25-C , 44-H ) :   0.9584 B( 25-C , 45-H ) :   0.9582 
B( 25-C , 46-H ) :   0.9715 

-------
TIMINGS
-------

Total SCF time: 0 days 0 hours 0 min 9 sec 

Total time                  ....       9.995 sec
Sum of individual times     ....       9.855 sec  ( 98.6%)

SCF preparation             ....       0.151 sec  (  1.5%)
Fock matrix formation       ....       8.717 sec  ( 87.2%)
  Startup                   ....       0.044 sec  (  0.5% of F)
  Split-RI-J                ....       3.387 sec  ( 38.9% of F)
  XC integration            ....       5.131 sec  ( 58.9% of F)
    Basis function eval.    ....       1.600 sec  ( 31.2% of XC)
    Density eval.           ....       1.646 sec  ( 32.1% of XC)
    XC-Functional eval.     ....       0.140 sec  (  2.7% of XC)
    XC-Potential eval.      ....       1.008 sec  ( 19.6% of XC)
Diagonalization             ....       0.000 sec  (  0.0%)
Density matrix formation    ....       0.130 sec  (  1.3%)
Total Energy calculation    ....       0.035 sec  (  0.4%)
Population analysis         ....       0.121 sec  (  1.2%)
Orbital Transformation      ....       0.077 sec  (  0.8%)
Orbital Orthonormalization  ....       0.000 sec  (  0.0%)
DIIS solution               ....       0.087 sec  (  0.9%)
SOSCF solution              ....       0.537 sec  (  5.4%)
Finished LeanSCF after  10.0 sec

Maximum memory used throughout the entire LEANSCF-calculation: 49.8 MB


-------------------------------------------------------------------------------
                          DFT DISPERSION CORRECTION                            
                                                                               
                              DFTD3 V3.1  Rev 1                                
                          USING Becke-Johnson damping                          
-------------------------------------------------------------------------------
The BP86 functional is recognized
Active option DFTDOPT                   ...         4   

molecular C6(AA) [au] = 27178.947884 


            DFT-D V3
 parameters
 s6 scaling factor         :     1.0000 
 a1 scaling factor         :     0.3946 
 s8 scaling factor         :     3.2822 
 a2 scaling factor         :     4.8516 
 ad hoc parameters k1-k3   :    16.0000     1.3333    -4.0000 

 Edisp/kcal,au: -65.043307363381  -0.103653097066 
 E6   /kcal   : -23.946829848 
 E8   /kcal   : -41.096477515 
 % E8         :  63.183253098 

-------------------------   ----------------
Dispersion correction           -0.103653097
-------------------------   ----------------


-------------------------   --------------------
FINAL SINGLE POINT ENERGY     -1454.358076070750
-------------------------   --------------------

                                *** OPTIMIZATION RUN DONE ***



           ************************************************************
           *        Program running with 6 parallel MPI-processes     *
           *              working on a common directory               *
           ************************************************************

------------------------------------------------------------------------------
                              ORCA PROPERTY CALCULATIONS
------------------------------------------------------------------------------

GBWName                                 ... data/geom_opt_PO_BP86/70071/70071.gbw
Number of atoms                         ...     47
Number of basis functions               ...    473
Max core memory                         ...   1024 MB

Electric properties:
Dipole moment                           ... YES
Quadrupole moment                       ...  NO
Static polarizability (Dipole/Dipole)   ...  NO
Static polarizability (Dipole/Quad.)    ...  NO
Static polarizability (Quad./Quad.)     ...  NO
Static polarizability (Velocity)        ...  NO

Atomic electric properties:
Dipole moment                           ...  NO
Quadrupole moment                       ...  NO
Static polarizability                   ...  NO

Choice of electric origin               ... Center of mass
Position of electric origin             ...    -0.005391     0.017051     0.088328

General magnetic properties:
Magnetizability                         ...  NO

EPR properties:
g-Tensor (aka g-matrix)                 ...  NO
Zero-Field splitting spin-orbit         ...  NO
Zero-field splitting spin-spin          ...  NO
Hyperfine couplings                     ...  NO (   0 nuclei)
Quadrupole couplings                    ...  NO (   0 nuclei)
Contact density                         ...  NO (   0 nuclei)

NMR properties:
Chemical shifts                         ...  NO (   0 nuclei)
Spin-rotation constants                 ...  NO (   0 nuclei)
Spin-spin couplings                     ...  NO (   0 nuclei,    0 pairs)

Choice of magnetic origin               ... GIAO
Position of magnetic origin             ...     0.000000     0.000000     0.000000

Properties with geometric perturbations:
SCF Hessian                             ...  NO
IR spectrum                             ...  NO
VCD spectrum                            ...  NO
X-ray spectroscopy properties:
SCF XES/XAS/RIXS spectra                ...  NO


-------------
DIPOLE MOMENT
-------------

Method             : SCF
Type of density    : Electron Density
Multiplicity       :   1
Irrep              :   0
Energy             : -1454.2544229736831767 Eh
Relativity type    : 
Basis              : AO
                                X                 Y                 Z
Electronic contribution:     -0.075769763       0.286700302       2.302500015
Nuclear contribution   :      0.105465315      -0.365094269      -2.965310568
                        -----------------------------------------
Total Dipole Moment    :      0.029695552      -0.078393966      -0.662810553
                        -----------------------------------------
Magnitude (a.u.)       :      0.668090764
Magnitude (Debye)      :      1.698151768



--------------------
Rotational spectrum 
--------------------
 
Rotational constants in cm-1:             0.004984             0.004967             0.002862 
Rotational constants in MHz :           149.429253           148.902328            85.809762 

Dipole components along the rotational axes: 
x,y,z [a.u.] :     0.002192    -0.007960    -0.668040 
x,y,z [Debye]:     0.005572    -0.020233    -1.698022 

 

Dipole moment calculation done in   0.0 sec 

Maximum memory used throughout the entire PROP-calculation: 26.2 MB

--------------------------------
SUGGESTED CITATIONS FOR THIS RUN
--------------------------------

Below you find a list of papers that are relevant to this ORCA run
We neither can nor want to force you to cite these papers, but we appreciate if you do
You receive ORCA, which is the product of decades of hard work by many enthusiastic individuals, for free
The only thing we kindly ask in return is that you cite our papers,
We deeply appreciate it, if you show your appreciation for ORCA by not just citing the generic ORCA reference.

Please note that relegating all ORCA citations to the supporting information does *not* help us.
SI sections are not indexed - citations you put there will not count into any citation statistics
But we need these citations in order to attract the funding resources that allow us to do what we are doing

Therefore, if you are a happy ORCA user, please consider citing a few of the papers listed below in the main body of your paper

In addition to the list printed below, the program has created the file data/geom_opt_PO_BP86/70071/70071.bibtex that contains the list in bibtex format
You can import this file easily into all common literature databanks and citation aid programs


List of essential papers. We consider these as the minimum necessary citations

  1. Neese,F.
     Software update: the ORCA program system, version 5.0
     WIRES Comput. Molec. Sci., 2022 12(1)e1606
     doi.org/10.1002/wcms.1606

List of papers to cite with high priority. The work reported in these papers was absolutely
necessary for this run to complete.
Our perspective: the developers of density functionals and basis sets usually get cited in chemistry papers
Good! But without the algorithms to do something with them, the functionals or basis sets would not do anything.
Hence, in our opinion, the algorithm design and method developments papers are equally worthy of getting cited

  1. Neese,F.
     An improvement of the resolution of the identity approximation for the formation of the Coulomb matrix
     J. Comp. Chem., 2003 24(14)1740-1747
     doi.org/10.1002/jcc.10318
  2. Neese,F.
     The SHARK Integral Generation and Digestion System
     J. Comp. Chem., 2022  1-16
     doi.org/10.1002/jcc.26942
  3. Grimme,S.; Antony,J.; Ehrlich,S.; Krieg,H.
     A consistent and accurate ab initio parametrization of density functional dispersion correction (DFT-D) for the 94 elements H-Pu
     J. Chem. Phys., 2010 132 154104-XXXX
     doi.org/10.1063/1.3382344
  4. Grimme,S.; Ehrlich,S.; Goerigk,L.
     Effect of the damping function in dispersion corrected density functional theory
     J. Comput. Chem., 2011 32(7)1456-1465
     doi.org/10.1002/jcc.21759

List of suggested additional citations. These are papers that are important in the 'surrounding' of 
of this run, or papers that preceded the highly important papers. If you like your results we are grateful for a citation.

  1. Neese,F.
     The ORCA program system
     WIRES Comput. Molec. Sci., 2012 2(1)73-78
     doi.org/10.1002/wcms.81
  2. Neese,F.
     Software update: the ORCA program system, version 4.0
     WIRES Comput. Molec. Sci., 2018 8(1)1-6
     doi.org/10.1002/wcms.1327
  3. Neese,F.; Wennmohs,F.; Becker,U.; Riplinger,C.
     The ORCA quantum chemistry program package
     J. Chem. Phys., 2020 152 Art. No. L224108
     doi.org/10.1063/5.0004608

List of optional additional citations

  1. Neese,F.
     Approximate second-order SCF convergence for spin unrestricted wavefunctions
     Chem. Phys. Lett., 2000 325(1-3)93-98
     doi.org/10.1016/s0009-2614(00)00662-x

Timings for individual modules:

Sum of individual times          ...      176.454 sec (=   2.941 min)
Startup calculation              ...       13.061 sec (=   0.218 min)   7.4 %
SCF iterations                   ...      114.160 sec (=   1.903 min)  64.7 %
Property calculations            ...        0.196 sec (=   0.003 min)   0.1 %
SCF Gradient evaluation          ...       48.876 sec (=   0.815 min)  27.7 %
Geometry relaxation              ...        0.161 sec (=   0.003 min)   0.1 %
                             ****ORCA TERMINATED NORMALLY****
TOTAL RUN TIME: 0 days 0 hours 2 minutes 57 seconds 928 msec
