
                                 *****************
                                 * O   R   C   A *
                                 *****************

                                            #,                                       
                                            ###                                      
                                            ####                                     
                                            #####                                    
                                            ######                                   
                                           ########,                                 
                                     ,,################,,,,,                         
                               ,,#################################,,                 
                          ,,##########################################,,             
                       ,#########################################, ''#####,          
                    ,#############################################,,   '####,        
                  ,##################################################,,,,####,       
                ,###########''''           ''''###############################       
              ,#####''   ,,,,##########,,,,          '''####'''          '####       
            ,##' ,,,,###########################,,,                        '##       
           ' ,,###''''                  '''############,,,                           
         ,,##''                                '''############,,,,        ,,,,,,###''
      ,#''                                            '''#######################'''  
     '                                                          ''''####''''         
             ,#######,   #######,   ,#######,      ##                                
            ,#'     '#,  ##    ##  ,#'     '#,    #''#        ,####,   ,####,        
            ##       ##  ##   ,#'  ##            #'  '#       #'       #'  '#        
            ##       ##  #######   ##           ,######,      #####,   #    #        
            '#,     ,#'  ##    ##  '#,     ,#' ,#      #,     #,   #   #,  ,#        
             '#######'   ##     ##  '#######'  #'      '#     '####' # '####'        



                #########################################################
                #                        -***-                          #
                #          Department of theory and spectroscopy        #
                #                                                       #
                #                      Frank Neese                      #
                #                                                       #
                #     Directorship, Architecture, Infrastructure        #
                #                    SHARK, DRIVERS                     #
                #        Core code/Algorithms in most modules           #
                #                                                       #
                #        Max Planck Institute fuer Kohlenforschung      #
                #                Kaiser Wilhelm Platz 1                 #
                #                 D-45470 Muelheim/Ruhr                 #
                #                      Germany                          #
                #                                                       #
                #                  All rights reserved                  #
                #                        -***-                          #
                #########################################################


                         Program Version 6.0.0  -   RELEASE   -


 With contributions from (in alphabetic order):
   Daniel Aravena         : Magnetic Suceptibility
   Michael Atanasov       : Ab Initio Ligand Field Theory (pilot matlab implementation)
   Alexander A. Auer      : GIAO ZORA, VPT2 properties, NMR spectrum
   Ute Becker             : All parallelization in ORCA, NUMFREQ, NUMCALC
   Giovanni Bistoni       : ED, misc. LED, open-shell LED, HFLD
   Martin Brehm           : Molecular dynamics
   Dmytro Bykov           : pre 5.0 version of the SCF Hessian
   Marcos Casanova-Páez   : Triplet and SCS-CIS(D). UHF-(DLPNO)-IP/EA/STEOM-CCSD. UHF-CVS-IP/STEOM-CCSD
   Vijay G. Chilkuri      : MRCI spin determinant printing, contributions to CSF-ICE
   Pauline Colinet        : FMM embedding
   Dipayan Datta          : RHF DLPNO-CCSD density
   Achintya Kumar Dutta   : EOM-CC, STEOM-CC
   Nicolas Foglia         : Exact transition moments, OPA infrastructure, MCD improvements
   Dmitry Ganyushin       : Spin-Orbit,Spin-Spin,Magnetic field MRCI
   Miquel Garcia          : C-PCM and meta-GGA Hessian, CCSD/C-PCM, Gaussian charge scheme
   Tiago L. C. Gouveia    : GS-ROHF, GS-ROCIS
   Yang Guo               : DLPNO-NEVPT2, F12-NEVPT2, CIM, IAO-localization
   Andreas Hansen         : Spin unrestricted coupled pair/coupled cluster methods
   Ingolf Harden          : AUTO-CI MPn and infrastructure 
   Benjamin Helmich-Paris : MC-RPA, TRAH-(SCF,CASSCF), AVAS, COSX integrals, SCF dyn. polar.
   Lee Huntington         : MR-EOM, pCC
   Robert Izsak           : Overlap fitted RIJCOSX, COSX-SCS-MP3, EOM
   Riya Kayal             : Wick's Theorem for AUTO-CI, AUTO-CI UHF-CCSDT
   Emily Kempfer          : AUTO-CI, RHF CISDT and CCSDT
   Christian Kollmar      : KDIIS, OOCD, Brueckner-CCSD(T), CCSD density, CASPT2, CASPT2-K, improved NEVPT2
   Axel Koslowski         : Symmetry handling
   Simone Kossmann        : Meta GGA functionals, TD-DFT gradient, OOMP2, (MP2 Hessian; deprecated post 5.0)
   Lucas Lang             : DCDCAS
   Marvin Lechner         : AUTO-CI (C++ implementation), FIC-MRCC
   Spencer Leger          : CASSCF response
   Dagmar Lenk            : GEPOL surface, SMD, ORCA-2-JSON
   Dimitrios Liakos       : Extrapolation schemes; Compound Job, initial MDCI parallelization
   Dimitrios Manganas     : Further ROCIS development; embedding schemes. LFT, Crystal Embedding
   Dimitrios Pantazis     : SARC Basis sets
   Anastasios Papadopoulos: AUTO-CI, single reference methods and gradients
   Taras Petrenko         : pre 6.0 DFT Hessian and TD-DFT gradient, (ASA, deprecated), ECA, 1-Electron XAS/XES, NRVS
   Peter Pinski           : DLPNO-MP2, DLPNO-MP2 Gradient
   Christoph Reimann      : Effective Core Potentials
   Marius Retegan         : Local ZFS, SOC
   Christoph Riplinger    : Optimizer, TS searches, QM/MM, DLPNO-CCSD(T), (RO)-DLPNO pert. Triples
   Michael Roemelt        : Original ROCIS implementation
   Masaaki Saitow         : Open-shell DLPNO-CCSD energy and density
   Barbara Sandhoefer     : DKH picture change effects
   Kantharuban Sivalingam : CASSCF convergence/infrastructure, NEVPT2 and variants, FIC-MRCI
   Bernardo de Souza      : ESD, SOC TD-DFT
   Georgi Stoychev        : AutoAux, RI-MP2 NMR, DLPNO-MP2 response, X2C
   Van Anh Tran           : RI-MP2 g-tensors
   Willem Van den Heuvel  : Paramagnetic NMR
   Zikuan Wang            : NOTCH, Electric field optimization 
   Frank Wennmohs         : Technical directorship and infrastructure
   Hang Xu                : AUTO-CI-Response properties 


 We gratefully acknowledge several colleagues who have allowed us to
 interface, adapt or use parts of their codes:
   Stefan Grimme, W. Hujo, H. Kruse, P. Pracht,  : VdW corrections, initial TS optimization,
                  C. Bannwarth, S. Ehlert,         DFT functionals, gCP, sTDA/sTD-DF
                  L. Wittmann, M. Mueller
   Ed Valeev, F. Pavosevic, A. Kumar             : LibInt (2-el integral package), F12 methods
   Garnet Chan, S. Sharma, J. Yang, R. Olivares  : DMRG
   Ulf Ekstrom                                   : XCFun DFT Library
   Mihaly Kallay                                 : mrcc  (arbitrary order and MRCC methods)
   Frank Weinhold                                : gennbo (NPA and NBO analysis)
   Simon Mueller                                 : openCOSMO-RS
   Christopher J. Cramer and Donald G. Truhlar   : smd solvation model
   Lars Goerigk                                  : TD-DFT with DH, B97 family of functionals
   V. Asgeirsson, H. Jonsson                     : NEB implementation
   FAccTs GmbH                                   : IRC, NEB, NEB-TS, DLPNO-Multilevel, CI-OPT
                                                   MM, QMMM, 2- and 3-layer-ONIOM, Crystal-QMMM,
                                                   LR-CPCM, SF, NACMEs, symmetry and pop. for TD-DFT,
                                                   nearIR, NL-DFT gradient (VV10), updates on ESD,
                                                   ML-optimized integration grids, MBIS, APM,
                                                   GOAT, DOCKER, SOLVATOR, interface openCOSMO-RS
   S Lehtola, MJT Oliveira, MAL Marques          : LibXC Library
   Liviu Ungur et al                             : ANISO software


 Your calculation uses the libint2 library for the computation of 2-el integrals
 For citations please refer to: http://libint.valeyev.net

 Your ORCA version has been built with support for libXC version: 6.2.2
 For citations please refer to: https://libxc.gitlab.io

 This ORCA versions uses:
   CBLAS   interface :  Fast vector & matrix operations
   LAPACKE interface :  Fast linear algebra routines
   Shared memory     :  Shared parallel matrices


Your calculation utilizes the atom-pairwise dispersion correction
with the Becke-Johnson damping scheme (D3BJ)


Warning: RI is on but no J-basis has been assigned. Assigning Def2/J (nothing to worry about!)
================================================================================

----- Orbital basis set information -----
Your calculation utilizes the basis: def2-SVP
   F. Weigend and R. Ahlrichs, Phys. Chem. Chem. Phys. 7, 3297 (2005).

----- AuxJ basis set information -----
Your calculation utilizes the auxiliary basis: def2/J
   F. Weigend, Phys. Chem. Chem. Phys. 8, 1057 (2006).

================================================================================
                                        WARNINGS
                       Please study these warnings very carefully!
================================================================================


WARNING: Geometry Optimization
  ===> : Switching off AutoStart
         For restart on a previous wavefunction, please use MOREAD

================================================================================
                                       INPUT FILE
================================================================================
NAME = data/geom_opt/76001/76001.inp
|  1> ! RIJONX B3LYP def2-SVP D3BJ TIGHTSCF Opt
|  2> %pal
|  3> nprocs 6
|  4> end
|  5> 
|  6> * xyz 0 1
|  7> C     -0.233815    1.589409   -0.238579
|  8> O     -1.507464    2.218849   -0.220496
|  9> P     -0.176268   -0.014496    0.658466
| 10> C      1.520881   -0.539231    0.184281
| 11> O      2.555214    0.196624    0.822542
| 12> C     -1.129033   -1.037181   -0.536049
| 13> O     -1.148269   -2.423739   -0.226548
| 14> H      0.480833    2.284633    0.213647
| 15> H      0.055577    1.464883   -1.286643
| 16> H     -1.778948    2.226238    0.713391
| 17> H      1.661369   -1.593377    0.444296
| 18> H      1.673246   -0.449772   -0.895753
| 19> H      2.337412    0.179902    1.770269
| 20> H     -0.729770   -0.932950   -1.549665
| 21> H     -2.168145   -0.693390   -0.561031
| 22> H     -1.412821   -2.476401    0.707873
| 23> **                         ****END OF INPUT****
================================================================================

                       *****************************
                       * Geometry Optimization Run *
                       *****************************

Geometry optimization settings:
Update method            Update   .... BFGS
Choice of coordinates    CoordSys .... (2022) Redundant Internals
Initial Hessian          InHess   .... Almloef's Model
Max. no of cycles        MaxIter  .... 50

Convergence Tolerances:
Energy Change            TolE     ....  5.0000e-06 Eh
Max. Gradient            TolMAXG  ....  3.0000e-04 Eh/bohr
RMS Gradient             TolRMSG  ....  1.0000e-04 Eh/bohr
Max. Displacement        TolMAXD  ....  4.0000e-03 bohr
RMS Displacement         TolRMSD  ....  2.0000e-03 bohr
Strict Convergence                .... False

------------------------------------------------------------------------------
                        ORCA OPTIMIZATION COORDINATE SETUP
------------------------------------------------------------------------------

The optimization will be done in redundant internal coordinates (2022)
Making redundant internal coordinates   ...  (2022 redundants) done
Evaluating the initial hessian          ...  (Almloef) done
Evaluating the coordinates              ...  done
Calculating the B-matrix                .... done
Calculating the G-matrix                .... done
Diagonalizing the G-matrix              .... done
The first mode is                       ....   21
The number of degrees of freedom        ....   42

    -----------------------------------------------------------------
                    Redundant Internal Coordinates


    -----------------------------------------------------------------
         Definition                    Initial Value    Approx d2E/dq
    -----------------------------------------------------------------
      1. B(O   1,C   0)                  1.4208         0.499711   
      2. B(P   2,C   0)                  1.8386         0.404104   
      3. B(C   3,P   2)                  1.8386         0.404103   
      4. B(O   4,C   3)                  1.4208         0.499710   
      5. B(C   5,P   2)                  1.8386         0.404104   
      6. B(O   6,C   5)                  1.4208         0.499710   
      7. B(H   7,C   0)                  1.0948         0.353818   
      8. B(H   8,C   0)                  1.0944         0.354337   
      9. B(H   9,O   1)                  0.9726         0.496482   
     10. B(H  10,C   3)                  1.0948         0.353817   
     11. B(H  11,C   3)                  1.0944         0.354338   
     12. B(H  12,O   4)                  0.9726         0.496481   
     13. B(H  13,C   5)                  1.0944         0.354337   
     14. B(H  14,C   5)                  1.0948         0.353816   
     15. B(H  15,O   6)                  0.9726         0.496481   
     16. A(P   2,C   0,H   7)          109.3901         0.347859   
     17. A(P   2,C   0,H   8)          111.0819         0.347945   
     18. A(H   7,C   0,H   8)          107.1712         0.289304   
     19. A(O   1,C   0,P   2)          114.0986         0.409960   
     20. A(O   1,C   0,H   7)          107.3721         0.337276   
     21. A(O   1,C   0,H   8)          107.4360         0.337358   
     22. A(C   0,O   1,H   9)          105.4153         0.353937   
     23. A(C   3,P   2,C   5)           98.7443         0.423642   
     24. A(C   0,P   2,C   3)           98.7444         0.423642   
     25. A(C   0,P   2,C   5)           98.7444         0.423642   
     26. A(O   4,C   3,H  10)          107.3720         0.337275   
     27. A(P   2,C   3,H  10)          109.3901         0.347859   
     28. A(P   2,C   3,O   4)          114.0986         0.409960   
     29. A(P   2,C   3,H  11)          111.0819         0.347945   
     30. A(H  10,C   3,H  11)          107.1713         0.289304   
     31. A(O   4,C   3,H  11)          107.4360         0.337358   
     32. A(C   3,O   4,H  12)          105.4153         0.353937   
     33. A(P   2,C   5,O   6)          114.0986         0.409960   
     34. A(O   6,C   5,H  14)          107.3720         0.337275   
     35. A(P   2,C   5,H  14)          109.3901         0.347859   
     36. A(O   6,C   5,H  13)          107.4360         0.337358   
     37. A(H  13,C   5,H  14)          107.1713         0.289304   
     38. A(P   2,C   5,H  13)          111.0819         0.347945   
     39. A(C   5,O   6,H  15)          105.4152         0.353937   
     40. D(H   9,O   1,C   0,P   2)     50.3394         0.019741   
     41. D(H   9,O   1,C   0,H   8)    173.9471         0.019741   
     42. D(H   9,O   1,C   0,H   7)    -71.0609         0.019741   
     43. D(C   5,P   2,C   0,O   1)     72.4596         0.003712   
     44. D(C   3,P   2,C   0,H   7)    -66.9355         0.003712   
     45. D(C   3,P   2,C   0,O   1)    172.7875         0.003712   
     46. D(C   5,P   2,C   0,H   7)   -167.2634         0.003712   
     47. D(C   3,P   2,C   0,H   8)     51.1712         0.003712   
     48. D(H  11,C   3,P   2,C   0)    -49.1568         0.003712   
     49. D(H  10,C   3,P   2,C   5)    -66.9356         0.003712   
     50. D(H  10,C   3,P   2,C   0)   -167.2635         0.003712   
     51. D(O   4,C   3,P   2,C   5)    172.7876         0.003712   
     52. D(O   4,C   3,P   2,C   0)     72.4596         0.003712   
     53. D(H  12,O   4,C   3,H  10)    -71.0608         0.019741   
     54. D(H  12,O   4,C   3,P   2)     50.3394         0.019741   
     55. D(H  12,O   4,C   3,H  11)    173.9472         0.019741   
     56. D(H  14,C   5,P   2,C   0)    -66.9356         0.003712   
     57. D(H  13,C   5,P   2,C   3)    -49.1567         0.003712   
     58. D(H  13,C   5,P   2,C   0)     51.1712         0.003712   
     59. D(O   6,C   5,P   2,C   3)     72.4597         0.003712   
     60. D(O   6,C   5,P   2,C   0)    172.7876         0.003712   
     61. D(H  15,O   6,C   5,H  14)    -71.0609         0.019741   
     62. D(H  15,O   6,C   5,H  13)    173.9471         0.019741   
     63. D(H  15,O   6,C   5,P   2)     50.3393         0.019741   
    -----------------------------------------------------------------

Number of atoms                         .... 16
Number of degrees of freedom            .... 63


         *************************************************************
         *                GEOMETRY OPTIMIZATION CYCLE   1            *
         *************************************************************
---------------------------------
CARTESIAN COORDINATES (ANGSTROEM)
---------------------------------
  C     -0.233815    1.589409   -0.238579
  O     -1.507464    2.218849   -0.220496
  P     -0.176268   -0.014496    0.658466
  C      1.520881   -0.539231    0.184281
  O      2.555214    0.196624    0.822542
  C     -1.129033   -1.037181   -0.536049
  O     -1.148269   -2.423739   -0.226548
  H      0.480833    2.284633    0.213647
  H      0.055577    1.464883   -1.286643
  H     -1.778948    2.226238    0.713391
  H      1.661369   -1.593377    0.444296
  H      1.673246   -0.449772   -0.895753
  H      2.337412    0.179902    1.770269
  H     -0.729770   -0.932950   -1.549665
  H     -2.168145   -0.693390   -0.561031
  H     -1.412821   -2.476401    0.707873

----------------------------
CARTESIAN COORDINATES (A.U.)
----------------------------
  NO LB      ZA    FRAG     MASS         X           Y           Z
   0 C     6.0000    0    12.011   -0.441846    3.003548   -0.450849
   1 O     8.0000    0    15.999   -2.848694    4.193017   -0.416677
   2 P    15.0000    0    30.974   -0.333098   -0.027393    1.244320
   3 C     6.0000    0    12.011    2.874049   -1.018999    0.348241
   4 O     8.0000    0    15.999    4.828655    0.371566    1.554379
   5 C     6.0000    0    12.011   -2.133563   -1.959988   -1.012986
   6 O     8.0000    0    15.999   -2.169914   -4.580203   -0.428114
   7 H     1.0000    0     1.008    0.908643    4.317331    0.403734
   8 H     1.0000    0     1.008    0.105025    2.768228   -2.431403
   9 H     1.0000    0     1.008   -3.361725    4.206980    1.348114
  10 H     1.0000    0     1.008    3.139532   -3.011046    0.839598
  11 H     1.0000    0     1.008    3.161977   -0.849946   -1.692728
  12 H     1.0000    0     1.008    4.417069    0.339966    3.345324
  13 H     1.0000    0     1.008   -1.379065   -1.763020   -2.928442
  14 H     1.0000    0     1.008   -4.097200   -1.310317   -1.060195
  15 H     1.0000    0     1.008   -2.669845   -4.679720    1.337686

--------------------------------
INTERNAL COORDINATES (ANGSTROEM)
--------------------------------
 C      0   0   0     0.000000000000     0.00000000     0.00000000
 O      1   0   0     1.420810854298     0.00000000     0.00000000
 P      1   2   0     1.838617045026   114.09862250     0.00000000
 C      3   1   2     1.838617133242    98.74435111   172.78752162
 O      4   3   1     1.420811190847   114.09859534    72.45963456
 C      3   1   2     1.838616827856    98.74437777    72.45963271
 O      6   3   1     1.420811028976   114.09863418   172.78757501
 H      1   2   3     1.094790632567   107.37206386   238.59976210
 H      1   2   3     1.094391430173   107.43599834   123.60772703
 H      2   1   3     0.972575492363   105.41531661    50.33936070
 H      4   3   1     1.094791517909   109.39013835   192.73648988
 H      4   3   1     1.094390902311   111.08188607   310.84322717
 H      5   4   3     0.972575859775   105.41525028    50.33938264
 H      6   3   1     1.094391355954   111.08189469    51.17118384
 H      6   3   1     1.094792263651   109.39012381   293.06443078
 H      7   6   3     0.972575782234   105.41523846    50.33927777

---------------------------
INTERNAL COORDINATES (A.U.)
---------------------------
 C      0   0   0     0.000000000000     0.00000000     0.00000000
 O      1   0   0     2.684943402725     0.00000000     0.00000000
 P      1   2   0     3.474482680258   114.09862250     0.00000000
 C      3   1   2     3.474482846963    98.74435111   172.78752162
 O      4   3   1     2.684944038711   114.09859534    72.45963456
 C      3   1   2     3.474482269867    98.74437777    72.45963271
 O      6   3   1     2.684943732820   114.09863418   172.78757501
 H      1   2   3     2.068854469534   107.37206386   238.59976210
 H      1   2   3     2.068100086337   107.43599834   123.60772703
 H      2   1   3     1.837901325131   105.41531661    50.33936070
 H      4   3   1     2.068856142588   109.39013835   192.73648988
 H      4   3   1     2.068099088824   111.08188607   310.84322717
 H      5   4   3     1.837902019438   105.41525028    50.33938264
 H      6   3   1     2.068099946083   111.08189469    51.17118384
 H      6   3   1     2.068857551835   109.39012381   293.06443078
 H      7   6   3     1.837901872907   105.41523846    50.33927777

---------------------
BASIS SET INFORMATION
---------------------
There are 4 groups of distinct atoms

 Group   1 Type C   : 7s4p1d contracted to 3s2p1d pattern {511/31/1}
 Group   2 Type O   : 7s4p1d contracted to 3s2p1d pattern {511/31/1}
 Group   3 Type P   : 10s7p1d contracted to 4s3p1d pattern {5311/511/1}
 Group   4 Type H   : 4s1p contracted to 2s1p pattern {31/1}

Atom   0C    basis set group =>   1
Atom   1O    basis set group =>   2
Atom   2P    basis set group =>   3
Atom   3C    basis set group =>   1
Atom   4O    basis set group =>   2
Atom   5C    basis set group =>   1
Atom   6O    basis set group =>   2
Atom   7H    basis set group =>   4
Atom   8H    basis set group =>   4
Atom   9H    basis set group =>   4
Atom  10H    basis set group =>   4
Atom  11H    basis set group =>   4
Atom  12H    basis set group =>   4
Atom  13H    basis set group =>   4
Atom  14H    basis set group =>   4
Atom  15H    basis set group =>   4
---------------------------------
AUXILIARY/J BASIS SET INFORMATION
---------------------------------
There are 4 groups of distinct atoms

 Group   1 Type C   : 12s5p4d2f1g contracted to 6s4p3d1f1g pattern {711111/2111/211/2/1}
 Group   2 Type O   : 12s5p4d2f1g contracted to 6s4p3d1f1g pattern {711111/2111/211/2/1}
 Group   3 Type P   : 14s5p5d2f1g contracted to 8s4p3d1f1g pattern {71111111/2111/311/2/1}
 Group   4 Type H   : 5s2p1d contracted to 3s1p1d pattern {311/2/1}

Atom   0C    basis set group =>   1
Atom   1O    basis set group =>   2
Atom   2P    basis set group =>   3
Atom   3C    basis set group =>   1
Atom   4O    basis set group =>   2
Atom   5C    basis set group =>   1
Atom   6O    basis set group =>   2
Atom   7H    basis set group =>   4
Atom   8H    basis set group =>   4
Atom   9H    basis set group =>   4
Atom  10H    basis set group =>   4
Atom  11H    basis set group =>   4
Atom  12H    basis set group =>   4
Atom  13H    basis set group =>   4
Atom  14H    basis set group =>   4
Atom  15H    basis set group =>   4


           ************************************************************
           *        Program running with 6 parallel MPI-processes     *
           *              working on a common directory               *
           ************************************************************
------------------------------------------------------------------------------
                             ORCA STARTUP CALCULATIONS
                           -- RI-GTO INTEGRALS CHOSEN --
------------------------------------------------------------------------------
------------------------------------------------------------------------------
                   ___                                                        
                  /   \      - P O W E R E D   B Y -                         
                 /     \                                                     
                 |  |  |   _    _      __       _____    __    __             
                 |  |  |  | |  | |    /  \     |  _  \  |  |  /  |          
                  \  \/   | |  | |   /    \    | | | |  |  | /  /          
                 / \  \   | |__| |  /  /\  \   | |_| |  |  |/  /          
                |  |  |   |  __  | /  /__\  \  |    /   |      \           
                |  |  |   | |  | | |   __   |  |    \   |  |\   \          
                \     /   | |  | | |  |  |  |  | |\  \  |  | \   \       
                 \___/    |_|  |_| |__|  |__|  |_| \__\ |__|  \__/        
                                                                              
                      - O R C A' S   B I G   F R I E N D -                    
                                      &                                       
                       - I N T E G R A L  F E E D E R -                       
                                                                              
 v1 FN, 2020, v2 2021, v3 2022-2024                                           
------------------------------------------------------------------------------


----------------------
SHARK INTEGRAL PACKAGE
----------------------

Number of atoms                             ...     16
Number of basis functions                   ...    147
Number of shells                            ...     71
Maximum angular momentum                    ...      2
Integral batch strategy                     ... SHARK/LIBINT Hybrid
RI-J (if used) integral strategy            ... SPLIT-RIJ (Revised 2003 algorithm where possible)
Printlevel                                  ...      1
Contraction scheme used                     ... SEGMENTED contraction
Prescreening option                         ... SCHWARTZ
   Thresh                                   ... 2.500e-11
   Tcut                                     ... 2.500e-12
   Tpresel                                  ... 2.500e-12 
Coulomb Range Separation                    ... NOT USED
Exchange Range Separation                   ... NOT USED
Multipole approximations                    ... NOT USED
Finite Nucleus Model                        ... NOT USED
CABS basis                                  ... NOT available
Auxiliary Coulomb fitting basis             ... AVAILABLE
   # of basis functions in Aux-J            ...    444
   # of shells in Aux-J                     ...    152
   Maximum angular momentum in Aux-J        ...      4
Auxiliary J/K fitting basis                 ... NOT available
Auxiliary Correlation fitting basis         ... NOT available
Auxiliary 'external' fitting basis          ... NOT available

Checking pre-screening integrals            ... done (  0.0 sec) Dimension = 71
Check shell pair data                       ... done (  0.0 sec)
Shell pair information
Shell pair cut-off parameter TPreSel        ...   2.5e-12
Total number of shell pairs                 ...      2556
Shell pairs after pre-screening             ...      2383
Total number of primitive shell pairs       ...      9308
Primitive shell pairs kept                  ...      6375
          la=0 lb=0:    772 shell pairs
          la=1 lb=0:    900 shell pairs
          la=1 lb=1:    279 shell pairs
          la=2 lb=0:    254 shell pairs
          la=2 lb=1:    153 shell pairs
          la=2 lb=2:     25 shell pairs

Calculating one electron integrals          ... done (  0.0 sec)
Calculating RI/J V-Matrix + Cholesky decomp.... done (  0.0 sec)
Calculating Nuclear repulsion               ... done (  0.0 sec) ENN=    402.579932731925 Eh

Diagonalization of the overlap matrix:
Smallest eigenvalue                        ... 2.353e-03
Time for diagonalization                   ...    0.003 sec
Threshold for overlap eigenvalues          ... 1.000e-07
Number of eigenvalues below threshold      ... 0
Time for construction of square roots      ...    0.002 sec
Total time needed                          ...    0.005 sec

-------------------
DFT GRID GENERATION
-------------------

General Integration Accuracy     IntAcc      ... 4.388
Radial Grid Type                 RadialGrid  ... OptM3 with GC (2021)
Angular Grid (max. ang.)         AngularGrid ... 4 (Lebedev-302)
Angular grid pruning method      GridPruning ... 4 (adaptive)
Weight generation scheme         WeightScheme... mBecke (2022)
Basis function cutoff            BFCut       ... 1.0000e-11
Integration weight cutoff        WCut        ... 1.0000e-14
Partially contracted basis set               ... off
Rotationally invariant grid construction     ... off
Angular grids for H and He will be reduced by one unit

Total number of grid points                  ...    72612
Total number of batches                      ...     1144
Average number of points per batch           ...       63
Average number of grid points per atom       ...     4538
Initializing property integral containers    ... done (  0.0 sec)

SHARK setup successfully completed in   0.4 seconds

Maximum memory used throughout the entire STARTUP-calculation: 19.1 MB


           ************************************************************
           *        Program running with 6 parallel MPI-processes     *
           *              working on a common directory               *
           ************************************************************
-------------------------------------------------------------------------------
                                 ORCA GUESS
                   Start orbitals & Density for SCF / CASSCF
-------------------------------------------------------------------------------

------------
SCF SETTINGS
------------
Hamiltonian:
 Density Functional     Method          .... DFT(GTOs)
 Exchange Functional    Exchange        .... B88
   X-Alpha parameter    XAlpha          ....  0.666667
   Becke's b parameter  XBeta           ....  0.004200
 Correlation Functional Correlation     .... LYP
 LDA part of GGA corr.  LDAOpt          .... VWN-5
 Gradients option       PostSCFGGA      .... off
 Hybrid DFT is turned on
   Fraction HF Exchange ScalHFX         ....  0.200000
   Scaling of DF-GGA-X  ScalDFX         ....  0.720000
   Scaling of DF-GGA-C  ScalDFC         ....  0.810000
   Scaling of DF-LDA-C  ScalLDAC        ....  1.000000
   Perturbative correction              ....  0.000000
   NL short-range parameter             ....  4.800000
 RI-approximation to the Coulomb term is turned on
   Number of AuxJ basis functions       .... 444
   RIJ-ON(X) (HFX calculated with O(N)) .... on


General Settings:
 Integral files         IntName         .... data/geom_opt/76001/76001
 Hartree-Fock type      HFTyp           .... RHF
 Total Charge           Charge          ....    0
 Multiplicity           Mult            ....    1
 Number of Electrons    NEL             ....   66
 Basis Dimension        Dim             ....  147
 Nuclear Repulsion      ENuc            ....    402.5799327319 Eh

Convergence Acceleration:
 AO-DIIS                CNVDIIS         .... on
   Start iteration      DIISMaxIt       ....    12
   Startup error        DIISStart       ....  0.200000
   # of expansion vecs  DIISMaxEq       ....     5
   Bias factor          DIISBfac        ....   1.050
   Max. coefficient     DIISMaxC        ....  10.000
 MO-DIIS                CNVKDIIS        .... off
 Trust-Rad. Augm. Hess. CNVTRAH         .... auto
   Auto Start mean grad. ratio tolernc. ....  1.125000
   Auto Start start iteration           ....    50
   Auto Start num. interpolation iter.  ....    10
   Max. Number of Micro iterations      ....    24
   Max. Number of Macro iterations      .... Maxiter - #DIIS iter
   Number of Davidson start vectors     ....     2
   Converg. threshold    (grad. norm)   ....   1.000e-05
   Grad. Scal. Fac. for Micro threshold ....   0.100
   Minimum threshold for Micro iter.    ....   1.000e-02
   NR start threshold (gradient norm)   ....   1.000e-04
   Initial trust radius                 ....   0.400
   Minimum AH scaling param. (alpha)    ....   1.000
   Maximum AH scaling param. (alpha)    .... 1000.000
   Quad. conv. algorithm                .... NR
   White noise on init. David. guess    .... on
   Maximum white noise                  ....   0.010
   Pseudo random numbers                .... off
   Inactive MOs                         .... canonical
   Orbital update algorithm             .... Taylor
   Preconditioner                       .... Diag
   Full preconditioner red. dimension   ....   250
   COSX micro iterations for RIJONX calc.... off
 SOSCF                  CNVSOSCF        .... on
   Start iteration      SOSCFMaxIt      ....   150
   Startup grad/error   SOSCFStart      ....  0.003300
   Hessian update       SOSCFHessUp     .... L-BFGS
 Level Shifting         CNVShift        .... on
   Level shift para.    LevelShift      ....    0.2500
   Turn off err/grad.   ShiftErr        ....    0.0010
 Zerner damping         CNVZerner       .... off
 Static damping         CNVDamp         .... on
   Fraction old density DampFac         ....    0.7000
   Max. Damping (<1)    DampMax         ....    0.9800
   Min. Damping (>=0)   DampMin         ....    0.0000
   Turn off err/grad.   DampErr         ....    0.1000

SCF Procedure:
 Maximum # iterations   MaxIter         ....   125
 SCF integral mode      SCFMode         .... Direct
   Integral package                     .... SHARK and LIBINT hybrid scheme
 Reset frequency        DirectResetFreq ....    20
 Integral Threshold     Thresh          ....  2.500e-11 Eh
 Primitive CutOff       TCut            ....  2.500e-12 Eh

Convergence Tolerance:
 Convergence Check Mode ConvCheckMode   .... Total+1el-Energy
 Convergence forced     ConvForced      .... 0
 Energy Change          TolE            ....  1.000e-08 Eh
 1-El. energy change                    ....  1.000e-05 Eh
 Orbital Gradient       TolG            ....  1.000e-05
 Orbital Rotation angle TolX            ....  1.000e-05
 DIIS Error             TolErr          ....  5.000e-07

------------------------------
INITIAL GUESS: MODEL POTENTIAL
------------------------------
Loading Hartree-Fock densities                     ... done
Calculating cut-offs                               ... done
Initializing the effective Hamiltonian             ... done
Setting up the integral package (SHARK)            ... done
Starting the Coulomb interaction                   ... done (   0.0 sec)
Making the grid                                    ... done (   0.1 sec)
Mapping shells                                     ... done
Starting the XC term evaluation                    ... done (   0.0 sec)
  promolecular density results
     # of electrons  =     65.996330161
     EX              =    -65.340711980
     EC              =     -2.350252924
     EX+EC           =    -67.690964903
Transforming the Hamiltonian                       ... done (   0.0 sec)
Diagonalizing the Hamiltonian                      ... done (   0.0 sec)
Back transforming the eigenvectors                 ... done (   0.0 sec)
Now organizing SCF variables                       ... done
                      ------------------
                      INITIAL GUESS DONE (   0.1 sec)
                      ------------------
             **** ENERGY FILE WAS UPDATED (data/geom_opt/76001/76001.en.tmp) ****
Finished Guess after   0.2 sec
Maximum memory used throughout the entire GUESS-calculation: 10.5 MB


           ************************************************************
           *        Program running with 6 parallel MPI-processes     *
           *              working on a common directory               *
           ************************************************************

-------------------------------------------------------------------------------------------
                                      ORCA LEAN-SCF
                              memory conserving SCF solver
-------------------------------------------------------------------------------------------

----------------------------------------D-I-I-S--------------------------------------------
Iteration    Energy (Eh)           Delta-E    RMSDP     MaxDP     DIISErr   Damp  Time(sec)
-------------------------------------------------------------------------------------------
               ***  Starting incremental Fock matrix formation  ***
    1    -685.8680633576900618     0.00e+00  3.85e-03  7.45e-02  2.50e-01  0.700   0.5
    2    -685.9831485211570907    -1.15e-01  2.52e-03  5.11e-02  1.10e-01  0.700   0.5
                               ***Turning on AO-DIIS***
    3    -686.0248477202821960    -4.17e-02  1.13e-03  4.41e-02  3.00e-02  0.700   0.4
    4    -686.0507613593777023    -2.59e-02  2.14e-03  9.60e-02  1.37e-02  0.000   0.3
    5    -686.1090588408044368    -5.83e-02  3.31e-04  1.40e-02  4.08e-03  0.000   0.4
                              *** Initializing SOSCF ***
---------------------------------------S-O-S-C-F--------------------------------------
Iteration    Energy (Eh)           Delta-E    RMSDP     MaxDP     MaxGrad    Time(sec)
--------------------------------------------------------------------------------------
    6    -686.1092455421098748    -1.87e-04  9.71e-05  2.20e-03  9.51e-04     0.3
               *** Restarting incremental Fock matrix formation ***
    7    -686.1092578635514201    -1.23e-05  7.02e-05  2.21e-03  1.55e-04     0.4
    8    -686.1092593278372078    -1.46e-06  2.19e-05  5.35e-04  1.15e-04     0.4
    9    -686.1092598686775546    -5.41e-07  1.23e-05  4.23e-04  4.29e-05     0.3
   10    -686.1092599322669230    -6.36e-08  3.69e-06  1.48e-04  2.65e-05     0.3
   11    -686.1092599516641712    -1.94e-08  2.02e-06  5.60e-05  1.48e-05     0.3
   12    -686.1092599544733730    -2.81e-09  1.20e-06  6.26e-05  4.30e-06     0.3
                 **** Energy Check signals convergence ****

               *****************************************************
               *                     SUCCESS                       *
               *           SCF CONVERGED AFTER  12 CYCLES          *
               *****************************************************

             **** ENERGY FILE WAS UPDATED (data/geom_opt/76001/76001.en.tmp) ****

----------------
TOTAL SCF ENERGY
----------------

Total Energy       :       -686.10925995447337 Eh          -18669.98213 eV

Components:
Nuclear Repulsion  :        402.57993273192460 Eh           10954.75690 eV
Electronic Energy  :      -1088.68919268639775 Eh          -29624.73903 eV
One Electron Energy:      -1743.24036413208205 Eh          -47435.98191 eV
Two Electron Energy:        654.55117144568419 Eh           17811.24288 eV

Virial components:
Potential Energy   :      -1368.82363681477796 Eh          -37247.58479 eV
Kinetic Energy     :        682.71437686030458 Eh           18577.60266 eV
Virial Ratio       :          2.00497262575571

DFT components:
N(Alpha)           :       33.000020693549 electrons
N(Beta)            :       33.000020693549 electrons
N(Total)           :       66.000041387098 electrons
E(X)               :      -52.521403979578 Eh       
E(C)               :       -2.767815946379 Eh       
E(XC)              :      -55.289219925957 Eh       

---------------
SCF CONVERGENCE
---------------

  Last Energy change         ...    2.8092e-09  Tolerance :   1.0000e-08
  Last MAX-Density change    ...    6.2596e-05  Tolerance :   1.0000e-07
  Last RMS-Density change    ...    1.2041e-06  Tolerance :   5.0000e-09
  Last DIIS Error            ...    9.5120e-04  Tolerance :   5.0000e-07
  Last Orbital Gradient      ...    4.3014e-06  Tolerance :   1.0000e-05
  Last Orbital Rotation      ...    5.6223e-06  Tolerance :   1.0000e-05


----------------
ORBITAL ENERGIES
----------------

  NO   OCC          E(Eh)            E(eV) 
   0   2.0000     -77.043645     -2096.4642 
   1   2.0000     -19.136310      -520.7255 
   2   2.0000     -19.136286      -520.7248 
   3   2.0000     -19.136281      -520.7247 
   4   2.0000     -10.234660      -278.4992 
   5   2.0000     -10.234645      -278.4988 
   6   2.0000     -10.234563      -278.4966 
   7   2.0000      -6.546456      -178.1381 
   8   2.0000      -4.711534      -128.2074 
   9   2.0000      -4.711533      -128.2073 
  10   2.0000      -4.708490      -128.1245 
  11   2.0000      -1.013380       -27.5755 
  12   2.0000      -1.010532       -27.4980 
  13   2.0000      -1.010528       -27.4979 
  14   2.0000      -0.749103       -20.3841 
  15   2.0000      -0.668801       -18.1990 
  16   2.0000      -0.668793       -18.1988 
  17   2.0000      -0.577236       -15.7074 
  18   2.0000      -0.511664       -13.9231 
  19   2.0000      -0.511660       -13.9230 
  20   2.0000      -0.472881       -12.8677 
  21   2.0000      -0.463429       -12.6105 
  22   2.0000      -0.436768       -11.8851 
  23   2.0000      -0.436764       -11.8849 
  24   2.0000      -0.423745       -11.5307 
  25   2.0000      -0.423738       -11.5305 
  26   2.0000      -0.365019        -9.9327 
  27   2.0000      -0.331615        -9.0237 
  28   2.0000      -0.331612        -9.0236 
  29   2.0000      -0.297600        -8.0981 
  30   2.0000      -0.260621        -7.0919 
  31   2.0000      -0.260617        -7.0917 
  32   2.0000      -0.248581        -6.7642 
  33   0.0000       0.015266         0.4154 
  34   0.0000       0.015269         0.4155 
  35   0.0000       0.060645         1.6502 
  36   0.0000       0.067122         1.8265 
  37   0.0000       0.094902         2.5824 
  38   0.0000       0.094912         2.5827 
  39   0.0000       0.117892         3.2080 
  40   0.0000       0.117894         3.2081 
  41   0.0000       0.125033         3.4023 
  42   0.0000       0.149098         4.0572 
  43   0.0000       0.149107         4.0574 
*Only the first 10 virtual orbitals were printed.

                    ********************************
                    * MULLIKEN POPULATION ANALYSIS *
                    ********************************

-----------------------
MULLIKEN ATOMIC CHARGES
-----------------------
   0 C :    0.107074
   1 O :   -0.321465
   2 P :   -0.002150
   3 C :    0.106782
   4 O :   -0.321433
   5 C :    0.106981
   6 O :   -0.321461
   7 H :    0.024925
   8 H :    0.023219
   9 H :    0.167010
  10 H :    0.024984
  11 H :    0.023298
  12 H :    0.167017
  13 H :    0.023238
  14 H :    0.024963
  15 H :    0.167016
Sum of atomic charges:   -0.0000000

--------------------------------
MULLIKEN REDUCED ORBITAL CHARGES
--------------------------------
  0 C s       :     3.023182  s :     3.023182
      pz      :     1.053259  p :     2.811850
      px      :     0.798683
      py      :     0.959908
      dz2     :     0.010508  d :     0.057894
      dxz     :     0.010070
      dyz     :     0.006348
      dx2y2   :     0.014187
      dxy     :     0.016780

  1 O s       :     3.742883  s :     3.742883
      pz      :     1.365048  p :     4.565129
      px      :     1.408223
      py      :     1.791858
      dz2     :     0.005497  d :     0.013453
      dxz     :     0.001952
      dyz     :     0.000993
      dx2y2   :     0.002167
      dxy     :     0.002843

  2 P s       :     5.818196  s :     5.818196
      pz      :     3.334396  p :     9.012722
      px      :     2.857395
      py      :     2.820931
      dz2     :     0.021429  d :     0.171232
      dxz     :     0.029509
      dyz     :     0.044625
      dx2y2   :     0.045175
      dxy     :     0.030494

  3 C s       :     3.023232  s :     3.023232
      pz      :     0.999418  p :     2.812091
      px      :     0.860994
      py      :     0.951678
      dz2     :     0.013673  d :     0.057896
      dxz     :     0.010513
      dyz     :     0.006110
      dx2y2   :     0.016998
      dxy     :     0.010600

  4 O s       :     3.742881  s :     3.742881
      pz      :     1.215949  p :     4.565098
      px      :     1.585117
      py      :     1.764033
      dz2     :     0.004189  d :     0.013453
      dxz     :     0.002905
      dyz     :     0.000973
      dx2y2   :     0.002240
      dxy     :     0.003146

  5 C s       :     3.023192  s :     3.023192
      pz      :     1.031075  p :     2.811933
      px      :     1.031380
      py      :     0.749478
      dz2     :     0.011468  d :     0.057895
      dxz     :     0.004273
      dyz     :     0.011986
      dx2y2   :     0.015354
      dxy     :     0.014814

  6 O s       :     3.742887  s :     3.742887
      pz      :     1.328445  p :     4.565122
      px      :     1.863296
      py      :     1.373380
      dz2     :     0.004894  d :     0.013453
      dxz     :     0.001333
      dyz     :     0.001683
      dx2y2   :     0.003621
      dxy     :     0.001921

  7 H s       :     0.953376  s :     0.953376
      pz      :     0.006311  p :     0.021699
      px      :     0.007095
      py      :     0.008293

  8 H s       :     0.954969  s :     0.954969
      pz      :     0.013943  p :     0.021812
      px      :     0.003258
      py      :     0.004611

  9 H s       :     0.765309  s :     0.765309
      pz      :     0.032488  p :     0.067681
      px      :     0.017229
      py      :     0.017965

 10 H s       :     0.953321  s :     0.953321
      pz      :     0.004597  p :     0.021695
      px      :     0.003840
      py      :     0.013258

 11 H s       :     0.954893  s :     0.954893
      pz      :     0.013884  p :     0.021809
      px      :     0.003673
      py      :     0.004252

 12 H s       :     0.765303  s :     0.765303
      pz      :     0.033474  p :     0.067680
      px      :     0.016343
      py      :     0.017864

 13 H s       :     0.954951  s :     0.954951
      pz      :     0.013247  p :     0.021811
      px      :     0.006314
      py      :     0.002250

 14 H s       :     0.953341  s :     0.953341
      pz      :     0.004471  p :     0.021696
      px      :     0.013570
      py      :     0.003656

 15 H s       :     0.765304  s :     0.765304
      pz      :     0.033330  p :     0.067680
      px      :     0.020054
      py      :     0.014296



                     *******************************
                     * LOEWDIN POPULATION ANALYSIS *
                     *******************************

----------------------
LOEWDIN ATOMIC CHARGES
----------------------
   0 C :   -0.060692
   1 O :   -0.153702
   2 P :    0.367431
   3 C :   -0.060749
   4 O :   -0.153692
   5 C :   -0.060714
   6 O :   -0.153697
   7 H :    0.006457
   8 H :    0.012673
   9 H :    0.072794
  10 H :    0.006478
  11 H :    0.012678
  12 H :    0.072799
  13 H :    0.012673
  14 H :    0.006465
  15 H :    0.072798

-------------------------------
LOEWDIN REDUCED ORBITAL CHARGES
-------------------------------
  0 C s       :     2.895644  s :     2.895644
      pz      :     1.104667  p :     3.038050
      px      :     0.881188
      py      :     1.052195
      dz2     :     0.024800  d :     0.126998
      dxz     :     0.019704
      dyz     :     0.015022
      dx2y2   :     0.030715
      dxy     :     0.036757

  1 O s       :     3.462560  s :     3.462560
      pz      :     1.448705  p :     4.666384
      px      :     1.447298
      py      :     1.770381
      dz2     :     0.011337  d :     0.024758
      dxz     :     0.003671
      dyz     :     0.000768
      dx2y2   :     0.003793
      dxy     :     0.005189

  2 P s       :     5.317869  s :     5.317869
      pz      :     3.386336  p :     9.088106
      px      :     2.870637
      py      :     2.831134
      dz2     :     0.026981  d :     0.226594
      dxz     :     0.037245
      dyz     :     0.058694
      dx2y2   :     0.062516
      dxy     :     0.041157

  3 C s       :     2.895640  s :     2.895640
      pz      :     1.044011  p :     3.038115
      px      :     0.975190
      py      :     1.018914
      dz2     :     0.031949  d :     0.126994
      dxz     :     0.020589
      dyz     :     0.011521
      dx2y2   :     0.040237
      dxy     :     0.022699

  4 O s       :     3.462561  s :     3.462561
      pz      :     1.302993  p :     4.666373
      px      :     1.608298
      py      :     1.755083
      dz2     :     0.009792  d :     0.024758
      dxz     :     0.005424
      dyz     :     0.001674
      dx2y2   :     0.003066
      dxy     :     0.004803

  5 C s       :     2.895642  s :     2.895642
      pz      :     1.087005  p :     3.038076
      px      :     1.093838
      py      :     0.857234
      dz2     :     0.027039  d :     0.126996
      dxz     :     0.010649
      dyz     :     0.023063
      dx2y2   :     0.033599
      dxy     :     0.032644

  6 O s       :     3.462560  s :     3.462560
      pz      :     1.407623  p :     4.666378
      px      :     1.836229
      py      :     1.422526
      dz2     :     0.010652  d :     0.024758
      dxz     :     0.002192
      dyz     :     0.002756
      dx2y2   :     0.006374
      dxy     :     0.002784

  7 H s       :     0.924455  s :     0.924455
      pz      :     0.017641  p :     0.069087
      px      :     0.025066
      py      :     0.026380

  8 H s       :     0.919734  s :     0.919734
      pz      :     0.042807  p :     0.067594
      px      :     0.011144
      py      :     0.013643

  9 H s       :     0.750510  s :     0.750510
      pz      :     0.089938  p :     0.176696
      px      :     0.039627
      py      :     0.047131

 10 H s       :     0.924433  s :     0.924433
      pz      :     0.013470  p :     0.069089
      px      :     0.013113
      py      :     0.042506

 11 H s       :     0.919727  s :     0.919727
      pz      :     0.042839  p :     0.067595
      px      :     0.012954
      py      :     0.011802

 12 H s       :     0.750506  s :     0.750506
      pz      :     0.086751  p :     0.176695
      px      :     0.043273
      py      :     0.046672

 13 H s       :     0.919733  s :     0.919733
      pz      :     0.041804  p :     0.067594
      px      :     0.016884
      py      :     0.008906

 14 H s       :     0.924448  s :     0.924448
      pz      :     0.013552  p :     0.069088
      px      :     0.041768
      py      :     0.013768

 15 H s       :     0.750507  s :     0.750507
      pz      :     0.088786  p :     0.176695
      px      :     0.054323
      py      :     0.033586



                      *****************************
                      * MAYER POPULATION ANALYSIS *
                      *****************************

  NA   - Mulliken gross atomic population
  ZA   - Total nuclear charge
  QA   - Mulliken gross atomic charge
  VA   - Mayer's total valence
  BVA  - Mayer's bonded valence
  FA   - Mayer's free valence

  ATOM       NA         ZA         QA         VA         BVA        FA
  0 C      5.8929     6.0000     0.1071     3.8703     3.8703    -0.0000
  1 O      8.3215     8.0000    -0.3215     2.0703     2.0703    -0.0000
  2 P     15.0021    15.0000    -0.0021     3.1037     3.1037    -0.0000
  3 C      5.8932     6.0000     0.1068     3.8704     3.8704    -0.0000
  4 O      8.3214     8.0000    -0.3214     2.0703     2.0703    -0.0000
  5 C      5.8930     6.0000     0.1070     3.8703     3.8703    -0.0000
  6 O      8.3215     8.0000    -0.3215     2.0703     2.0703    -0.0000
  7 H      0.9751     1.0000     0.0249     0.9900     0.9900    -0.0000
  8 H      0.9768     1.0000     0.0232     0.9885     0.9885    -0.0000
  9 H      0.8330     1.0000     0.1670     1.0143     1.0143    -0.0000
 10 H      0.9750     1.0000     0.0250     0.9900     0.9900    -0.0000
 11 H      0.9767     1.0000     0.0233     0.9885     0.9885    -0.0000
 12 H      0.8330     1.0000     0.1670     1.0143     1.0143    -0.0000
 13 H      0.9768     1.0000     0.0232     0.9885     0.9885     0.0000
 14 H      0.9750     1.0000     0.0250     0.9900     0.9900     0.0000
 15 H      0.8330     1.0000     0.1670     1.0143     1.0143    -0.0000

  Mayer bond orders larger than 0.100000
B(  0-C ,  1-O ) :   1.0121 B(  0-C ,  2-P ) :   0.9510 B(  0-C ,  7-H ) :   0.9493 
B(  0-C ,  8-H ) :   0.9322 B(  1-O ,  9-H ) :   0.9779 B(  2-P ,  3-C ) :   0.9512 
B(  2-P ,  5-C ) :   0.9511 B(  3-C ,  4-O ) :   1.0121 B(  3-C , 10-H ) :   0.9493 
B(  3-C , 11-H ) :   0.9321 B(  4-O , 12-H ) :   0.9779 B(  5-C ,  6-O ) :   1.0121 
B(  5-C , 13-H ) :   0.9321 B(  5-C , 14-H ) :   0.9493 B(  6-O , 15-H ) :   0.9779 


-------
TIMINGS
-------

Total SCF time: 0 days 0 hours 0 min 4 sec 

Total time                  ....       4.480 sec
Sum of individual times     ....       4.445 sec  ( 99.2%)

SCF preparation             ....       0.070 sec  (  1.6%)
Fock matrix formation       ....       4.134 sec  ( 92.3%)
  Startup                   ....       0.023 sec  (  0.6% of F)
  Exchange formation        ....       2.344 sec  ( 56.7% of F)
  Split-RI-J                ....       0.449 sec  ( 10.9% of F)
  XC integration            ....       1.228 sec  ( 29.7% of F)
    Basis function eval.    ....       0.347 sec  ( 28.3% of XC)
    Density eval.           ....       0.200 sec  ( 16.3% of XC)
    XC-Functional eval.     ....       0.048 sec  (  3.9% of XC)
    XC-Potential eval.      ....       0.241 sec  ( 19.6% of XC)
Diagonalization             ....       0.000 sec  (  0.0%)
Density matrix formation    ....       0.048 sec  (  1.1%)
Total Energy calculation    ....       0.019 sec  (  0.4%)
Population analysis         ....       0.023 sec  (  0.5%)
Orbital Transformation      ....       0.016 sec  (  0.4%)
Orbital Orthonormalization  ....       0.000 sec  (  0.0%)
DIIS solution               ....       0.086 sec  (  1.9%)
SOSCF solution              ....       0.049 sec  (  1.1%)
Finished LeanSCF after   4.5 sec

Maximum memory used throughout the entire LEANSCF-calculation: 13.8 MB


-------------------------------------------------------------------------------
                          DFT DISPERSION CORRECTION                            
                                                                               
                              DFTD3 V3.1  Rev 1                                
                          USING Becke-Johnson damping                          
-------------------------------------------------------------------------------
The B3LYP functional is recognized
Active option DFTDOPT                   ...         4   

molecular C6(AA) [au] = 2513.217289 


            DFT-D V3
 parameters
 s6 scaling factor         :     1.0000 
 a1 scaling factor         :     0.3981 
 s8 scaling factor         :     1.9889 
 a2 scaling factor         :     4.4211 
 ad hoc parameters k1-k3   :    16.0000     1.3333    -4.0000 

 Edisp/kcal,au: -15.416652086399  -0.024567996308 
 E6   /kcal   :  -7.090224818 
 E8   /kcal   :  -8.326427269 
 % E8         :  54.009309038 

-------------------------   ----------------
Dispersion correction           -0.024567996
-------------------------   ----------------


-------------------------   --------------------
FINAL SINGLE POINT ENERGY      -686.133827950781
-------------------------   --------------------



           ************************************************************
           *        Program running with 6 parallel MPI-processes     *
           *              working on a common directory               *
           ************************************************************
------------------------------------------------------------------------------
                         ORCA SCF GRADIENT CALCULATION
------------------------------------------------------------------------------

Nuc. rep. gradient        (SHARK) ... done (  0.0 sec)
HCore & Overlap gradient  (SHARK) ... done (  0.0 sec)
Split-RIJ-J gradient      (SHARK) ... done (  0.1 sec)
O(N)X-gradient            (SHARK) ... done (  1.1 sec)
XC gradient                       ... done (  0.9 sec)
Dispersion correction             ... done (  0.1 sec)

-------------------
DISPERSION GRADIENT
-------------------

   1   C   :   -0.000160940    0.000571720   -0.000056587
   2   O   :   -0.000202130    0.000456964   -0.000008233
   3   P   :   -0.000072909   -0.000005996    0.000272358
   4   C   :    0.000567375   -0.000137780    0.000122760
   5   O   :    0.000469696   -0.000058684    0.000160259
   6   C   :   -0.000386893   -0.000432333   -0.000139177
   7   O   :   -0.000294393   -0.000400486   -0.000051808
   8   H   :   -0.000024510    0.000326504   -0.000012409
   9   H   :    0.000004122    0.000282763   -0.000206069
  10   H   :   -0.000173792    0.000263140    0.000078642
  11   H   :    0.000289990   -0.000139572    0.000061520
  12   H   :    0.000310564   -0.000092118   -0.000132289
  13   H   :    0.000263722   -0.000007498    0.000189804
  14   H   :   -0.000154842   -0.000177499   -0.000258755
  15   H   :   -0.000255715   -0.000186129   -0.000085587
  16   H   :   -0.000179345   -0.000262995    0.000065572

Difference to translation invariance:
           :    0.0000000000   -0.0000000000   -0.0000000000

Difference to rotation invariance:
           :   -0.0000000000   -0.0000000000    0.0000000000

Norm of the Dispersion gradient    ...    0.0017038003
RMS gradient                       ...    0.0002459224
MAX gradient                       ...    0.0005717202

------------------
CARTESIAN GRADIENT
------------------

   1   C   :    0.008339192   -0.021565756    0.001783955
   2   O   :    0.004180719    0.010110870   -0.005270486
   3   P   :    0.003633018    0.000253018   -0.013465839
   4   C   :   -0.022274556    0.003440450   -0.005798119
   5   O   :    0.008740557   -0.007182342   -0.004446596
   6   C   :    0.013842806    0.018167638    0.004171014
   7   O   :   -0.007980405   -0.002511219   -0.008815625
   8   H   :   -0.013382044    0.002208556   -0.002710794
   9   H   :   -0.000662801    0.001269345    0.005949552
  10   H   :    0.001782954   -0.002982392    0.004864949
  11   H   :    0.008197542    0.010665367    0.003249484
  12   H   :   -0.000766098   -0.001591689    0.005862339
  13   H   :   -0.004956092   -0.001222312    0.003105543
  14   H   :   -0.003130714   -0.000048847    0.005255026
  15   H   :    0.004589714   -0.012933325    0.001762068
  16   H   :   -0.000153792    0.003922639    0.004503531

Difference to translation invariance:
           :   -0.0000000000    0.0000000000   -0.0000000000

Difference to rotation invariance:
           :   -0.0000180241   -0.0000281438    0.0000966672

Norm of the Cartesian gradient     ...    0.0552248791
RMS gradient                       ...    0.0079710247
MAX gradient                       ...    0.0222745559

-------
TIMINGS
-------

Total SCF gradient time     ....        2.200 sec

One electron gradient       ....       0.045 sec  (  2.0%)
Two electron gradient       ....       1.093 sec  ( 49.7%)
RI-J Coulomb gradient       ....       0.147 sec  (  6.7%)
XC gradient                 ....       0.851 sec  ( 38.7%)

Maximum memory used throughout the entire SCFGRAD-calculation: 28.3 MB
------------------------------------------------------------------------------
                         ORCA GEOMETRY RELAXATION STEP
------------------------------------------------------------------------------

Reading the OPT-File                    .... done
Getting information on internals        .... done
Copying old internal coords+grads       .... done
Making the new internal coordinates     .... (2022 redundants) done
Validating the new internal coordinates .... (2022 redundants) done
Calculating the B-matrix                .... done
Calculating the G,G- and P matrices     .... done
Transforming gradient to internals      .... done
Projecting the internal gradient        .... done
Number of atoms                         ....  16
Number of internal coordinates          ....  63
Current Energy                          ....  -686.133827951 Eh
Current gradient norm                   ....     0.055224879 Eh/bohr
Maximum allowed component of the step   ....  0.300
Current trust radius                    ....  0.300
Evaluating the initial hessian          ....  (Almloef) done
Projecting the Hessian                  .... done
Forming the augmented Hessian           .... done
Diagonalizing the augmented Hessian     .... done
Last element of RFO vector              ....  0.957052151
Lowest eigenvalues of augmented Hessian:
 -0.007275105  0.003711646  0.003711649  0.004328928  0.019740715
Length of the computed step             ....  0.302925828
Warning: the length of the step is outside the trust region - taking restricted step instead
The input lambda is                     ....     0.002712
   iter:   5  x=   -0.003123  g=  125.838953 f(x)=     0.250932
   iter:  10  x=   -0.007433  g=   10.977806 f(x)=     0.000002
The output lambda is                    ....    -0.007433 (12 iterations)
The final length of the internal step   ....  0.300000000
Converting the step to Cartesian space:
 Initial RMS(Int)=    0.0377964473
Transforming coordinates:
 Iter   0:  RMS(Cart)=    0.0682255499 RMS(Int)=    0.0378495446
 Iter   5:  RMS(Cart)=    0.0000000654 RMS(Int)=    0.0000000535
done
Storing new coordinates                 .... done

                                .--------------------.
          ----------------------|Geometry convergence|-------------------------
          Item                value                   Tolerance       Converged
          ---------------------------------------------------------------------
          RMS gradient        0.0055515277            0.0001000000      NO
          MAX gradient        0.0134691652            0.0003000000      NO
          RMS step            0.0377964473            0.0020000000      NO
          MAX step            0.0943655617            0.0040000000      NO
          ........................................................
          Max(Bonds)      0.0153      Max(Angles)    3.12
          Max(Dihed)        5.41      Max(Improp)    0.00
          ---------------------------------------------------------------------

The optimization has not yet converged - more geometry cycles are needed


    ---------------------------------------------------------------------------
                         Redundant Internal Coordinates
                            (Angstroem and degrees)

        Definition                    Value    dE/dq     Step     New-Value
    ----------------------------------------------------------------------------
     1. B(O   1,C   0)                1.4208 -0.002195  0.0023    1.4231   
     2. B(P   2,C   0)                1.8386 -0.011820  0.0152    1.8538   
     3. B(C   3,P   2)                1.8386 -0.011887  0.0153    1.8539   
     4. B(O   4,C   3)                1.4208 -0.002202  0.0023    1.4231   
     5. B(C   5,P   2)                1.8386 -0.011851  0.0152    1.8539   
     6. B(O   6,C   5)                1.4208 -0.002208  0.0023    1.4231   
     7. B(H   7,C   0)                1.0948 -0.008452  0.0124    1.1072   
     8. B(H   8,C   0)                1.0944 -0.006017  0.0088    1.1032   
     9. B(H   9,O   1)                0.9726  0.004151 -0.0044    0.9682   
    10. B(H  10,C   3)                1.0948 -0.008445  0.0124    1.1072   
    11. B(H  11,C   3)                1.0944 -0.006022  0.0088    1.1032   
    12. B(H  12,O   4)                0.9726  0.004156 -0.0044    0.9682   
    13. B(H  13,C   5)                1.0944 -0.006014  0.0088    1.1032   
    14. B(H  14,C   5)                1.0948 -0.008457  0.0124    1.1072   
    15. B(H  15,O   6)                0.9726  0.004157 -0.0044    0.9682   
    16. A(P   2,C   0,H   7)          109.39  0.004755   -0.60    108.79   
    17. A(P   2,C   0,H   8)          111.08 -0.000979   -0.55    110.53   
    18. A(H   7,C   0,H   8)          107.17  0.000672   -0.21    106.96   
    19. A(O   1,C   0,P   2)          114.10  0.007530   -1.04    113.06   
    20. A(O   1,C   0,H   7)          107.37 -0.012350    3.06    110.43   
    21. A(O   1,C   0,H   8)          107.44 -0.000431   -0.49    106.94   
    22. A(C   0,O   1,H   9)          105.42 -0.007554    1.20    106.61   
    23. A(C   3,P   2,C   5)           98.74 -0.000997    0.46     99.20   
    24. A(C   0,P   2,C   3)           98.74  0.000149    0.45     99.19   
    25. A(C   0,P   2,C   5)           98.74 -0.001626    0.55     99.29   
    26. A(O   4,C   3,H  10)          107.37 -0.012338    3.06    110.43   
    27. A(P   2,C   3,H  10)          109.39  0.004562   -0.60    108.79   
    28. A(P   2,C   3,O   4)          114.10  0.007746   -1.05    113.05   
    29. A(P   2,C   3,H  11)          111.08 -0.001068   -0.55    110.53   
    30. A(H  10,C   3,H  11)          107.17  0.000293   -0.20    106.97   
    31. A(O   4,C   3,H  11)          107.44 -0.000029   -0.50    106.94   
    32. A(C   3,O   4,H  12)          105.42 -0.007533    1.19    106.61   
    33. A(P   2,C   5,O   6)          114.10  0.007046   -1.00    113.10   
    34. A(O   6,C   5,H  14)          107.37 -0.013469    3.12    110.49   
    35. A(P   2,C   5,H  14)          109.39  0.005018   -0.62    108.77   
    36. A(O   6,C   5,H  13)          107.44 -0.000569   -0.45    106.99   
    37. A(H  13,C   5,H  14)          107.17  0.001671   -0.33    106.84   
    38. A(P   2,C   5,H  13)          111.08 -0.000460   -0.57    110.51   
    39. A(C   5,O   6,H  15)          105.42 -0.007532    1.19    106.61   
    40. D(H   9,O   1,C   0,P   2)     50.34 -0.001246    2.43     52.77   
    41. D(H   9,O   1,C   0,H   8)    173.95  0.002252    0.66    174.60   
    42. D(H   9,O   1,C   0,H   7)    -71.06 -0.003263    1.67    -69.39   
    43. D(C   5,P   2,C   0,O   1)     72.46  0.003878    1.64     74.10   
    44. D(C   3,P   2,C   0,H   7)    -66.94 -0.004795    5.09    -61.84   
    45. D(C   3,P   2,C   0,O   1)    172.79  0.002580    2.30    175.08   
    46. D(C   5,P   2,C   0,H   7)   -167.26 -0.003497    4.44   -162.83   
    47. D(C   3,P   2,C   0,H   8)     51.17 -0.001589    4.12     55.29   
    48. D(H  11,C   3,P   2,C   0)    -49.16 -0.000842    3.59    -45.57   
    49. D(H  10,C   3,P   2,C   5)    -66.94 -0.005237    5.27    -61.67   
    50. D(H  10,C   3,P   2,C   0)   -167.26 -0.003409    4.54   -162.72   
    51. D(O   4,C   3,P   2,C   5)    172.79  0.002117    2.47    175.26   
    52. D(O   4,C   3,P   2,C   0)     72.46  0.003945    1.75     74.21   
    53. D(H  12,O   4,C   3,H  10)    -71.06 -0.003308    1.67    -69.39   
    54. D(H  12,O   4,C   3,P   2)     50.34 -0.001387    2.43     52.77   
    55. D(H  12,O   4,C   3,H  11)    173.95  0.002441    0.65    174.59   
    56. D(H  14,C   5,P   2,C   0)    -66.94 -0.006364    5.41    -61.53   
    57. D(H  13,C   5,P   2,C   3)    -49.16 -0.001119    3.62    -45.54   
    58. D(H  13,C   5,P   2,C   0)     51.17 -0.001449    4.27     55.44   
    59. D(O   6,C   5,P   2,C   3)     72.46  0.002912    1.87     74.33   
    60. D(O   6,C   5,P   2,C   0)    172.79  0.002581    2.51    175.30   
    61. D(H  15,O   6,C   5,H  14)    -71.06 -0.002826    1.63    -69.43   
    62. D(H  15,O   6,C   5,H  13)    173.95  0.002150    0.70    174.64   
    63. D(H  15,O   6,C   5,P   2)     50.34 -0.001585    2.44     52.78   
    ----------------------------------------------------------------------------

Geometry step timings:
Preparation and reading OPT file:      0.001 s (25.000 %)
Internal coordinates            :      0.000 s ( 0.000 %)
B/P matrices and projection     :      0.000 s ( 0.000 %)
Hessian update/contruction      :      0.001 s (25.000 %)
Making the step                 :      0.001 s (25.000 %)
Converting the step to Cartesian:      0.000 s ( 0.000 %)
Storing new data                :      0.000 s ( 0.000 %)
Checking convergence            :      0.000 s ( 0.000 %)
Final printing                  :      0.001 s (25.000 %)
Total time                      :      0.004 s

Time for energy+gradient        :      7.663 s
Time for complete geometry iter :      7.780 s

         *************************************************************
         *                GEOMETRY OPTIMIZATION CYCLE   2            *
         *************************************************************
---------------------------------
CARTESIAN COORDINATES (ANGSTROEM)
---------------------------------
  C     -0.252676    1.605220   -0.251198
  O     -1.533636    2.220812   -0.177678
  P     -0.173092   -0.014315    0.647362
  C      1.546590   -0.527071    0.181822
  O      2.552407    0.205991    0.871887
  C     -1.128440   -1.064891   -0.544436
  O     -1.158680   -2.439361   -0.176777
  H      0.524158    2.279182    0.158840
  H     -0.024629    1.465197   -1.321443
  H     -1.767076    2.262885    0.761033
  H      1.659359   -1.611826    0.372603
  H      1.718132   -0.370435   -0.896644
  H      2.347045    0.136755    1.815532
  H     -0.681201   -1.010686   -1.551444
  H     -2.156825   -0.663349   -0.628326
  H     -1.471437   -2.474107    0.738869

----------------------------
CARTESIAN COORDINATES (A.U.)
----------------------------
  NO LB      ZA    FRAG     MASS         X           Y           Z
   0 C     6.0000    0    12.011   -0.477489    3.033425   -0.474696
   1 O     8.0000    0    15.999   -2.898152    4.196726   -0.335763
   2 P    15.0000    0    30.974   -0.327097   -0.027051    1.223337
   3 C     6.0000    0    12.011    2.922631   -0.996020    0.343593
   4 O     8.0000    0    15.999    4.823351    0.389267    1.647627
   5 C     6.0000    0    12.011   -2.132443   -2.012352   -1.028835
   6 O     8.0000    0    15.999   -2.189588   -4.609725   -0.334060
   7 H     1.0000    0     1.008    0.990515    4.307029    0.300165
   8 H     1.0000    0     1.008   -0.046542    2.768822   -2.497165
   9 H     1.0000    0     1.008   -3.339289    4.276234    1.438143
  10 H     1.0000    0     1.008    3.135735   -3.045910    0.704117
  11 H     1.0000    0     1.008    3.246799   -0.700020   -1.694411
  12 H     1.0000    0     1.008    4.435272    0.258429    3.430858
  13 H     1.0000    0     1.008   -1.287284   -1.909919   -2.931804
  14 H     1.0000    0     1.008   -4.075808   -1.253547   -1.187365
  15 H     1.0000    0     1.008   -2.780613   -4.675385    1.396260

--------------------------------
INTERNAL COORDINATES (ANGSTROEM)
--------------------------------
 C      0   0   0     0.000000000000     0.00000000     0.00000000
 O      1   0   0     1.423101230329     0.00000000     0.00000000
 P      1   2   0     1.853816328457   113.04814890     0.00000000
 C      3   1   2     1.853902477811    99.19140188   175.09095999
 O      4   3   1     1.423108895350   113.03970225    74.21260890
 C      3   1   2     1.853855849484    99.28523732    74.10718055
 O      6   3   1     1.423115124953   113.09094672   175.31012938
 H      1   2   3     1.107171224738   110.43282448   237.85089003
 H      1   2   3     1.103193299908   106.92329955   121.84158761
 H      2   1   3     0.968216046018   106.61298103    52.76390577
 H      4   3   1     1.107161967678   108.79568433   197.27322669
 H      4   3   1     1.103199269704   110.51491303   314.42660083
 H      5   4   3     0.968211198518   106.60969482    52.76506893
 H      6   3   1     1.103188973180   110.49124729    55.43696708
 H      6   3   1     1.107180232807   108.77427882   298.46617725
 H      7   6   3     0.968210542015   106.60945336    52.77367146

---------------------------
INTERNAL COORDINATES (A.U.)
---------------------------
 C      0   0   0     0.000000000000     0.00000000     0.00000000
 O      1   0   0     2.689271586169     0.00000000     0.00000000
 P      1   2   0     3.503205163376   113.04814890     0.00000000
 C      3   1   2     3.503367962062    99.19140188   175.09095999
 O      4   3   1     2.689286070960   113.03970225    74.21260890
 C      3   1   2     3.503279847292    99.28523732    74.10718055
 O      6   3   1     2.689297843203   113.09094672   175.31012938
 H      1   2   3     2.092250398113   110.43282448   237.85089003
 H      1   2   3     2.084733209604   106.92329955   121.84158761
 H      2   1   3     1.829663165442   106.61298103    52.76390577
 H      4   3   1     2.092232904804   108.79568433   197.27322669
 H      4   3   1     2.084744490883   110.51491303   314.42660083
 H      5   4   3     1.829654004994   106.60969482    52.76506893
 H      6   3   1     2.084725033272   110.49124729    55.43696708
 H      6   3   1     2.092267420896   108.77427882   298.46617725
 H      7   6   3     1.829652764383   106.60945336    52.77367146



           ************************************************************
           *        Program running with 6 parallel MPI-processes     *
           *              working on a common directory               *
           ************************************************************
------------------------------------------------------------------------------
                   ___                                                        
                  /   \      - P O W E R E D   B Y -                         
                 /     \                                                     
                 |  |  |   _    _      __       _____    __    __             
                 |  |  |  | |  | |    /  \     |  _  \  |  |  /  |          
                  \  \/   | |  | |   /    \    | | | |  |  | /  /          
                 / \  \   | |__| |  /  /\  \   | |_| |  |  |/  /          
                |  |  |   |  __  | /  /__\  \  |    /   |      \           
                |  |  |   | |  | | |   __   |  |    \   |  |\   \          
                \     /   | |  | | |  |  |  |  | |\  \  |  | \   \       
                 \___/    |_|  |_| |__|  |__|  |_| \__\ |__|  \__/        
                                                                              
                      - O R C A' S   B I G   F R I E N D -                    
                                      &                                       
                       - I N T E G R A L  F E E D E R -                       
                                                                              
 v1 FN, 2020, v2 2021, v3 2022-2024                                           
------------------------------------------------------------------------------


----------------------
SHARK INTEGRAL PACKAGE
----------------------

Number of atoms                             ...     16
Number of basis functions                   ...    147
Number of shells                            ...     71
Maximum angular momentum                    ...      2
Integral batch strategy                     ... SHARK/LIBINT Hybrid
RI-J (if used) integral strategy            ... SPLIT-RIJ (Revised 2003 algorithm where possible)
Printlevel                                  ...      1
Contraction scheme used                     ... SEGMENTED contraction
Prescreening option                         ... SCHWARTZ
   Thresh                                   ... 2.500e-11
   Tcut                                     ... 2.500e-12
   Tpresel                                  ... 2.500e-12 
Coulomb Range Separation                    ... NOT USED
Exchange Range Separation                   ... NOT USED
Multipole approximations                    ... NOT USED
Finite Nucleus Model                        ... NOT USED
CABS basis                                  ... NOT available
Auxiliary Coulomb fitting basis             ... AVAILABLE
   # of basis functions in Aux-J            ...    444
   # of shells in Aux-J                     ...    152
   Maximum angular momentum in Aux-J        ...      4
Auxiliary J/K fitting basis                 ... NOT available
Auxiliary Correlation fitting basis         ... NOT available
Auxiliary 'external' fitting basis          ... NOT available

Checking pre-screening integrals            ... done (  0.0 sec) Dimension = 71
Check shell pair data                       ... done (  0.0 sec)
Shell pair information
Shell pair cut-off parameter TPreSel        ...   2.5e-12
Total number of shell pairs                 ...      2556
Shell pairs after pre-screening             ...      2379
Total number of primitive shell pairs       ...      9308
Primitive shell pairs kept                  ...      6341
          la=0 lb=0:    769 shell pairs
          la=1 lb=0:    900 shell pairs
          la=1 lb=1:    279 shell pairs
          la=2 lb=0:    253 shell pairs
          la=2 lb=1:    153 shell pairs
          la=2 lb=2:     25 shell pairs

Calculating one electron integrals          ... done (  0.0 sec)
Calculating RI/J V-Matrix + Cholesky decomp.... done (  0.0 sec)
Calculating Nuclear repulsion               ... done (  0.0 sec) ENN=    400.357292873950 Eh

Diagonalization of the overlap matrix:
Smallest eigenvalue                        ... 2.488e-03
Time for diagonalization                   ...    0.002 sec
[...]
      dz2     :     0.013558  d :     0.058411
      dxz     :     0.011726
      dyz     :     0.007307
      dx2y2   :     0.016979
      dxy     :     0.008841

  4 O s       :     3.732359  s :     3.732359
      pz      :     1.188160  p :     4.565484
      px      :     1.642124
      py      :     1.735200
      dz2     :     0.003486  d :     0.013363
      dxz     :     0.002511
      dyz     :     0.002301
      dx2y2   :     0.002062
      dxy     :     0.003004

  5 C s       :     3.042786  s :     3.042786
      pz      :     1.013586  p :     2.819960
      px      :     1.036797
      py      :     0.769577
      dz2     :     0.010147  d :     0.058411
      dxz     :     0.005912
      dyz     :     0.013612
      dx2y2   :     0.013673
      dxy     :     0.015068

  6 O s       :     3.732375  s :     3.732375
      pz      :     1.388239  p :     4.565525
      px      :     1.761627
      py      :     1.415659
      dz2     :     0.003179  d :     0.013363
      dxz     :     0.002470
      dyz     :     0.001982
      dx2y2   :     0.003774
      dxy     :     0.001956

  7 H s       :     0.947836  s :     0.947836
      pz      :     0.005407  p :     0.021550
      px      :     0.009096
      py      :     0.007048

  8 H s       :     0.952786  s :     0.952786
      pz      :     0.013977  p :     0.021204
      px      :     0.002668
      py      :     0.004559

  9 H s       :     0.764233  s :     0.764233
      pz      :     0.033647  p :     0.067728
      px      :     0.015469
      py      :     0.018611

 10 H s       :     0.947840  s :     0.947840
      pz      :     0.003713  p :     0.021547
      px      :     0.003730
      py      :     0.014104

 11 H s       :     0.952787  s :     0.952787
      pz      :     0.012579  p :     0.021203
      px      :     0.003866
      py      :     0.004758

 12 H s       :     0.764211  s :     0.764211
      pz      :     0.033331  p :     0.067729
      px      :     0.016397
      py      :     0.018000

 13 H s       :     0.952773  s :     0.952773
      pz      :     0.012002  p :     0.021204
      px      :     0.006954
      py      :     0.002247

 14 H s       :     0.947811  s :     0.947811
      pz      :     0.004642  p :     0.021546
      px      :     0.012203
      py      :     0.004701

 15 H s       :     0.764192  s :     0.764192
      pz      :     0.031450  p :     0.067728
      px      :     0.022205
      py      :     0.014073



                     *******************************
                     * LOEWDIN POPULATION ANALYSIS *
                     *******************************

----------------------
LOEWDIN ATOMIC CHARGES
----------------------
   0 C :   -0.066011
   1 O :   -0.146424
   2 P :    0.358933
   3 C :   -0.065968
   4 O :   -0.146361
   5 C :   -0.065991
   6 O :   -0.146378
   7 H :    0.005954
   8 H :    0.013274
   9 H :    0.073507
  10 H :    0.005935
  11 H :    0.013258
  12 H :    0.073519
  13 H :    0.013269
  14 H :    0.005957
  15 H :    0.073528

-------------------------------
LOEWDIN REDUCED ORBITAL CHARGES
-------------------------------
  0 C s       :     2.902983  s :     2.902983
      pz      :     1.094165  p :     3.034936
      px      :     0.895092
      py      :     1.045678
      dz2     :     0.029100  d :     0.128093
      dxz     :     0.014982
      dyz     :     0.013331
      dx2y2   :     0.033375
      dxy     :     0.037305

  1 O s       :     3.451766  s :     3.451766
      pz      :     1.421757  p :     4.669603
      px      :     1.492311
      py      :     1.755535
      dz2     :     0.012253  d :     0.025055
      dxz     :     0.002327
      dyz     :     0.001153
      dx2y2   :     0.004235
      dxy     :     0.005088

  2 P s       :     5.358582  s :     5.358582
      pz      :     3.378125  p :     9.076086
      px      :     2.868531
      py      :     2.829430
      dz2     :     0.023321  d :     0.206399
      dxz     :     0.032082
      dyz     :     0.055103
      dx2y2   :     0.059254
      dxy     :     0.036640

  3 C s       :     2.902976  s :     2.902976
      pz      :     1.011706  p :     3.034906
      px      :     0.987729
      py      :     1.035472
      dz2     :     0.030531  d :     0.128086
      dxz     :     0.023517
      dyz     :     0.014909
      dx2y2   :     0.040702
      dxy     :     0.018427

  4 O s       :     3.451751  s :     3.451751
      pz      :     1.277703  p :     4.669552
      px      :     1.653293
      py      :     1.738555
      dz2     :     0.008574  d :     0.025058
      dxz     :     0.004986
      dyz     :     0.004463
      dx2y2   :     0.002733
      dxy     :     0.004302

  5 C s       :     2.902980  s :     2.902980
      pz      :     1.068705  p :     3.034919
      px      :     1.090314
      py      :     0.875901
      dz2     :     0.022912  d :     0.128092
      dxz     :     0.014638
      dyz     :     0.027645
      dx2y2   :     0.029428
      dxy     :     0.033469

  6 O s       :     3.451758  s :     3.451758
      pz      :     1.450643  p :     4.669564
      px      :     1.755842
      py      :     1.463079
      dz2     :     0.006762  d :     0.025056
      dxz     :     0.005318
      dyz     :     0.003555
      dx2y2   :     0.006662
      dxy     :     0.002759

  7 H s       :     0.926122  s :     0.926122
      pz      :     0.014740  p :     0.067924
      px      :     0.030119
      py      :     0.023065

  8 H s       :     0.920674  s :     0.920674
      pz      :     0.043466  p :     0.066052
      px      :     0.008750
      py      :     0.013836

  9 H s       :     0.748553  s :     0.748553
      pz      :     0.091806  p :     0.177940
      px      :     0.037101
      py      :     0.049033

 10 H s       :     0.926138  s :     0.926138
      pz      :     0.011168  p :     0.067928
      px      :     0.012378
      py      :     0.044382

 11 H s       :     0.920679  s :     0.920679
      pz      :     0.039569  p :     0.066062
      px      :     0.013624
      py      :     0.012870

 12 H s       :     0.748540  s :     0.748540
      pz      :     0.084845  p :     0.177941
      px      :     0.043617
      py      :     0.049479

 13 H s       :     0.920673  s :     0.920673
      pz      :     0.038222  p :     0.066058
      px      :     0.019141
      py      :     0.008695

 14 H s       :     0.926124  s :     0.926124
      pz      :     0.014172  p :     0.067919
      px      :     0.037868
      py      :     0.015878

 15 H s       :     0.748533  s :     0.748533
      pz      :     0.082263  p :     0.177939
      px      :     0.061221
      py      :     0.034455



                      *****************************
                      * MAYER POPULATION ANALYSIS *
                      *****************************

  NA   - Mulliken gross atomic population
  ZA   - Total nuclear charge
  QA   - Mulliken gross atomic charge
  VA   - Mayer's total valence
  BVA  - Mayer's bonded valence
  FA   - Mayer's free valence

  ATOM       NA         ZA         QA         VA         BVA        FA
  0 C      5.9212     6.0000     0.0788     3.8799     3.8799    -0.0000
  1 O      8.3113     8.0000    -0.3113     2.0839     2.0839    -0.0000
  2 P     14.9767    15.0000     0.0233     3.0858     3.0858     0.0000
  3 C      5.9213     6.0000     0.0787     3.8799     3.8799    -0.0000
  4 O      8.3112     8.0000    -0.3112     2.0841     2.0841    -0.0000
  5 C      5.9212     6.0000     0.0788     3.8800     3.8800    -0.0000
  6 O      8.3113     8.0000    -0.3113     2.0840     2.0840    -0.0000
  7 H      0.9694     1.0000     0.0306     0.9834     0.9834    -0.0000
  8 H      0.9740     1.0000     0.0260     0.9850     0.9850     0.0000
  9 H      0.8320     1.0000     0.1680     1.0133     1.0133    -0.0000
 10 H      0.9694     1.0000     0.0306     0.9834     0.9834    -0.0000
 11 H      0.9740     1.0000     0.0260     0.9849     0.9849    -0.0000
 12 H      0.8319     1.0000     0.1681     1.0133     1.0133     0.0000
 13 H      0.9740     1.0000     0.0260     0.9849     0.9849    -0.0000
 14 H      0.9694     1.0000     0.0306     0.9832     0.9832    -0.0000
 15 H      0.8319     1.0000     0.1681     1.0133     1.0133     0.0000

  Mayer bond orders larger than 0.100000
B(  0-C ,  1-O ) :   1.0185 B(  0-C ,  2-P ) :   0.9466 B(  0-C ,  7-H ) :   0.9400 
B(  0-C ,  8-H ) :   0.9357 B(  1-O ,  9-H ) :   0.9771 B(  2-P ,  3-C ) :   0.9467 
B(  2-P ,  5-C ) :   0.9467 B(  3-C ,  4-O ) :   1.0184 B(  3-C , 10-H ) :   0.9400 
B(  3-C , 11-H ) :   0.9357 B(  4-O , 12-H ) :   0.9771 B(  5-C ,  6-O ) :   1.0184 
B(  5-C , 13-H ) :   0.9357 B(  5-C , 14-H ) :   0.9400 B(  6-O , 15-H ) :   0.9770 


-------
TIMINGS
-------

Total SCF time: 0 days 0 hours 0 min 1 sec 

Total time                  ....       1.549 sec
Sum of individual times     ....       1.518 sec  ( 98.0%)

SCF preparation             ....       0.063 sec  (  4.1%)
Fock matrix formation       ....       1.347 sec  ( 87.0%)
  Startup                   ....       0.010 sec  (  0.7% of F)
  Exchange formation        ....       0.782 sec  ( 58.1% of F)
  Split-RI-J                ....       0.144 sec  ( 10.7% of F)
  XC integration            ....       0.381 sec  ( 28.3% of F)
    Basis function eval.    ....       0.108 sec  ( 28.3% of XC)
    Density eval.           ....       0.070 sec  ( 18.4% of XC)
    XC-Functional eval.     ....       0.012 sec  (  3.1% of XC)
    XC-Potential eval.      ....       0.097 sec  ( 25.5% of XC)
Diagonalization             ....       0.000 sec  (  0.0%)
Density matrix formation    ....       0.015 sec  (  1.0%)
Total Energy calculation    ....       0.007 sec  (  0.5%)
Population analysis         ....       0.036 sec  (  2.3%)
Orbital Transformation      ....       0.007 sec  (  0.5%)
Orbital Orthonormalization  ....       0.000 sec  (  0.0%)
DIIS solution               ....       0.012 sec  (  0.8%)
SOSCF solution              ....       0.031 sec  (  2.0%)
Finished LeanSCF after   1.6 sec

Maximum memory used throughout the entire LEANSCF-calculation: 14.5 MB


-------------------------------------------------------------------------------
                          DFT DISPERSION CORRECTION                            
                                                                               
                              DFTD3 V3.1  Rev 1                                
                          USING Becke-Johnson damping                          
-------------------------------------------------------------------------------
The B3LYP functional is recognized
Active option DFTDOPT                   ...         4   

molecular C6(AA) [au] = 2513.975486 


            DFT-D V3
 parameters
 s6 scaling factor         :     1.0000 
 a1 scaling factor         :     0.3981 
 s8 scaling factor         :     1.9889 
 a2 scaling factor         :     4.4211 
 ad hoc parameters k1-k3   :    16.0000     1.3333    -4.0000 

 Edisp/kcal,au: -15.129682962398  -0.024110681948 
 E6   /kcal   :  -6.954721728 
 E8   /kcal   :  -8.174961234 
 % E8         :  54.032601042 

-------------------------   ----------------
Dispersion correction           -0.024110682
-------------------------   ----------------


-------------------------   --------------------
FINAL SINGLE POINT ENERGY      -686.141499078422
-------------------------   --------------------

                                *** OPTIMIZATION RUN DONE ***



           ************************************************************
           *        Program running with 6 parallel MPI-processes     *
           *              working on a common directory               *
           ************************************************************

------------------------------------------------------------------------------
                              ORCA PROPERTY CALCULATIONS
------------------------------------------------------------------------------

GBWName                                 ... data/geom_opt/76001/76001.gbw
Number of atoms                         ...     16
Number of basis functions               ...    147
Max core memory                         ...   1024 MB

Electric properties:
Dipole moment                           ... YES
Quadrupole moment                       ...  NO
Static polarizability (Dipole/Dipole)   ...  NO
Static polarizability (Dipole/Quad.)    ...  NO
Static polarizability (Quad./Quad.)     ...  NO
Static polarizability (Velocity)        ...  NO

Atomic electric properties:
Dipole moment                           ...  NO
Quadrupole moment                       ...  NO
Static polarizability                   ...  NO

Choice of electric origin               ... Center of mass
Position of electric origin             ...    -0.094633    -0.007559     0.352798

General magnetic properties:
Magnetizability                         ...  NO

EPR properties:
g-Tensor (aka g-matrix)                 ...  NO
Zero-Field splitting spin-orbit         ...  NO
Zero-field splitting spin-spin          ...  NO
Hyperfine couplings                     ...  NO (   0 nuclei)
Quadrupole couplings                    ...  NO (   0 nuclei)
Contact density                         ...  NO (   0 nuclei)

NMR properties:
Chemical shifts                         ...  NO (   0 nuclei)
Spin-rotation constants                 ...  NO (   0 nuclei)
Spin-spin couplings                     ...  NO (   0 nuclei,    0 pairs)

Choice of magnetic origin               ... GIAO
Position of magnetic origin             ...     0.000000     0.000000     0.000000

Properties with geometric perturbations:
SCF Hessian                             ...  NO
IR spectrum                             ...  NO
VCD spectrum                            ...  NO
X-ray spectroscopy properties:
SCF XES/XAS/RIXS spectra                ...  NO


-------------
DIPOLE MOMENT
-------------

Method             : SCF
Type of density    : Electron Density
Multiplicity       :   1
Irrep              :   0
Energy             :  -686.1173883964739844 Eh
Relativity type    : 
Basis              : AO
                                X                 Y                 Z
Electronic contribution:     -0.883430119      -0.072068752       3.294362350
Nuclear contribution   :      0.714491098       0.056983028      -2.662595514
                        -----------------------------------------
Total Dipole Moment    :     -0.168939020      -0.015085724       0.631766836
                        -----------------------------------------
Magnitude (a.u.)       :      0.654138599
Magnitude (Debye)      :      1.662688183



--------------------
Rotational spectrum 
--------------------
 
Rotational constants in cm-1:             0.061899             0.061834             0.033879 
Rotational constants in MHz :          1855.689086          1853.749103          1015.673484 

Dipole components along the rotational axes: 
x,y,z [a.u.] :     0.001108     0.000331     0.654138 
x,y,z [Debye]:     0.002817     0.000841     1.662686 

 

Dipole moment calculation done in   0.0 sec 

Maximum memory used throughout the entire PROP-calculation: 7.3 MB

--------------------------------
SUGGESTED CITATIONS FOR THIS RUN
--------------------------------

Below you find a list of papers that are relevant to this ORCA run
We neither can nor want to force you to cite these papers, but we appreciate if you do
You receive ORCA, which is the product of decades of hard work by many enthusiastic individuals, for free
The only thing we kindly ask in return is that you cite our papers,
We deeply appreciate it, if you show your appreciation for ORCA by not just citing the generic ORCA reference.

Please note that relegating all ORCA citations to the supporting information does *not* help us.
SI sections are not indexed - citations you put there will not count into any citation statistics
But we need these citations in order to attract the funding resources that allow us to do what we are doing

Therefore, if you are a happy ORCA user, please consider citing a few of the papers listed below in the main body of your paper

In addition to the list printed below, the program has created the file data/geom_opt/76001/76001.bibtex that contains the list in bibtex format
You can import this file easily into all common literature databanks and citation aid programs


List of essential papers. We consider these as the minimum necessary citations

  1. Neese,F.
     Software update: the ORCA program system, version 5.0
     WIRES Comput. Molec. Sci., 2022 12(1)e1606
     doi.org/10.1002/wcms.1606

List of papers to cite with high priority. The work reported in these papers was absolutely
necessary for this run to complete.
Our perspective: the developers of density functionals and basis sets usually get cited in chemistry papers
Good! But without the algorithms to do something with them, the functionals or basis sets would not do anything.
Hence, in our opinion, the algorithm design and method developments papers are equally worthy of getting cited

  1. Neese,F.
     An improvement of the resolution of the identity approximation for the formation of the Coulomb matrix
     J. Comp. Chem., 2003 24(14)1740-1747
     doi.org/10.1002/jcc.10318
  2. Neese,F.
     The SHARK Integral Generation and Digestion System
     J. Comp. Chem., 2022  1-16
     doi.org/10.1002/jcc.26942
  3. Grimme,S.; Antony,J.; Ehrlich,S.; Krieg,H.
     A consistent and accurate ab initio parametrization of density functional dispersion correction (DFT-D) for the 94 elements H-Pu
     J. Chem. Phys., 2010 132 154104-XXXX
     doi.org/10.1063/1.3382344
  4. Grimme,S.; Ehrlich,S.; Goerigk,L.
     Effect of the damping function in dispersion corrected density functional theory
     J. Comput. Chem., 2011 32(7)1456-1465
     doi.org/10.1002/jcc.21759

List of suggested additional citations. These are papers that are important in the 'surrounding' of 
of this run, or papers that preceded the highly important papers. If you like your results we are grateful for a citation.

  1. Neese,F.
     The ORCA program system
     WIRES Comput. Molec. Sci., 2012 2(1)73-78
     doi.org/10.1002/wcms.81
  2. Neese,F.
     Software update: the ORCA program system, version 4.0
     WIRES Comput. Molec. Sci., 2018 8(1)1-6
     doi.org/10.1002/wcms.1327
  3. Neese,F.; Wennmohs,F.; Becker,U.; Riplinger,C.
     The ORCA quantum chemistry program package
     J. Chem. Phys., 2020 152 Art. No. L224108
     doi.org/10.1063/5.0004608

List of optional additional citations

  1. Neese,F.
     Approximate second-order SCF convergence for spin unrestricted wavefunctions
     Chem. Phys. Lett., 2000 325(1-3)93-98
     doi.org/10.1016/s0009-2614(00)00662-x

Timings for individual modules:

Sum of individual times          ...       48.977 sec (=   0.816 min)
Startup calculation              ...        4.286 sec (=   0.071 min)   8.8 %
SCF iterations                   ...       26.629 sec (=   0.444 min)  54.4 %
Property calculations            ...        0.125 sec (=   0.002 min)   0.3 %
SCF Gradient evaluation          ...       17.893 sec (=   0.298 min)  36.5 %
Geometry relaxation              ...        0.044 sec (=   0.001 min)   0.1 %
                             ****ORCA TERMINATED NORMALLY****
TOTAL RUN TIME: 0 days 0 hours 0 minutes 50 seconds 518 msec
