
                                 *****************
                                 * O   R   C   A *
                                 *****************

                                            #,                                       
                                            ###                                      
                                            ####                                     
                                            #####                                    
                                            ######                                   
                                           ########,                                 
                                     ,,################,,,,,                         
                               ,,#################################,,                 
                          ,,##########################################,,             
                       ,#########################################, ''#####,          
                    ,#############################################,,   '####,        
                  ,##################################################,,,,####,       
                ,###########''''           ''''###############################       
              ,#####''   ,,,,##########,,,,          '''####'''          '####       
            ,##' ,,,,###########################,,,                        '##       
           ' ,,###''''                  '''############,,,                           
         ,,##''                                '''############,,,,        ,,,,,,###''
      ,#''                                            '''#######################'''  
     '                                                          ''''####''''         
             ,#######,   #######,   ,#######,      ##                                
            ,#'     '#,  ##    ##  ,#'     '#,    #''#        ,####,   ,####,        
            ##       ##  ##   ,#'  ##            #'  '#       #'       #'  '#        
            ##       ##  #######   ##           ,######,      #####,   #    #        
            '#,     ,#'  ##    ##  '#,     ,#' ,#      #,     #,   #   #,  ,#        
             '#######'   ##     ##  '#######'  #'      '#     '####' # '####'        



                #########################################################
                #                        -***-                          #
                #          Department of theory and spectroscopy        #
                #                                                       #
                #                      Frank Neese                      #
                #                                                       #
                #     Directorship, Architecture, Infrastructure        #
                #                    SHARK, DRIVERS                     #
                #        Core code/Algorithms in most modules           #
                #                                                       #
                #        Max Planck Institute fuer Kohlenforschung      #
                #                Kaiser Wilhelm Platz 1                 #
                #                 D-45470 Muelheim/Ruhr                 #
                #                      Germany                          #
                #                                                       #
                #                  All rights reserved                  #
                #                        -***-                          #
                #########################################################


                         Program Version 6.0.0  -   RELEASE   -


 With contributions from (in alphabetic order):
   Daniel Aravena         : Magnetic Suceptibility
   Michael Atanasov       : Ab Initio Ligand Field Theory (pilot matlab implementation)
   Alexander A. Auer      : GIAO ZORA, VPT2 properties, NMR spectrum
   Ute Becker             : All parallelization in ORCA, NUMFREQ, NUMCALC
   Giovanni Bistoni       : ED, misc. LED, open-shell LED, HFLD
   Martin Brehm           : Molecular dynamics
   Dmytro Bykov           : pre 5.0 version of the SCF Hessian
   Marcos Casanova-Páez   : Triplet and SCS-CIS(D). UHF-(DLPNO)-IP/EA/STEOM-CCSD. UHF-CVS-IP/STEOM-CCSD
   Vijay G. Chilkuri      : MRCI spin determinant printing, contributions to CSF-ICE
   Pauline Colinet        : FMM embedding
   Dipayan Datta          : RHF DLPNO-CCSD density
   Achintya Kumar Dutta   : EOM-CC, STEOM-CC
   Nicolas Foglia         : Exact transition moments, OPA infrastructure, MCD improvements
   Dmitry Ganyushin       : Spin-Orbit,Spin-Spin,Magnetic field MRCI
   Miquel Garcia          : C-PCM and meta-GGA Hessian, CCSD/C-PCM, Gaussian charge scheme
   Tiago L. C. Gouveia    : GS-ROHF, GS-ROCIS
   Yang Guo               : DLPNO-NEVPT2, F12-NEVPT2, CIM, IAO-localization
   Andreas Hansen         : Spin unrestricted coupled pair/coupled cluster methods
   Ingolf Harden          : AUTO-CI MPn and infrastructure 
   Benjamin Helmich-Paris : MC-RPA, TRAH-(SCF,CASSCF), AVAS, COSX integrals, SCF dyn. polar.
   Lee Huntington         : MR-EOM, pCC
   Robert Izsak           : Overlap fitted RIJCOSX, COSX-SCS-MP3, EOM
   Riya Kayal             : Wick's Theorem for AUTO-CI, AUTO-CI UHF-CCSDT
   Emily Kempfer          : AUTO-CI, RHF CISDT and CCSDT
   Christian Kollmar      : KDIIS, OOCD, Brueckner-CCSD(T), CCSD density, CASPT2, CASPT2-K, improved NEVPT2
   Axel Koslowski         : Symmetry handling
   Simone Kossmann        : Meta GGA functionals, TD-DFT gradient, OOMP2, (MP2 Hessian; deprecated post 5.0)
   Lucas Lang             : DCDCAS
   Marvin Lechner         : AUTO-CI (C++ implementation), FIC-MRCC
   Spencer Leger          : CASSCF response
   Dagmar Lenk            : GEPOL surface, SMD, ORCA-2-JSON
   Dimitrios Liakos       : Extrapolation schemes; Compound Job, initial MDCI parallelization
   Dimitrios Manganas     : Further ROCIS development; embedding schemes. LFT, Crystal Embedding
   Dimitrios Pantazis     : SARC Basis sets
   Anastasios Papadopoulos: AUTO-CI, single reference methods and gradients
   Taras Petrenko         : pre 6.0 DFT Hessian and TD-DFT gradient, (ASA, deprecated), ECA, 1-Electron XAS/XES, NRVS
   Peter Pinski           : DLPNO-MP2, DLPNO-MP2 Gradient
   Christoph Reimann      : Effective Core Potentials
   Marius Retegan         : Local ZFS, SOC
   Christoph Riplinger    : Optimizer, TS searches, QM/MM, DLPNO-CCSD(T), (RO)-DLPNO pert. Triples
   Michael Roemelt        : Original ROCIS implementation
   Masaaki Saitow         : Open-shell DLPNO-CCSD energy and density
   Barbara Sandhoefer     : DKH picture change effects
   Kantharuban Sivalingam : CASSCF convergence/infrastructure, NEVPT2 and variants, FIC-MRCI
   Bernardo de Souza      : ESD, SOC TD-DFT
   Georgi Stoychev        : AutoAux, RI-MP2 NMR, DLPNO-MP2 response, X2C
   Van Anh Tran           : RI-MP2 g-tensors
   Willem Van den Heuvel  : Paramagnetic NMR
   Zikuan Wang            : NOTCH, Electric field optimization 
   Frank Wennmohs         : Technical directorship and infrastructure
   Hang Xu                : AUTO-CI-Response properties 


 We gratefully acknowledge several colleagues who have allowed us to
 interface, adapt or use parts of their codes:
   Stefan Grimme, W. Hujo, H. Kruse, P. Pracht,  : VdW corrections, initial TS optimization,
                  C. Bannwarth, S. Ehlert,         DFT functionals, gCP, sTDA/sTD-DF
                  L. Wittmann, M. Mueller
   Ed Valeev, F. Pavosevic, A. Kumar             : LibInt (2-el integral package), F12 methods
   Garnet Chan, S. Sharma, J. Yang, R. Olivares  : DMRG
   Ulf Ekstrom                                   : XCFun DFT Library
   Mihaly Kallay                                 : mrcc  (arbitrary order and MRCC methods)
   Frank Weinhold                                : gennbo (NPA and NBO analysis)
   Simon Mueller                                 : openCOSMO-RS
   Christopher J. Cramer and Donald G. Truhlar   : smd solvation model
   Lars Goerigk                                  : TD-DFT with DH, B97 family of functionals
   V. Asgeirsson, H. Jonsson                     : NEB implementation
   FAccTs GmbH                                   : IRC, NEB, NEB-TS, DLPNO-Multilevel, CI-OPT
                                                   MM, QMMM, 2- and 3-layer-ONIOM, Crystal-QMMM,
                                                   LR-CPCM, SF, NACMEs, symmetry and pop. for TD-DFT,
                                                   nearIR, NL-DFT gradient (VV10), updates on ESD,
                                                   ML-optimized integration grids, MBIS, APM,
                                                   GOAT, DOCKER, SOLVATOR, interface openCOSMO-RS
   S Lehtola, MJT Oliveira, MAL Marques          : LibXC Library
   Liviu Ungur et al                             : ANISO software


 Your calculation uses the libint2 library for the computation of 2-el integrals
 For citations please refer to: http://libint.valeyev.net

 Your ORCA version has been built with support for libXC version: 6.2.2
 For citations please refer to: https://libxc.gitlab.io

 This ORCA versions uses:
   CBLAS   interface :  Fast vector & matrix operations
   LAPACKE interface :  Fast linear algebra routines
   Shared memory     :  Shared parallel matrices


Your calculation utilizes the atom-pairwise dispersion correction
with the Becke-Johnson damping scheme (D3BJ)


Warning: RI is on but no J-basis has been assigned. Assigning Def2/J (nothing to worry about!)
================================================================================

----- Orbital basis set information -----
Your calculation utilizes the basis: def2-SVP
   F. Weigend and R. Ahlrichs, Phys. Chem. Chem. Phys. 7, 3297 (2005).

----- AuxJ basis set information -----
Your calculation utilizes the auxiliary basis: def2/J
   F. Weigend, Phys. Chem. Chem. Phys. 8, 1057 (2006).

================================================================================
                                        WARNINGS
                       Please study these warnings very carefully!
================================================================================


WARNING: Geometry Optimization
  ===> : Switching off AutoStart
         For restart on a previous wavefunction, please use MOREAD

================================================================================
                                       INPUT FILE
================================================================================
NAME = data/geom_opt/69597/69597.inp
|  1> ! RIJONX B3LYP def2-SVP D3BJ TIGHTSCF Opt
|  2> %pal
|  3> nprocs 6
|  4> end
|  5> 
|  6> * xyz 0 1
|  7> C     -2.286744   -0.828031   -0.955374
|  8> P     -1.554620   -0.530040    0.699619
|  9> C     -2.106181    1.196557    0.979709
| 10> C      0.207234   -0.312296    0.307404
| 11> C      0.675464    0.578137   -0.667905
| 12> C      2.043938    0.702915   -0.926149
| 13> C      2.962990   -0.061494   -0.212141
| 14> C      2.514525   -0.950893    0.760243
| 15> C      1.146475   -1.074825    1.017561
| 16> H     -3.374958   -0.908953   -0.872489
| 17> H     -2.067044   -0.026141   -1.665760
| 18> H     -1.914153   -1.767431   -1.374953
| 19> H     -1.899710    1.850122    0.127554
| 20> H     -3.185228    1.218423    1.160839
| 21> H     -1.612244    1.617769    1.860590
| 22> H     -0.014201    1.189569   -1.243264
| 23> H      2.390456    1.398357   -1.686091
| 24> H      4.026477    0.035582   -0.412944
| 25> H      3.226816   -1.550290    1.320898
| 26> H      0.820708   -1.777038    1.782651
| 27> **                         ****END OF INPUT****
================================================================================

                       *****************************
                       * Geometry Optimization Run *
                       *****************************

Geometry optimization settings:
Update method            Update   .... BFGS
Choice of coordinates    CoordSys .... (2022) Redundant Internals
Initial Hessian          InHess   .... Almloef's Model
Max. no of cycles        MaxIter  .... 60

Convergence Tolerances:
Energy Change            TolE     ....  5.0000e-06 Eh
Max. Gradient            TolMAXG  ....  3.0000e-04 Eh/bohr
RMS Gradient             TolRMSG  ....  1.0000e-04 Eh/bohr
Max. Displacement        TolMAXD  ....  4.0000e-03 bohr
RMS Displacement         TolRMSD  ....  2.0000e-03 bohr
Strict Convergence                .... False

------------------------------------------------------------------------------
                        ORCA OPTIMIZATION COORDINATE SETUP
------------------------------------------------------------------------------

The optimization will be done in redundant internal coordinates (2022)
Making redundant internal coordinates   ...  (2022 redundants) done
Evaluating the initial hessian          ...  (Almloef) done
Evaluating the coordinates              ...  done
Calculating the B-matrix                .... done
Calculating the G-matrix                .... done
Diagonalizing the G-matrix              .... done
Small eigenvalue found = 2.510e-02
Small eigenvalue found = 2.737e-02
The first mode is                       ....   37
The number of degrees of freedom        ....   54

    -----------------------------------------------------------------
                    Redundant Internal Coordinates


    -----------------------------------------------------------------
         Definition                    Initial Value    Approx d2E/dq
    -----------------------------------------------------------------
      1. B(P   1,C   0)                  1.8341         0.410913   
      2. B(C   2,P   1)                  1.8341         0.410913   
      3. B(C   3,P   1)                  1.8181         0.435789   
      4. B(C   4,C   3)                  1.4012         0.599630   
      5. B(C   5,C   4)                  1.3982         0.606242   
      6. B(C   6,C   5)                  1.3924         0.619306   
      7. B(C   7,C   6)                  1.3920         0.620208   
      8. B(C   8,C   7)                  1.3975         0.607716   
      9. B(C   8,C   3)                  1.4028         0.596020   
     10. B(H   9,C   0)                  1.0944         0.354376   
     11. B(H  10,C   0)                  1.0936         0.355379   
     12. B(H  11,C   0)                  1.0942         0.354545   
     13. B(H  12,C   2)                  1.0936         0.355378   
     14. B(H  13,C   2)                  1.0944         0.354375   
     15. B(H  14,C   2)                  1.0942         0.354544   
     16. B(H  15,C   4)                  1.0865         0.364734   
     17. B(H  16,C   5)                  1.0868         0.364302   
     18. B(H  17,C   6)                  1.0866         0.364595   
     19. B(H  18,C   7)                  1.0867         0.364460   
     20. B(H  19,C   8)                  1.0884         0.362238   
     21. A(H  10,C   0,H  11)          108.1809         0.289531   
     22. A(H   9,C   0,H  11)          107.7071         0.289402   
     23. A(H   9,C   0,H  10)          107.6492         0.289509   
     24. A(P   1,C   0,H  10)          112.7576         0.349099   
     25. A(P   1,C   0,H  11)          110.4610         0.348961   
     26. A(P   1,C   0,H   9)          109.9140         0.348932   
     27. A(C   0,P   1,C   3)          102.2178         0.430698   
     28. A(C   0,P   1,C   2)           99.8293         0.426183   
     29. A(C   2,P   1,C   3)          102.2178         0.430698   
     30. A(H  13,C   2,H  14)          107.7071         0.289402   
     31. A(H  12,C   2,H  14)          108.1809         0.289530   
     32. A(P   1,C   2,H  14)          110.4611         0.348960   
     33. A(H  12,C   2,H  13)          107.6492         0.289509   
     34. A(P   1,C   2,H  13)          109.9139         0.348932   
     35. A(P   1,C   2,H  12)          112.7576         0.349099   
     36. A(C   4,C   3,C   8)          118.2979         0.428423   
     37. A(P   1,C   3,C   8)          118.3280         0.431597   
     38. A(P   1,C   3,C   4)          123.3742         0.432066   
     39. A(C   3,C   4,H  15)          120.9370         0.351680   
     40. A(C   5,C   4,H  15)          118.2438         0.352333   
     41. A(C   3,C   4,C   5)          120.8192         0.429732   
     42. A(C   6,C   5,H  16)          119.9597         0.353536   
     43. A(C   4,C   5,H  16)          119.8874         0.352262   
     44. A(C   4,C   5,C   6)          120.1529         0.432231   
     45. A(C   5,C   6,C   7)          119.7571         0.434005   
     46. A(C   7,C   6,H  17)          120.0980         0.353671   
     47. A(C   5,C   6,H  17)          120.1449         0.353584   
     48. A(C   8,C   7,H  18)          119.8488         0.352433   
     49. A(C   6,C   7,H  18)          120.1083         0.353649   
     50. A(C   6,C   7,C   8)          120.0430         0.432533   
     51. A(C   3,C   8,C   7)          120.9300         0.429453   
     52. A(C   7,C   8,H  19)          118.6617         0.352069   
     53. A(C   3,C   8,H  19)          120.4083         0.350914   
     54. D(C   2,P   1,C   0,H   9)    -71.1611         0.003789   
     55. D(C   2,P   1,C   0,H  10)     48.9490         0.003789   
     56. D(C   3,P   1,C   0,H  10)    -55.9595         0.003789   
     57. D(C   2,P   1,C   0,H  11)    170.1244         0.003789   
     58. D(C   3,P   1,C   0,H   9)   -176.0696         0.003789   
     59. D(H  12,C   2,P   1,C   0)    -48.9489         0.003789   
     60. D(H  12,C   2,P   1,C   3)     55.9595         0.003789   
     61. D(H  13,C   2,P   1,C   3)    176.0696         0.003789   
     62. D(H  14,C   2,P   1,C   0)   -170.1244         0.003789   
     63. D(H  13,C   2,P   1,C   0)     71.1612         0.003789   
     64. D(C   8,C   3,P   1,C   2)    128.4808         0.003867   
     65. D(C   4,C   3,P   1,C   2)    -51.5192         0.003867   
     66. D(C   4,C   3,P   1,C   0)     51.5192         0.003867   
     67. D(C   8,C   3,P   1,C   0)   -128.4808         0.003867   
     68. D(C   5,C   4,C   3,P   1)   -180.0000         0.024785   
     69. D(H  15,C   4,C   3,C   8)   -180.0000         0.024785   
     70. D(H  15,C   4,C   3,P   1)      0.0000         0.024785   
     71. D(C   5,C   4,C   3,C   8)      0.0000         0.024785   
     72. D(H  16,C   5,C   4,H  15)      0.0000         0.025365   
     73. D(H  16,C   5,C   4,C   3)   -180.0000         0.025365   
     74. D(C   6,C   5,C   4,H  15)    180.0000         0.025365   
     75. D(C   6,C   5,C   4,C   3)     -0.0001         0.025365   
     76. D(H  17,C   6,C   5,H  16)     -0.0001         0.026536   
     77. D(H  17,C   6,C   5,C   4)    180.0000         0.026536   
     78. D(C   7,C   6,C   5,H  16)    180.0000         0.026536   
     79. D(C   7,C   6,C   5,C   4)      0.0000         0.026536   
     80. D(H  18,C   7,C   6,H  17)     -0.0000         0.026618   
     81. D(H  18,C   7,C   6,C   5)    179.9999         0.026618   
     82. D(C   8,C   7,C   6,H  17)   -179.9999         0.026618   
     83. D(C   8,C   7,C   6,C   5)      0.0000         0.026618   
     84. D(C   7,C   8,C   3,P   1)    180.0000         0.024472   
     85. D(H  19,C   8,C   7,H  18)      0.0001         0.025496   
     86. D(H  19,C   8,C   7,C   6)    180.0000         0.025496   
     87. D(C   3,C   8,C   7,H  18)   -179.9999         0.025496   
     88. D(C   3,C   8,C   7,C   6)     -0.0000         0.025496   
     89. D(H  19,C   8,C   3,C   4)    180.0000         0.024472   
     90. D(H  19,C   8,C   3,P   1)     -0.0000         0.024472   
     91. D(C   7,C   8,C   3,C   4)     -0.0000         0.024472   
    -----------------------------------------------------------------

Number of atoms                         .... 20
Number of degrees of freedom            .... 91


         *************************************************************
         *                GEOMETRY OPTIMIZATION CYCLE   1            *
         *************************************************************
---------------------------------
CARTESIAN COORDINATES (ANGSTROEM)
---------------------------------
  C     -2.286744   -0.828031   -0.955374
  P     -1.554620   -0.530040    0.699619
  C     -2.106181    1.196557    0.979709
  C      0.207234   -0.312296    0.307404
  C      0.675464    0.578137   -0.667905
  C      2.043938    0.702915   -0.926149
  C      2.962990   -0.061494   -0.212141
  C      2.514525   -0.950893    0.760243
  C      1.146475   -1.074825    1.017561
  H     -3.374958   -0.908953   -0.872489
  H     -2.067044   -0.026141   -1.665760
  H     -1.914153   -1.767431   -1.374953
  H     -1.899710    1.850122    0.127554
  H     -3.185228    1.218423    1.160839
  H     -1.612244    1.617769    1.860590
  H     -0.014201    1.189569   -1.243264
  H      2.390456    1.398357   -1.686091
  H      4.026477    0.035582   -0.412944
  H      3.226816   -1.550290    1.320898
  H      0.820708   -1.777038    1.782651

----------------------------
CARTESIAN COORDINATES (A.U.)
----------------------------
  NO LB      ZA    FRAG     MASS         X           Y           Z
   0 C     6.0000    0    12.011   -4.321320   -1.564752   -1.805395
   1 P    15.0000    0    30.974   -2.937806   -1.001630    1.322088
   2 C     6.0000    0    12.011   -3.980105    2.261165    1.851382
   3 C     6.0000    0    12.011    0.391616   -0.590154    0.580909
   4 C     6.0000    0    12.011    1.276442    1.092521   -1.262158
   5 C     6.0000    0    12.011    3.862483    1.328317   -1.750168
   6 C     6.0000    0    12.011    5.599240   -0.116207   -0.400888
   7 C     6.0000    0    12.011    4.751764   -1.796927    1.436651
   8 C     6.0000    0    12.011    2.166524   -2.031125    1.922912
   9 H     1.0000    0     1.008   -6.377746   -1.717672   -1.648765
  10 H     1.0000    0     1.008   -3.906147   -0.049399   -3.147830
  11 H     1.0000    0     1.008   -3.617225   -3.339961   -2.598285
  12 H     1.0000    0     1.008   -3.589932    3.496224    0.241042
  13 H     1.0000    0     1.008   -6.019209    2.302486    2.193668
  14 H     1.0000    0     1.008   -3.046700    3.057140    3.516006
  15 H     1.0000    0     1.008   -0.026836    2.247960   -2.349428
  16 H     1.0000    0     1.008    4.517307    2.642512   -3.186250
  17 H     1.0000    0     1.008    7.608939    0.067240   -0.780351
  18 H     1.0000    0     1.008    6.097799   -2.929624    2.496135
  19 H     1.0000    0     1.008    1.550913   -3.358115    3.368722

--------------------------------
INTERNAL COORDINATES (ANGSTROEM)
--------------------------------
 C      0   0   0     0.000000000000     0.00000000     0.00000000
 P      1   0   0     1.834068160540     0.00000000     0.00000000
 C      2   1   0     1.834068467978    99.82929075     0.00000000
 C      2   1   3     1.818068913182   102.21782143   255.09155417
 C      4   2   1     1.401191602127   123.37416516    51.51922780
 C      5   4   2     1.398206208503   120.81918723   180.00004889
 C      6   5   4     1.392402643652   120.15290514     0.00000000
 C      7   6   5     1.392006494555   119.75709724     0.00000000
 C      8   7   6     1.397545167874   120.04297781     0.00000000
 H      1   2   3     1.094361915961   109.91396670   288.83885073
 H      1   2   3     1.093592214263   112.75759779    48.94896530
 H      1   2   3     1.094231671321   110.46101029   170.12436252
 H      3   2   1     1.093592989686   112.75762974   311.05106286
 H      3   2   1     1.094362201040   109.91393336    71.16117810
 H      3   2   1     1.094232445632   110.46107413   189.87563955
 H      5   4   2     1.086519618659   120.93700792     0.00000000
 H      6   5   4     1.086842280670   119.88740791   180.00000171
 H      7   6   5     1.086623298919   120.14486627   179.99995133
 H      8   7   6     1.086724096225   120.10825836   179.99992939
 H      9   8   7     1.088388691488   118.66174178   179.99996559

---------------------------
INTERNAL COORDINATES (A.U.)
---------------------------
 C      0   0   0     0.000000000000     0.00000000     0.00000000
 P      1   0   0     3.465886534365     0.00000000     0.00000000
 C      2   1   0     3.465887115338    99.82929075     0.00000000
 C      2   1   3     3.435652338509   102.21782143   255.09155417
 C      4   2   1     2.647868389170   123.37416516    51.51922780
 C      5   4   2     2.642226812819   120.81918723   180.00004889
 C      6   5   4     2.631259664650   120.15290514     0.00000000
 C      7   6   5     2.630511051348   119.75709724     0.00000000
 C      8   7   6     2.640977627067   120.04297781     0.00000000
 H      1   2   3     2.068044312559   109.91396670   288.83885073
 H      1   2   3     2.066589787145   112.75759779    48.94896530
 H      1   2   3     2.067798185860   110.46101029   170.12436252
 H      3   2   1     2.066591252483   112.75762974   311.05106286
 H      3   2   1     2.068044851281   109.91393336    71.16117810
 H      3   2   1     2.067799649096   110.46107413   189.87563955
 H      5   4   2     2.053224518397   120.93700792     0.00000000
 H      6   5   4     2.053834261233   119.88740791   180.00000171
 H      7   6   5     2.053420445695   120.14486627   179.99995133
 H      8   7   6     2.053610924997   120.10825836   179.99992939
 H      9   8   7     2.056756554168   118.66174178   179.99996559

---------------------
BASIS SET INFORMATION
---------------------
There are 3 groups of distinct atoms

 Group   1 Type C   : 7s4p1d contracted to 3s2p1d pattern {511/31/1}
 Group   2 Type P   : 10s7p1d contracted to 4s3p1d pattern {5311/511/1}
 Group   3 Type H   : 4s1p contracted to 2s1p pattern {31/1}

Atom   0C    basis set group =>   1
Atom   1P    basis set group =>   2
Atom   2C    basis set group =>   1
Atom   3C    basis set group =>   1
Atom   4C    basis set group =>   1
Atom   5C    basis set group =>   1
Atom   6C    basis set group =>   1
Atom   7C    basis set group =>   1
Atom   8C    basis set group =>   1
Atom   9H    basis set group =>   3
Atom  10H    basis set group =>   3
Atom  11H    basis set group =>   3
Atom  12H    basis set group =>   3
Atom  13H    basis set group =>   3
Atom  14H    basis set group =>   3
Atom  15H    basis set group =>   3
Atom  16H    basis set group =>   3
Atom  17H    basis set group =>   3
Atom  18H    basis set group =>   3
Atom  19H    basis set group =>   3
---------------------------------
AUXILIARY/J BASIS SET INFORMATION
---------------------------------
There are 3 groups of distinct atoms

 Group   1 Type C   : 12s5p4d2f1g contracted to 6s4p3d1f1g pattern {711111/2111/211/2/1}
 Group   2 Type P   : 14s5p5d2f1g contracted to 8s4p3d1f1g pattern {71111111/2111/311/2/1}
 Group   3 Type H   : 5s2p1d contracted to 3s1p1d pattern {311/2/1}

Atom   0C    basis set group =>   1
Atom   1P    basis set group =>   2
Atom   2C    basis set group =>   1
Atom   3C    basis set group =>   1
Atom   4C    basis set group =>   1
Atom   5C    basis set group =>   1
Atom   6C    basis set group =>   1
Atom   7C    basis set group =>   1
Atom   8C    basis set group =>   1
Atom   9H    basis set group =>   3
Atom  10H    basis set group =>   3
Atom  11H    basis set group =>   3
Atom  12H    basis set group =>   3
Atom  13H    basis set group =>   3
Atom  14H    basis set group =>   3
Atom  15H    basis set group =>   3
Atom  16H    basis set group =>   3
Atom  17H    basis set group =>   3
Atom  18H    basis set group =>   3
Atom  19H    basis set group =>   3


           ************************************************************
           *        Program running with 6 parallel MPI-processes     *
           *              working on a common directory               *
           ************************************************************
------------------------------------------------------------------------------
                             ORCA STARTUP CALCULATIONS
                           -- RI-GTO INTEGRALS CHOSEN --
------------------------------------------------------------------------------
------------------------------------------------------------------------------
                   ___                                                        
                  /   \      - P O W E R E D   B Y -                         
                 /     \                                                     
                 |  |  |   _    _      __       _____    __    __             
                 |  |  |  | |  | |    /  \     |  _  \  |  |  /  |          
                  \  \/   | |  | |   /    \    | | | |  |  | /  /          
                 / \  \   | |__| |  /  /\  \   | |_| |  |  |/  /          
                |  |  |   |  __  | /  /__\  \  |    /   |      \           
                |  |  |   | |  | | |   __   |  |    \   |  |\   \          
                \     /   | |  | | |  |  |  |  | |\  \  |  | \   \       
                 \___/    |_|  |_| |__|  |__|  |_| \__\ |__|  \__/        
                                                                              
                      - O R C A' S   B I G   F R I E N D -                    
                                      &                                       
                       - I N T E G R A L  F E E D E R -                       
                                                                              
 v1 FN, 2020, v2 2021, v3 2022-2024                                           
------------------------------------------------------------------------------


----------------------
SHARK INTEGRAL PACKAGE
----------------------

Number of atoms                             ...     20
Number of basis functions                   ...    185
Number of shells                            ...     89
Maximum angular momentum                    ...      2
Integral batch strategy                     ... SHARK/LIBINT Hybrid
RI-J (if used) integral strategy            ... SPLIT-RIJ (Revised 2003 algorithm where possible)
Printlevel                                  ...      1
Contraction scheme used                     ... SEGMENTED contraction
Prescreening option                         ... SCHWARTZ
   Thresh                                   ... 2.500e-11
   Tcut                                     ... 2.500e-12
   Tpresel                                  ... 2.500e-12 
Coulomb Range Separation                    ... NOT USED
Exchange Range Separation                   ... NOT USED
Multipole approximations                    ... NOT USED
Finite Nucleus Model                        ... NOT USED
CABS basis                                  ... NOT available
Auxiliary Coulomb fitting basis             ... AVAILABLE
   # of basis functions in Aux-J            ...    564
   # of shells in Aux-J                     ...    192
   Maximum angular momentum in Aux-J        ...      4
Auxiliary J/K fitting basis                 ... NOT available
Auxiliary Correlation fitting basis         ... NOT available
Auxiliary 'external' fitting basis          ... NOT available

Checking pre-screening integrals            ... done (  0.0 sec) Dimension = 89
Check shell pair data                       ... done (  0.0 sec)
Shell pair information
Shell pair cut-off parameter TPreSel        ...   2.5e-12
Total number of shell pairs                 ...      4005
Shell pairs after pre-screening             ...      3655
Total number of primitive shell pairs       ...     14525
Primitive shell pairs kept                  ...      9420
          la=0 lb=0:   1167 shell pairs
          la=1 lb=0:   1373 shell pairs
          la=1 lb=1:    417 shell pairs
          la=2 lb=0:    417 shell pairs
          la=2 lb=1:    240 shell pairs
          la=2 lb=2:     41 shell pairs

Calculating one electron integrals          ... done (  0.0 sec)
Calculating RI/J V-Matrix + Cholesky decomp.... done (  0.0 sec)
Calculating Nuclear repulsion               ... done (  0.0 sec) ENN=    496.013125510364 Eh

Diagonalization of the overlap matrix:
Smallest eigenvalue                        ... 2.950e-04
Time for diagonalization                   ...    0.004 sec
Threshold for overlap eigenvalues          ... 1.000e-07
Number of eigenvalues below threshold      ... 0
Time for construction of square roots      ...    0.004 sec
Total time needed                          ...    0.008 sec

-------------------
DFT GRID GENERATION
-------------------

General Integration Accuracy     IntAcc      ... 4.388
Radial Grid Type                 RadialGrid  ... OptM3 with GC (2021)
Angular Grid (max. ang.)         AngularGrid ... 4 (Lebedev-302)
Angular grid pruning method      GridPruning ... 4 (adaptive)
Weight generation scheme         WeightScheme... mBecke (2022)
Basis function cutoff            BFCut       ... 1.0000e-11
Integration weight cutoff        WCut        ... 1.0000e-14
Partially contracted basis set               ... off
Rotationally invariant grid construction     ... off
Angular grids for H and He will be reduced by one unit

Total number of grid points                  ...    90677
Total number of batches                      ...     1427
Average number of points per batch           ...       63
Average number of grid points per atom       ...     4534
Initializing property integral containers    ... done (  0.0 sec)

SHARK setup successfully completed in   0.6 seconds

Maximum memory used throughout the entire STARTUP-calculation: 24.5 MB


           ************************************************************
           *        Program running with 6 parallel MPI-processes     *
           *              working on a common directory               *
           ************************************************************
-------------------------------------------------------------------------------
                                 ORCA GUESS
                   Start orbitals & Density for SCF / CASSCF
-------------------------------------------------------------------------------

------------
SCF SETTINGS
------------
Hamiltonian:
 Density Functional     Method          .... DFT(GTOs)
 Exchange Functional    Exchange        .... B88
   X-Alpha parameter    XAlpha          ....  0.666667
   Becke's b parameter  XBeta           ....  0.004200
 Correlation Functional Correlation     .... LYP
 LDA part of GGA corr.  LDAOpt          .... VWN-5
 Gradients option       PostSCFGGA      .... off
 Hybrid DFT is turned on
   Fraction HF Exchange ScalHFX         ....  0.200000
   Scaling of DF-GGA-X  ScalDFX         ....  0.720000
   Scaling of DF-GGA-C  ScalDFC         ....  0.810000
   Scaling of DF-LDA-C  ScalLDAC        ....  1.000000
   Perturbative correction              ....  0.000000
   NL short-range parameter             ....  4.800000
 RI-approximation to the Coulomb term is turned on
   Number of AuxJ basis functions       .... 564
   RIJ-ON(X) (HFX calculated with O(N)) .... on


General Settings:
 Integral files         IntName         .... data/geom_opt/69597/69597
 Hartree-Fock type      HFTyp           .... RHF
 Total Charge           Charge          ....    0
 Multiplicity           Mult            ....    1
 Number of Electrons    NEL             ....   74
 Basis Dimension        Dim             ....  185
 Nuclear Repulsion      ENuc            ....    496.0131255104 Eh

Convergence Acceleration:
 AO-DIIS                CNVDIIS         .... on
   Start iteration      DIISMaxIt       ....    12
   Startup error        DIISStart       ....  0.200000
   # of expansion vecs  DIISMaxEq       ....     5
   Bias factor          DIISBfac        ....   1.050
   Max. coefficient     DIISMaxC        ....  10.000
 MO-DIIS                CNVKDIIS        .... off
 Trust-Rad. Augm. Hess. CNVTRAH         .... auto
   Auto Start mean grad. ratio tolernc. ....  1.125000
   Auto Start start iteration           ....    50
   Auto Start num. interpolation iter.  ....    10
   Max. Number of Micro iterations      ....    24
   Max. Number of Macro iterations      .... Maxiter - #DIIS iter
   Number of Davidson start vectors     ....     2
   Converg. threshold    (grad. norm)   ....   1.000e-05
   Grad. Scal. Fac. for Micro threshold ....   0.100
   Minimum threshold for Micro iter.    ....   1.000e-02
   NR start threshold (gradient norm)   ....   1.000e-04
   Initial trust radius                 ....   0.400
   Minimum AH scaling param. (alpha)    ....   1.000
   Maximum AH scaling param. (alpha)    .... 1000.000
   Quad. conv. algorithm                .... NR
   White noise on init. David. guess    .... on
   Maximum white noise                  ....   0.010
   Pseudo random numbers                .... off
   Inactive MOs                         .... canonical
   Orbital update algorithm             .... Taylor
   Preconditioner                       .... Diag
   Full preconditioner red. dimension   ....   250
   COSX micro iterations for RIJONX calc.... off
 SOSCF                  CNVSOSCF        .... on
   Start iteration      SOSCFMaxIt      ....   150
   Startup grad/error   SOSCFStart      ....  0.003300
   Hessian update       SOSCFHessUp     .... L-BFGS
 Level Shifting         CNVShift        .... on
   Level shift para.    LevelShift      ....    0.2500
   Turn off err/grad.   ShiftErr        ....    0.0010
 Zerner damping         CNVZerner       .... off
 Static damping         CNVDamp         .... on
   Fraction old density DampFac         ....    0.7000
   Max. Damping (<1)    DampMax         ....    0.9800
   Min. Damping (>=0)   DampMin         ....    0.0000
   Turn off err/grad.   DampErr         ....    0.1000

SCF Procedure:
 Maximum # iterations   MaxIter         ....   125
 SCF integral mode      SCFMode         .... Direct
   Integral package                     .... SHARK and LIBINT hybrid scheme
 Reset frequency        DirectResetFreq ....    20
 Integral Threshold     Thresh          ....  2.500e-11 Eh
 Primitive CutOff       TCut            ....  2.500e-12 Eh

Convergence Tolerance:
 Convergence Check Mode ConvCheckMode   .... Total+1el-Energy
 Convergence forced     ConvForced      .... 0
 Energy Change          TolE            ....  1.000e-08 Eh
 1-El. energy change                    ....  1.000e-05 Eh
 Orbital Gradient       TolG            ....  1.000e-05
 Orbital Rotation angle TolX            ....  1.000e-05
 DIIS Error             TolErr          ....  5.000e-07

------------------------------
INITIAL GUESS: MODEL POTENTIAL
------------------------------
Loading Hartree-Fock densities                     ... done
Calculating cut-offs                               ... done
Initializing the effective Hamiltonian             ... done
Setting up the integral package (SHARK)            ... done
Starting the Coulomb interaction                   ... done (   0.0 sec)
Making the grid                                    ... done (   0.1 sec)
Mapping shells                                     ... done
Starting the XC term evaluation                    ... done (   0.1 sec)
  promolecular density results
     # of electrons  =     73.997675052
     EX              =    -67.026499066
     EC              =     -2.533488143
     EX+EC           =    -69.559987209
Transforming the Hamiltonian                       ... done (   0.0 sec)
Diagonalizing the Hamiltonian                      ... done (   0.0 sec)
Back transforming the eigenvectors                 ... done (   0.0 sec)
Now organizing SCF variables                       ... done
                      ------------------
                      INITIAL GUESS DONE (   0.3 sec)
                      ------------------
             **** ENERGY FILE WAS UPDATED (data/geom_opt/69597/69597.en.tmp) ****
Finished Guess after   0.3 sec
Maximum memory used throughout the entire GUESS-calculation: 13.1 MB


           ************************************************************
           *        Program running with 6 parallel MPI-processes     *
           *              working on a common directory               *
           ************************************************************

-------------------------------------------------------------------------------------------
                                      ORCA LEAN-SCF
                              memory conserving SCF solver
-------------------------------------------------------------------------------------------

----------------------------------------D-I-I-S--------------------------------------------
Iteration    Energy (Eh)           Delta-E    RMSDP     MaxDP     DIISErr   Damp  Time(sec)
-------------------------------------------------------------------------------------------
               ***  Starting incremental Fock matrix formation  ***
    1    -651.9900719297982050     0.00e+00  3.42e-03  8.96e-02  1.81e-01  0.700   0.8
    2    -652.1063700794277338    -1.16e-01  2.46e-03  5.49e-02  9.29e-02  0.700   0.8
                               ***Turning on AO-DIIS***
    3    -652.1552345082266129    -4.89e-02  1.14e-03  3.23e-02  3.38e-02  0.700   0.8
    4    -652.1831656397628194    -2.79e-02  2.15e-03  7.42e-02  1.63e-02  0.000   0.7
    5    -652.2431250928998452    -6.00e-02  2.96e-04  9.15e-03  5.84e-03  0.000   0.8
                              *** Initializing SOSCF ***
---------------------------------------S-O-S-C-F--------------------------------------
Iteration    Energy (Eh)           Delta-E    RMSDP     MaxDP     MaxGrad    Time(sec)
--------------------------------------------------------------------------------------
    6    -652.2435199857675343    -3.95e-04  1.05e-04  2.35e-03  1.87e-03     0.7
               *** Restarting incremental Fock matrix formation ***
    7    -652.2435511592473176    -3.12e-05  7.22e-05  1.08e-03  2.38e-04     0.8
    8    -652.2435504384536671     7.21e-07  2.79e-05  5.78e-04  4.61e-04     0.7
    9    -652.2435543094568402    -3.87e-06  1.87e-05  5.67e-04  1.12e-04     0.6
   10    -652.2435541586373802     1.51e-07  9.72e-06  1.65e-04  1.09e-04     0.6
   11    -652.2435545582598024    -4.00e-07  2.27e-06  1.02e-04  7.35e-06     0.5
   12    -652.2435545563478172     1.91e-09  1.02e-06  3.31e-05  1.45e-05     0.5
                 **** Energy Check signals convergence ****

               *****************************************************
               *                     SUCCESS                       *
               *           SCF CONVERGED AFTER  12 CYCLES          *
               *****************************************************

             **** ENERGY FILE WAS UPDATED (data/geom_opt/69597/69597.en.tmp) ****

----------------
TOTAL SCF ENERGY
----------------

Total Energy       :       -652.24355455634782 Eh          -17748.44943 eV

Components:
Nuclear Repulsion  :        496.01312551036443 Eh           13497.20333 eV
Electronic Energy  :      -1148.25668006671231 Eh          -31245.65276 eV
One Electron Energy:      -1874.64730959453345 Eh          -51011.74668 eV
Two Electron Energy:        726.39062952782126 Eh           19766.09392 eV

Virial components:
Potential Energy   :      -1300.23283259812024 Eh          -35381.13412 eV
Kinetic Energy     :        647.98927804177254 Eh           17632.68468 eV
Virial Ratio       :          2.00656535016664

DFT components:
N(Alpha)           :       37.000115676669 electrons
N(Beta)            :       37.000115676669 electrons
N(Total)           :       74.000231353338 electrons
E(X)               :      -53.910283788048 Eh       
E(C)               :       -2.991996827684 Eh       
E(XC)              :      -56.902280615731 Eh       

---------------
SCF CONVERGENCE
---------------

  Last Energy change         ...   -1.9120e-09  Tolerance :   1.0000e-08
  Last MAX-Density change    ...    3.3149e-05  Tolerance :   1.0000e-07
  Last RMS-Density change    ...    1.0229e-06  Tolerance :   5.0000e-09
  Last DIIS Error            ...    1.8721e-03  Tolerance :   5.0000e-07
  Last Orbital Gradient      ...    1.4454e-05  Tolerance :   1.0000e-05
  Last Orbital Rotation      ...    2.5547e-05  Tolerance :   1.0000e-05


----------------
ORBITAL ENERGIES
----------------

  NO   OCC          E(Eh)            E(eV) 
   0   2.0000     -77.033280     -2096.1821 
   1   2.0000     -10.191363      -277.3211 
   2   2.0000     -10.190279      -277.2916 
   3   2.0000     -10.189626      -277.2738 
   4   2.0000     -10.189379      -277.2671 
   5   2.0000     -10.188318      -277.2382 
   6   2.0000     -10.185381      -277.1583 
   7   2.0000     -10.176161      -276.9074 
   8   2.0000     -10.176126      -276.9065 
   9   2.0000      -6.531807      -177.7395 
  10   2.0000      -4.697315      -127.8204 
  11   2.0000      -4.696975      -127.8112 
  12   2.0000      -4.694024      -127.7309 
  13   2.0000      -0.847932       -23.0734 
  14   2.0000      -0.761135       -20.7115 
  15   2.0000      -0.737744       -20.0750 
  16   2.0000      -0.718929       -19.5630 
  17   2.0000      -0.679306       -18.4849 
  18   2.0000      -0.606051       -16.4915 
  19   2.0000      -0.598059       -16.2740 
  20   2.0000      -0.543696       -14.7947 
  21   2.0000      -0.500699       -13.6247 
  22   2.0000      -0.454952       -12.3799 
  23   2.0000      -0.446758       -12.1569 
  24   2.0000      -0.428144       -11.6504 
  25   2.0000      -0.423349       -11.5199 
  26   2.0000      -0.413684       -11.2569 
  27   2.0000      -0.405035       -11.0216 
  28   2.0000      -0.394231       -10.7276 
  29   2.0000      -0.382494       -10.4082 
  30   2.0000      -0.369185       -10.0460 
  31   2.0000      -0.347118        -9.4456 
  32   2.0000      -0.334537        -9.1032 
  33   2.0000      -0.319679        -8.6989 
  34   2.0000      -0.255805        -6.9608 
  35   2.0000      -0.254575        -6.9273 
  36   2.0000      -0.217364        -5.9148 
  37   0.0000      -0.020757        -0.5648 
  38   0.0000      -0.009416        -0.2562 
  39   0.0000       0.058314         1.5868 
  40   0.0000       0.063846         1.7373 
  41   0.0000       0.078788         2.1439 
  42   0.0000       0.093072         2.5326 
  43   0.0000       0.098886         2.6908 
  44   0.0000       0.114661         3.1201 
  45   0.0000       0.116450         3.1688 
  46   0.0000       0.128344         3.4924 
  47   0.0000       0.136640         3.7182 
*Only the first 10 virtual orbitals were printed.

                    ********************************
                    * MULLIKEN POPULATION ANALYSIS *
                    ********************************

-----------------------
MULLIKEN ATOMIC CHARGES
-----------------------
   0 C :   -0.128214
   1 P :    0.157844
   2 C :   -0.128025
   3 C :   -0.102417
   4 C :    0.006631
   5 C :    0.026844
   6 C :    0.027206
   7 C :    0.023310
   8 C :    0.012974
   9 H :    0.038641
  10 H :    0.021724
  11 H :    0.045678
  12 H :    0.021716
  13 H :    0.038621
  14 H :    0.045618
  15 H :   -0.026164
  16 H :   -0.022497
  17 H :   -0.018698
  18 H :   -0.019189
  19 H :   -0.021602
Sum of atomic charges:   -0.0000000

--------------------------------
MULLIKEN REDUCED ORBITAL CHARGES
--------------------------------
  0 C s       :     3.045025  s :     3.045025
      pz      :     1.017414  p :     3.060136
      px      :     1.018809
      py      :     1.023913
      dz2     :     0.004617  d :     0.023053
      dxz     :     0.002468
      dyz     :     0.006930
      dx2y2   :     0.006804
      dxy     :     0.002235

  1 P s       :     5.771434  s :     5.771434
      pz      :     3.081614  p :     8.887780
      px      :     2.763617
      py      :     3.042550
      dz2     :     0.045426  d :     0.182941
      dxz     :     0.035074
      dyz     :     0.019737
      dx2y2   :     0.054134
      dxy     :     0.028571

  2 C s       :     3.044930  s :     3.044930
      pz      :     1.022869  p :     3.060042
      px      :     1.019480
      py      :     1.017693
      dz2     :     0.004375  d :     0.023053
      dxz     :     0.003206
      dyz     :     0.006796
      dx2y2   :     0.006649
      dxy     :     0.002026

  3 C s       :     3.061171  s :     3.061171
      pz      :     0.995917  p :     3.004497
      px      :     1.010963
      py      :     0.997617
      dz2     :     0.006980  d :     0.036750
      dxz     :     0.008315
      dyz     :     0.005484
      dx2y2   :     0.008202
      dxy     :     0.007768

  4 C s       :     3.212870  s :     3.212870
      pz      :     0.939389  p :     2.745288
      px      :     0.869827
      py      :     0.936072
      dz2     :     0.005425  d :     0.035211
      dxz     :     0.009192
      dyz     :     0.004582
      dx2y2   :     0.007199
      dxy     :     0.008813

  5 C s       :     3.156659  s :     3.156659
      pz      :     0.909185  p :     2.781348
      px      :     0.951419
      py      :     0.920743
      dz2     :     0.004754  d :     0.035150
      dxz     :     0.008869
      dyz     :     0.004585
      dx2y2   :     0.008242
      dxy     :     0.008701

  6 C s       :     3.158227  s :     3.158227
      pz      :     0.965929  p :     2.779122
      px      :     0.843429
      py      :     0.969764
      dz2     :     0.007256  d :     0.035444
      dxz     :     0.007140
      dyz     :     0.005593
      dx2y2   :     0.008874
      dxy     :     0.006581

  7 C s       :     3.158879  s :     3.158879
      pz      :     0.939369  p :     2.782789
      px      :     0.907706
      py      :     0.935714
      dz2     :     0.005541  d :     0.035022
      dxz     :     0.008986
      dyz     :     0.004562
      dx2y2   :     0.007263
      dxy     :     0.008669

  8 C s       :     3.227281  s :     3.227281
      pz      :     0.906265  p :     2.724626
      px      :     0.900259
      py      :     0.918102
      dz2     :     0.004729  d :     0.035119
      dxz     :     0.008723
      dyz     :     0.004654
      dx2y2   :     0.008460
      dxy     :     0.008553

  9 H s       :     0.937316  s :     0.937316
      pz      :     0.004821  p :     0.024043
      px      :     0.014059
      py      :     0.005163

 10 H s       :     0.954323  s :     0.954323
      pz      :     0.008717  p :     0.023952
      px      :     0.005438
      py      :     0.009796

 11 H s       :     0.930498  s :     0.930498
      pz      :     0.006002  p :     0.023824
      px      :     0.006033
      py      :     0.011789

 12 H s       :     0.954326  s :     0.954326
      pz      :     0.010445  p :     0.023958
      px      :     0.005396
      py      :     0.008118

 13 H s       :     0.937335  s :     0.937335
      pz      :     0.005391  p :     0.024045
      px      :     0.013892
      py      :     0.004762

 14 H s       :     0.930559  s :     0.930559
      pz      :     0.010964  p :     0.023822
      px      :     0.006868
      py      :     0.005991

 15 H s       :     1.003036  s :     1.003036
      pz      :     0.007260  p :     0.023128
      px      :     0.008134
      py      :     0.007735

 16 H s       :     0.999498  s :     0.999498
      pz      :     0.009630  p :     0.022999
      px      :     0.004591
      py      :     0.008778

 17 H s       :     0.995736  s :     0.995736
      pz      :     0.004397  p :     0.022962
      px      :     0.014411
      py      :     0.004154

 18 H s       :     0.996196  s :     0.996196
      pz      :     0.007087  p :     0.022993
      px      :     0.008323
      py      :     0.007583

 19 H s       :     0.998500  s :     0.998500
      pz      :     0.009667  p :     0.023102
      px      :     0.004653
      py      :     0.008781



                     *******************************
                     * LOEWDIN POPULATION ANALYSIS *
                     *******************************

----------------------
LOEWDIN ATOMIC CHARGES
----------------------
   0 C :   -0.209789
   1 P :    0.463584
   2 C :   -0.209766
   3 C :   -0.183223
   4 C :   -0.024474
   5 C :   -0.024950
   6 C :   -0.019021
   7 C :   -0.025190
   8 C :   -0.024718
   9 H :    0.026749
  10 H :    0.013096
  11 H :    0.029375
  12 H :    0.013090
  13 H :    0.026755
  14 H :    0.029354
  15 H :    0.019328
  16 H :    0.024853
  17 H :    0.025885
  18 H :    0.025952
  19 H :    0.023110

-------------------------------
LOEWDIN REDUCED ORBITAL CHARGES
-------------------------------
  0 C s       :     2.893024  s :     2.893024
      pz      :     1.095334  p :     3.258188
      px      :     1.080744
      py      :     1.082111
      dz2     :     0.012482  d :     0.058577
      dxz     :     0.006380
      dyz     :     0.017164
      dx2y2   :     0.017158
      dxy     :     0.005393

  1 P s       :     5.275303  s :     5.275303
      pz      :     3.124931  p :     9.016861
      px      :     2.811233
      py      :     3.080698
      dz2     :     0.060738  d :     0.244252
      dxz     :     0.046681
      dyz     :     0.024563
      dx2y2   :     0.075399
      dxy     :     0.036871

  2 C s       :     2.893020  s :     2.893020
      pz      :     1.081958  p :     3.258169
      px      :     1.080019
      py      :     1.096192
      dz2     :     0.011119  d :     0.058577
      dxz     :     0.007947
      dyz     :     0.016663
      dx2y2   :     0.017787
      dxy     :     0.005061

  3 C s       :     2.910653  s :     2.910653
      pz      :     1.042905  p :     3.179704
      px      :     1.099785
      py      :     1.037014
      dz2     :     0.015752  d :     0.092866
      dxz     :     0.021585
      dyz     :     0.015848
      dx2y2   :     0.019700
      dxy     :     0.019981

  4 C s       :     2.862932  s :     2.862932
      pz      :     1.010653  p :     3.069136
      px      :     1.054112
      py      :     1.004371
      dz2     :     0.012991  d :     0.092405
      dxz     :     0.024479
      dyz     :     0.012099
      dx2y2   :     0.020001
      dxy     :     0.022835

  5 C s       :     2.860507  s :     2.860507
      pz      :     1.005598  p :     3.073263
      px      :     1.064007
      py      :     1.003657
      dz2     :     0.011409  d :     0.091181
      dxz     :     0.023043
      dyz     :     0.011476
      dx2y2   :     0.022778
      dxy     :     0.022475

  6 C s       :     2.859976  s :     2.859976
      pz      :     1.016303  p :     3.067251
      px      :     1.038948
      py      :     1.012000
      dz2     :     0.016999  d :     0.091795
      dxz     :     0.018909
      dyz     :     0.015827
      dx2y2   :     0.022674
      dxy     :     0.017386

  7 C s       :     2.860583  s :     2.860583
      pz      :     1.012121  p :     3.073732
      px      :     1.055323
      py      :     1.006288
      dz2     :     0.013125  d :     0.090875
      dxz     :     0.023452
      dyz     :     0.012243
      dx2y2   :     0.019950
      dxy     :     0.022105

  8 C s       :     2.867617  s :     2.867617
      pz      :     1.000927  p :     3.065353
      px      :     1.066693
      py      :     0.997733
      dz2     :     0.011642  d :     0.091749
      dxz     :     0.022687
      dyz     :     0.011518
      dx2y2   :     0.023679
      dxy     :     0.022224

  9 H s       :     0.904691  s :     0.904691
      pz      :     0.014433  p :     0.068559
      px      :     0.041077
      py      :     0.013049

 10 H s       :     0.916868  s :     0.916868
      pz      :     0.028512  p :     0.070036
      px      :     0.014146
      py      :     0.027378

 11 H s       :     0.902145  s :     0.902145
      pz      :     0.018766  p :     0.068479
      px      :     0.016058
      py      :     0.033655

 12 H s       :     0.916873  s :     0.916873
      pz      :     0.029345  p :     0.070037
      px      :     0.013845
      py      :     0.026847

 13 H s       :     0.904686  s :     0.904686
      pz      :     0.013679  p :     0.068559
      px      :     0.040258
      py      :     0.014623

 14 H s       :     0.902168  s :     0.902168
      pz      :     0.031104  p :     0.068478
      px      :     0.018352
      py      :     0.019022

 15 H s       :     0.912347  s :     0.912347
      pz      :     0.021438  p :     0.068325
      px      :     0.024179
      py      :     0.022708

 16 H s       :     0.907512  s :     0.907512
      pz      :     0.027739  p :     0.067634
      px      :     0.014461
      py      :     0.025434

 17 H s       :     0.906664  s :     0.906664
      pz      :     0.013720  p :     0.067451
      px      :     0.040685
      py      :     0.013045

 18 H s       :     0.906462  s :     0.906462
      pz      :     0.020889  p :     0.067587
      px      :     0.024498
      py      :     0.022200

 19 H s       :     0.908369  s :     0.908369
      pz      :     0.028394  p :     0.068521
      px      :     0.014192
      py      :     0.025936



                      *****************************
                      * MAYER POPULATION ANALYSIS *
                      *****************************

  NA   - Mulliken gross atomic population
  ZA   - Total nuclear charge
  QA   - Mulliken gross atomic charge
  VA   - Mayer's total valence
  BVA  - Mayer's bonded valence
  FA   - Mayer's free valence

  ATOM       NA         ZA         QA         VA         BVA        FA
  0 C      6.1282     6.0000    -0.1282     3.8900     3.8900    -0.0000
  1 P     14.8422    15.0000     0.1578     3.0605     3.0605    -0.0000
  2 C      6.1280     6.0000    -0.1280     3.8901     3.8901    -0.0000
  3 C      6.1024     6.0000    -0.1024     3.7305     3.7305     0.0000
  4 C      5.9934     6.0000     0.0066     3.8790     3.8790    -0.0000
  5 C      5.9732     6.0000     0.0268     3.8547     3.8547    -0.0000
  6 C      5.9728     6.0000     0.0272     3.8325     3.8325    -0.0000
  7 C      5.9767     6.0000     0.0233     3.8412     3.8412    -0.0000
  8 C      5.9870     6.0000     0.0130     3.8859     3.8859     0.0000
  9 H      0.9614     1.0000     0.0386     0.9865     0.9865    -0.0000
 10 H      0.9783     1.0000     0.0217     0.9950     0.9950    -0.0000
 11 H      0.9543     1.0000     0.0457     0.9884     0.9884    -0.0000
 12 H      0.9783     1.0000     0.0217     0.9951     0.9951    -0.0000
 13 H      0.9614     1.0000     0.0386     0.9866     0.9866    -0.0000
 14 H      0.9544     1.0000     0.0456     0.9884     0.9884    -0.0000
 15 H      1.0262     1.0000    -0.0262     0.9865     0.9865    -0.0000
 16 H      1.0225     1.0000    -0.0225     0.9766     0.9766    -0.0000
 17 H      1.0187     1.0000    -0.0187     0.9769     0.9769    -0.0000
 18 H      1.0192     1.0000    -0.0192     0.9771     0.9771    -0.0000
 19 H      1.0216     1.0000    -0.0216     0.9959     0.9959     0.0000

  Mayer bond orders larger than 0.100000
B(  0-C ,  1-P ) :   0.9944 B(  0-C ,  9-H ) :   0.9663 B(  0-C , 10-H ) :   0.9500 
B(  0-C , 11-H ) :   0.9664 B(  1-P ,  2-C ) :   0.9944 B(  1-P ,  3-C ) :   0.9161 
B(  2-C , 12-H ) :   0.9500 B(  2-C , 13-H ) :   0.9663 B(  2-C , 14-H ) :   0.9664 
B(  3-C ,  4-C ) :   1.3538 B(  3-C ,  8-C ) :   1.3953 B(  4-C ,  5-C ) :   1.4076 
B(  4-C , 15-H ) :   0.9830 B(  5-C ,  6-C ) :   1.3766 B(  5-C , 16-H ) :   0.9841 
B(  6-C ,  7-C ) :   1.3891 B(  6-C , 17-H ) :   0.9863 B(  7-C ,  8-C ) :   1.3836 
B(  7-C , 18-H ) :   0.9869 B(  8-C , 19-H ) :   0.9881 

-------
TIMINGS
-------

Total SCF time: 0 days 0 hours 0 min 8 sec 

Total time                  ....       8.442 sec
Sum of individual times     ....       8.405 sec  ( 99.6%)

SCF preparation             ....       0.071 sec  (  0.8%)
Fock matrix formation       ....       8.029 sec  ( 95.1%)
  Startup                   ....       0.026 sec  (  0.3% of F)
  Exchange formation        ....       5.255 sec  ( 65.5% of F)
  Split-RI-J                ....       0.754 sec  (  9.4% of F)
  XC integration            ....       1.885 sec  ( 23.5% of F)
    Basis function eval.    ....       0.543 sec  ( 28.8% of XC)
    Density eval.           ....       0.392 sec  ( 20.8% of XC)
    XC-Functional eval.     ....       0.068 sec  (  3.6% of XC)
    XC-Potential eval.      ....       0.476 sec  ( 25.3% of XC)
Diagonalization             ....       0.000 sec  (  0.0%)
Density matrix formation    ....       0.054 sec  (  0.6%)
Total Energy calculation    ....       0.025 sec  (  0.3%)
Population analysis         ....       0.030 sec  (  0.4%)
Orbital Transformation      ....       0.021 sec  (  0.2%)
Orbital Orthonormalization  ....       0.000 sec  (  0.0%)
DIIS solution               ....       0.111 sec  (  1.3%)
SOSCF solution              ....       0.064 sec  (  0.8%)
Finished LeanSCF after   8.5 sec

Maximum memory used throughout the entire LEANSCF-calculation: 17.6 MB


-------------------------------------------------------------------------------
                          DFT DISPERSION CORRECTION                            
                                                                               
                              DFTD3 V3.1  Rev 1                                
                          USING Becke-Johnson damping                          
-------------------------------------------------------------------------------
The B3LYP functional is recognized
Active option DFTDOPT                   ...         4   

molecular C6(AA) [au] = 4912.322169 


            DFT-D V3
 parameters
 s6 scaling factor         :     1.0000 
 a1 scaling factor         :     0.3981 
 s8 scaling factor         :     1.9889 
 a2 scaling factor         :     4.4211 
 ad hoc parameters k1-k3   :    16.0000     1.3333    -4.0000 

 Edisp/kcal,au: -24.508540786179  -0.039056841665 
 E6   /kcal   : -11.072993192 
 E8   /kcal   : -13.435547594 
 % E8         :  54.819859376 

-------------------------   ----------------
Dispersion correction           -0.039056842
-------------------------   ----------------


-------------------------   --------------------
FINAL SINGLE POINT ENERGY      -652.282611398013
-------------------------   --------------------



           ************************************************************
           *        Program running with 6 parallel MPI-processes     *
           *              working on a common directory               *
           ************************************************************
------------------------------------------------------------------------------
                         ORCA SCF GRADIENT CALCULATION
------------------------------------------------------------------------------

Nuc. rep. gradient        (SHARK) ... done (  0.0 sec)
HCore & Overlap gradient  (SHARK) ... done (  0.1 sec)
Split-RIJ-J gradient      (SHARK) ... done (  0.3 sec)
O(N)X-gradient            (SHARK) ... done (  2.3 sec)
XC gradient                       ... done (  1.2 sec)
Dispersion correction             ... done (  0.1 sec)

-------------------
DISPERSION GRADIENT
-------------------

   1   C   :   -0.000550527   -0.000385215   -0.000366650
   2   P   :   -0.000630858   -0.000293586    0.000366031
   3   C   :   -0.000477679    0.000431604    0.000414058
   4   C   :    0.000374219   -0.000159728    0.000132197
   5   C   :    0.000528441   -0.000005166   -0.000043904
   6   C   :    0.000422934    0.000213453   -0.000262790
   7   C   :    0.000245488    0.000007866   -0.000031137
   8   C   :    0.000428962   -0.000166235    0.000133897
   9   C   :    0.000097345   -0.000057615    0.000051197
  10   H   :   -0.000220065   -0.000159747   -0.000162696
  11   H   :   -0.000259679   -0.000087638   -0.000330277
  12   H   :   -0.000218783   -0.000239114   -0.000217318
  13   H   :   -0.000220090    0.000356261    0.000093997
  14   H   :   -0.000188979    0.000188813    0.000170454
  15   H   :   -0.000175493    0.000246277    0.000246614
  16   H   :    0.000146733    0.000285757   -0.000312665
  17   H   :    0.000121675    0.000182181   -0.000201961
  18   H   :    0.000276323    0.000024445   -0.000051360
  19   H   :    0.000199131   -0.000153843    0.000142377
  20   H   :    0.000100899   -0.000228770    0.000229937

Difference to translation invariance:
           :    0.0000000000   -0.0000000000   -0.0000000000

Difference to rotation invariance:
           :   -0.0000000000   -0.0000000000    0.0000000000

Norm of the Dispersion gradient    ...    0.0020726873
RMS gradient                       ...    0.0002675828
MAX gradient                       ...    0.0006308575

------------------
CARTESIAN GRADIENT
------------------

   1   C   :    0.000706472   -0.000908880    0.006917485
   2   P   :    0.009839813    0.015126922   -0.016655143
   3   C   :    0.000186325   -0.006873080    0.001141593
   4   C   :   -0.008149262   -0.002110123    0.002968147
   5   C   :   -0.007924676   -0.000556401    0.001324280
   6   C   :    0.005447705   -0.000346390   -0.000143256
   7   C   :   -0.001014815    0.000675535   -0.000615820
   8   C   :    0.003189205   -0.000168763   -0.000123494
   9   C   :   -0.004040881   -0.000187294    0.000569862
  10   H   :    0.004820137    0.000576798   -0.002134760
  11   H   :   -0.001721734   -0.004654494    0.004851878
  12   H   :   -0.002040650    0.004138548    0.000393207
  13   H   :   -0.001673566   -0.004552304    0.005015365
  14   H   :    0.004910776    0.001659157   -0.001090611
  15   H   :   -0.002442314   -0.000380120   -0.003908441
  16   H   :    0.004518910   -0.002041955    0.001691604
  17   H   :   -0.001167466   -0.002981772    0.003229374
  18   H   :   -0.004496983   -0.000501978    0.000943608
  19   H   :   -0.002792596    0.002529646   -0.002385830
  20   H   :    0.003845599    0.001556948   -0.001989048

Difference to translation invariance:
           :    0.0000000000    0.0000000000    0.0000000000

Difference to rotation invariance:
           :   -0.0001889106    0.0003938129    0.0001040242

Norm of the Cartesian gradient     ...    0.0347898895
RMS gradient                       ...    0.0044913554
MAX gradient                       ...    0.0166551433

-------
TIMINGS
-------

Total SCF gradient time     ....        3.954 sec

One electron gradient       ....       0.068 sec  (  1.7%)
Two electron gradient       ....       2.311 sec  ( 58.4%)
RI-J Coulomb gradient       ....       0.262 sec  (  6.6%)
XC gradient                 ....       1.247 sec  ( 31.5%)

Maximum memory used throughout the entire SCFGRAD-calculation: 29.9 MB
------------------------------------------------------------------------------
                         ORCA GEOMETRY RELAXATION STEP
------------------------------------------------------------------------------

Reading the OPT-File                    .... done
Getting information on internals        .... done
Copying old internal coords+grads       .... done
Making the new internal coordinates     .... (2022 redundants) done
Validating the new internal coordinates .... (2022 redundants) done
Calculating the B-matrix                .... done
Calculating the G,G- and P matrices     .... done
Transforming gradient to internals      .... done
Projecting the internal gradient        .... done
Number of atoms                         ....  20
Number of internal coordinates          ....  91
Current Energy                          ....  -652.282611398 Eh
Current gradient norm                   ....     0.034789890 Eh/bohr
Maximum allowed component of the step   ....  0.300
Current trust radius                    ....  0.300
Evaluating the initial hessian          ....  (Almloef) done
Projecting the Hessian                  .... done
Forming the augmented Hessian           .... done
Diagonalizing the augmented Hessian     .... done
Last element of RFO vector              ....  0.992860611
Lowest eigenvalues of augmented Hessian:
 -0.002393790  0.003789066  0.003829855  0.003866905  0.018116168
Length of the computed step             ....  0.120138080
The final length of the internal step   ....  0.120138080
Converting the step to Cartesian space:
 Initial RMS(Int)=    0.0125938928
Transforming coordinates:
 Iter   0:  RMS(Cart)=    0.0259805531 RMS(Int)=    1.1408735992
done
Storing new coordinates                 .... done

                                .--------------------.
          ----------------------|Geometry convergence|-------------------------
          Item                value                   Tolerance       Converged
          ---------------------------------------------------------------------
          RMS gradient        0.0030789301            0.0001000000      NO
          MAX gradient        0.0138794253            0.0003000000      NO
          RMS step            0.0125938928            0.0020000000      NO
          MAX step            0.0436883875            0.0040000000      NO
          ........................................................
          Max(Bonds)      0.0168      Max(Angles)    1.06
          Max(Dihed)        2.50      Max(Improp)    0.00
          ---------------------------------------------------------------------

The optimization has not yet converged - more geometry cycles are needed


    ---------------------------------------------------------------------------
                         Redundant Internal Coordinates
                            (Angstroem and degrees)

        Definition                    Value    dE/dq     Step     New-Value
    ----------------------------------------------------------------------------
     1. B(P   1,C   0)                1.8341 -0.009598  0.0123    1.8464   
     2. B(C   2,P   1)                1.8341 -0.009675  0.0124    1.8465   
     3. B(C   3,P   1)                1.8181 -0.013879  0.0168    1.8348   
     4. B(C   4,C   3)                1.4012 -0.004600  0.0040    1.4052   
     5. B(C   5,C   4)                1.3982  0.000590 -0.0005    1.3977   
     6. B(C   6,C   5)                1.3924 -0.005931  0.0051    1.3975   
     7. B(C   7,C   6)                1.3920 -0.005092  0.0044    1.3964   
     8. B(C   8,C   7)                1.3975 -0.001648  0.0014    1.3990   
     9. B(C   8,C   3)                1.4028 -0.001564  0.0013    1.4041   
    10. B(H   9,C   0)                1.0944 -0.004999  0.0074    1.1018   
    11. B(H  10,C   0)                1.0936 -0.006904  0.0102    1.1038   
    12. B(H  11,C   0)                1.0942 -0.004398  0.0065    1.1008   
    13. B(H  12,C   2)                1.0936 -0.006945  0.0103    1.1039   
    14. B(H  13,C   2)                1.0944 -0.004988  0.0074    1.1018   
    15. B(H  14,C   2)                1.0942 -0.004397  0.0065    1.1008   
    16. B(H  15,C   4)                1.0865 -0.004915  0.0071    1.0936   
    17. B(H  16,C   5)                1.0868 -0.004540  0.0066    1.0934   
    18. B(H  17,C   6)                1.0866 -0.004621  0.0067    1.0933   
    19. B(H  18,C   7)                1.0867 -0.004455  0.0064    1.0932   
    20. B(H  19,C   8)                1.0884 -0.003552  0.0052    1.0935   
    21. A(H  10,C   0,H  11)          108.18 -0.001216    0.16    108.34   
    22. A(H   9,C   0,H  11)          107.71 -0.000547    0.03    107.74   
    23. A(H   9,C   0,H  10)          107.65 -0.001135    0.33    107.98   
    24. A(P   1,C   0,H  10)          112.76 -0.001832    0.31    113.07   
    25. A(P   1,C   0,H  11)          110.46  0.001985   -0.39    110.07   
    26. A(P   1,C   0,H   9)          109.91  0.002661   -0.42    109.50   
    27. A(C   0,P   1,C   3)          102.22  0.002886   -1.06    101.16   
    28. A(C   0,P   1,C   2)           99.83  0.000256   -0.53     99.29   
    29. A(C   2,P   1,C   3)          102.22  0.002827   -1.04    101.17   
    30. A(H  13,C   2,H  14)          107.71 -0.000541    0.03    107.74   
    31. A(H  12,C   2,H  14)          108.18 -0.001174    0.15    108.33   
    32. A(P   1,C   2,H  14)          110.46  0.001976   -0.39    110.07   
    33. A(H  12,C   2,H  13)          107.65 -0.001089    0.32    107.97   
    34. A(P   1,C   2,H  13)          109.91  0.002686   -0.42    109.49   
    35. A(P   1,C   2,H  12)          112.76 -0.001936    0.33    113.08   
    36. A(C   4,C   3,C   8)          118.30 -0.000244    0.01    118.31   
    37. A(P   1,C   3,C   8)          118.33  0.000995   -0.12    118.21   
    38. A(P   1,C   3,C   4)          123.37 -0.000752    0.11    123.48   
    39. A(C   3,C   4,H  15)          120.94  0.002282   -0.35    120.58   
    40. A(C   5,C   4,H  15)          118.24 -0.001458    0.25    118.49   
    41. A(C   3,C   4,C   5)          120.82 -0.000823    0.10    120.92   
    42. A(C   6,C   5,H  16)          119.96 -0.000637    0.09    120.05   
    43. A(C   4,C   5,H  16)          119.89 -0.000022   -0.01    119.88   
    44. A(C   4,C   5,C   6)          120.15  0.000658   -0.08    120.07   
    45. A(C   5,C   6,C   7)          119.76  0.000461   -0.04    119.72   
    46. A(C   7,C   6,H  17)          120.10 -0.000369    0.04    120.14   
    47. A(C   5,C   6,H  17)          120.14 -0.000092   -0.00    120.14   
    48. A(C   8,C   7,H  18)          119.85  0.000105   -0.02    119.82   
    49. A(C   6,C   7,H  18)          120.11 -0.000235    0.03    120.14   
    50. A(C   6,C   7,C   8)          120.04  0.000130   -0.00    120.04   
    51. A(C   3,C   8,C   7)          120.93 -0.000182    0.02    120.95   
    52. A(C   7,C   8,H  19)          118.66 -0.002911    0.48    119.14   
    53. A(C   3,C   8,H  19)          120.41  0.003093   -0.49    119.91   
    54. D(C   2,P   1,C   0,H   9)    -71.16  0.002091    0.67    -70.49   
    55. D(C   2,P   1,C   0,H  10)     48.95  0.001286    1.01     49.96   
    56. D(C   3,P   1,C   0,H  10)    -55.96 -0.002436    2.50    -53.46   
    57. D(C   2,P   1,C   0,H  11)    170.12 -0.000120    1.14    171.27   
    58. D(C   3,P   1,C   0,H   9)   -176.07 -0.001631    2.17   -173.90   
    59. D(H  12,C   2,P   1,C   0)    -48.95 -0.001317   -0.97    -49.91   
    60. D(H  12,C   2,P   1,C   3)     55.96  0.002453   -2.47     53.49   
    61. D(H  13,C   2,P   1,C   3)    176.07  0.001654   -2.13    173.94   
    62. D(H  14,C   2,P   1,C   0)   -170.12  0.000113   -1.10   -171.22   
    63. D(H  13,C   2,P   1,C   0)     71.16 -0.002116   -0.63     70.53   
    64. D(C   8,C   3,P   1,C   2)    128.48 -0.000905    0.47    128.95   
    65. D(C   4,C   3,P   1,C   2)    -51.52 -0.000897    0.44    -51.08   
    66. D(C   4,C   3,P   1,C   0)     51.52  0.000930   -0.70     50.82   
    67. D(C   8,C   3,P   1,C   0)   -128.48  0.000922   -0.67   -129.15   
    68. D(C   5,C   4,C   3,P   1)   -180.00 -0.000018    0.04   -179.96   
    69. D(H  15,C   4,C   3,C   8)   -180.00 -0.000004    0.01   -179.99   
    70. D(H  15,C   4,C   3,P   1)      0.00 -0.000012    0.03      0.03   
    71. D(C   5,C   4,C   3,C   8)      0.00 -0.000010    0.02      0.02   
    72. D(H  16,C   5,C   4,H  15)      0.00  0.000003   -0.01     -0.01   
    73. D(H  16,C   5,C   4,C   3)   -180.00  0.000009   -0.02   -180.02   
    74. D(C   6,C   5,C   4,H  15)    180.00  0.000002   -0.00    180.00   
    75. D(C   6,C   5,C   4,C   3)     -0.00  0.000008   -0.01     -0.01   
    76. D(H  17,C   6,C   5,H  16)     -0.00 -0.000001    0.00      0.00   
    77. D(H  17,C   6,C   5,C   4)    180.00  0.000000   -0.00    180.00   
    78. D(C   7,C   6,C   5,H  16)    180.00 -0.000001    0.00    180.00   
    79. D(C   7,C   6,C   5,C   4)      0.00  0.000000   -0.00     -0.00   
    80. D(H  18,C   7,C   6,H  17)     -0.00 -0.000002    0.00      0.00   
    81. D(H  18,C   7,C   6,C   5)    180.00 -0.000002    0.00    180.00   
    82. D(C   8,C   7,C   6,H  17)   -180.00 -0.000006    0.01   -179.99   
    83. D(C   8,C   7,C   6,C   5)      0.00 -0.000006    0.01      0.01   
    84. D(C   7,C   8,C   3,P   1)    180.00  0.000012   -0.03    179.97   
    85. D(H  19,C   8,C   7,H  18)      0.00  0.000000   -0.00     -0.00   
    86. D(H  19,C   8,C   7,C   6)    180.00  0.000004   -0.01    179.99   
    87. D(C   3,C   8,C   7,H  18)   -180.00 -0.000001    0.00   -180.00   
    88. D(C   3,C   8,C   7,C   6)     -0.00  0.000003   -0.01     -0.01   
    89. D(H  19,C   8,C   3,C   4)    180.00  0.000003   -0.01    179.99   
    90. D(H  19,C   8,C   3,P   1)     -0.00  0.000011   -0.03     -0.03   
    91. D(C   7,C   8,C   3,C   4)     -0.00  0.000004   -0.01     -0.01   
    ----------------------------------------------------------------------------

Geometry step timings:
Preparation and reading OPT file:      0.000 s ( 0.000 %)
Internal coordinates            :      0.001 s (20.000 %)
B/P matrices and projection     :      0.001 s (20.000 %)
Hessian update/contruction      :      0.001 s (20.000 %)
Making the step                 :      0.001 s (20.000 %)
Converting the step to Cartesian:      0.000 s ( 0.000 %)
Storing new data                :      0.000 s ( 0.000 %)
Checking convergence            :      0.000 s ( 0.000 %)
Final printing                  :      0.001 s (20.000 %)
Total time                      :      0.005 s

Time for energy+gradient        :     13.748 s
Time for complete geometry iter :     13.864 s

         *************************************************************
         *                GEOMETRY OPTIMIZATION CYCLE   2            *
         *************************************************************
---------------------------------
CARTESIAN COORDINATES (ANGSTROEM)
---------------------------------
  C     -2.284212   -0.828839   -0.959871
  P     -1.568837   -0.548334    0.718995
  C     -2.103920    1.199141    0.982464
  C      0.206151   -0.319216    0.314615
  C      0.668786    0.574841   -0.665743
  C      2.034806    0.706054   -0.930897
  C      2.963100   -0.056980   -0.217374
  C      2.519702   -0.949879    0.760423
  C      1.151556   -1.078469    1.022692
  H     -3.382612   -0.876779   -0.888228
  H     -2.024044   -0.033145   -1.679293
  H     -1.932327   -1.790132   -1.364528
[...]
      pz      :     0.005093  p :     0.023549
      px      :     0.013790
      py      :     0.004666

 14 H s       :     0.928351  s :     0.928351
      pz      :     0.011123  p :     0.023388
      px      :     0.006578
      py      :     0.005687

 15 H s       :     1.000085  s :     1.000085
      pz      :     0.007052  p :     0.022856
      px      :     0.008292
      py      :     0.007512

 16 H s       :     0.996181  s :     0.996181
      pz      :     0.009575  p :     0.022715
      px      :     0.004455
      py      :     0.008685

 17 H s       :     0.992235  s :     0.992235
      pz      :     0.004334  p :     0.022668
      px      :     0.014244
      py      :     0.004090

 18 H s       :     0.992916  s :     0.992916
      pz      :     0.006972  p :     0.022714
      px      :     0.008308
      py      :     0.007434

 19 H s       :     0.996557  s :     0.996557
      pz      :     0.009574  p :     0.022879
      px      :     0.004656
      py      :     0.008649



                     *******************************
                     * LOEWDIN POPULATION ANALYSIS *
                     *******************************

----------------------
LOEWDIN ATOMIC CHARGES
----------------------
   0 C :   -0.211071
   1 P :    0.464349
   2 C :   -0.211069
   3 C :   -0.177426
   4 C :   -0.027657
   5 C :   -0.026294
   6 C :   -0.020990
   7 C :   -0.026388
   8 C :   -0.029524
   9 H :    0.026062
  10 H :    0.015908
  11 H :    0.029088
  12 H :    0.015964
  13 H :    0.026019
  14 H :    0.029049
  15 H :    0.020194
  16 H :    0.026277
  17 H :    0.026985
  18 H :    0.027163
  19 H :    0.023363

-------------------------------
LOEWDIN REDUCED ORBITAL CHARGES
-------------------------------
  0 C s       :     2.903771  s :     2.903771
      pz      :     1.091359  p :     3.250870
      px      :     1.078267
      py      :     1.081243
      dz2     :     0.012582  d :     0.056431
      dxz     :     0.005962
      dyz     :     0.015500
      dx2y2   :     0.017185
      dxy     :     0.005202

  1 P s       :     5.318582  s :     5.318582
      pz      :     3.110399  p :     8.991677
      px      :     2.811130
      py      :     3.070148
      dz2     :     0.058782  d :     0.225391
      dxz     :     0.041665
      dyz     :     0.021812
      dx2y2   :     0.070960
      dxy     :     0.032172

  2 C s       :     2.903886  s :     2.903886
      pz      :     1.081100  p :     3.250760
      px      :     1.077569
      py      :     1.092091
      dz2     :     0.011511  d :     0.056423
      dxz     :     0.007668
      dyz     :     0.015080
      dx2y2   :     0.017513
      dxy     :     0.004651

  3 C s       :     2.918150  s :     2.918150
      pz      :     1.040530  p :     3.168896
      px      :     1.094095
      py      :     1.034270
      dz2     :     0.015432  d :     0.090381
      dxz     :     0.020980
      dyz     :     0.015653
      dx2y2   :     0.018928
      dxy     :     0.019388

  4 C s       :     2.865205  s :     2.865205
      pz      :     1.011959  p :     3.070751
      px      :     1.053611
      py      :     1.005181
      dz2     :     0.012927  d :     0.091701
      dxz     :     0.024397
      dyz     :     0.011949
      dx2y2   :     0.019708
      dxy     :     0.022720

  5 C s       :     2.863471  s :     2.863471
      pz      :     1.005367  p :     3.072515
      px      :     1.064109
      py      :     1.003039
      dz2     :     0.011295  d :     0.090309
      dxz     :     0.022974
      dyz     :     0.011214
      dx2y2   :     0.022544
      dxy     :     0.022283

  6 C s       :     2.864298  s :     2.864298
      pz      :     1.016948  p :     3.066722
      px      :     1.037534
      py      :     1.012240
      dz2     :     0.016641  d :     0.089971
      dxz     :     0.018722
      dyz     :     0.015535
      dx2y2   :     0.021994
      dxy     :     0.017078

  7 C s       :     2.863797  s :     2.863797
      pz      :     1.012278  p :     3.072682
      px      :     1.054327
      py      :     1.006078
      dz2     :     0.013100  d :     0.089909
      dxz     :     0.023209
      dyz     :     0.012088
      dx2y2   :     0.019759
      dxy     :     0.021752

  8 C s       :     2.869549  s :     2.869549
      pz      :     1.002622  p :     3.068704
      px      :     1.066719
      py      :     0.999362
      dz2     :     0.011525  d :     0.091272
      dxz     :     0.022917
      dyz     :     0.011219
      dx2y2   :     0.023269
      dxy     :     0.022341

  9 H s       :     0.906465  s :     0.906465
      pz      :     0.014057  p :     0.067472
      px      :     0.041028
      py      :     0.012387

 10 H s       :     0.915595  s :     0.915595
      pz      :     0.027868  p :     0.068497
      px      :     0.014104
      py      :     0.026526

 11 H s       :     0.903337  s :     0.903337
      pz      :     0.017830  p :     0.067575
      px      :     0.015335
      py      :     0.034410

 12 H s       :     0.915588  s :     0.915588
      pz      :     0.028551  p :     0.068448
      px      :     0.013750
      py      :     0.026148

 13 H s       :     0.906509  s :     0.906509
      pz      :     0.012857  p :     0.067472
      px      :     0.040319
      py      :     0.014297

 14 H s       :     0.903375  s :     0.903375
      pz      :     0.031963  p :     0.067575
      px      :     0.017538
      py      :     0.018073

 15 H s       :     0.912608  s :     0.912608
      pz      :     0.020722  p :     0.067198
      px      :     0.024520
      py      :     0.021955

 16 H s       :     0.907182  s :     0.907182
      pz      :     0.027539  p :     0.066541
      px      :     0.013874
      py      :     0.025128

 17 H s       :     0.906550  s :     0.906550
      pz      :     0.013433  p :     0.066465
      px      :     0.040284
      py      :     0.012748

 18 H s       :     0.906305  s :     0.906305
      pz      :     0.020482  p :     0.066532
      px      :     0.024341
      py      :     0.021708

 19 H s       :     0.909075  s :     0.909075
      pz      :     0.027993  p :     0.067562
      px      :     0.014166
      py      :     0.025404



                      *****************************
                      * MAYER POPULATION ANALYSIS *
                      *****************************

  NA   - Mulliken gross atomic population
  ZA   - Total nuclear charge
  QA   - Mulliken gross atomic charge
  VA   - Mayer's total valence
  BVA  - Mayer's bonded valence
  FA   - Mayer's free valence

  ATOM       NA         ZA         QA         VA         BVA        FA
  0 C      6.1444     6.0000    -0.1444     3.8943     3.8943    -0.0000
  1 P     14.8202    15.0000     0.1798     3.0344     3.0344    -0.0000
  2 C      6.1441     6.0000    -0.1441     3.8941     3.8941    -0.0000
  3 C      6.1163     6.0000    -0.1163     3.7541     3.7541    -0.0000
  4 C      5.9966     6.0000     0.0034     3.8875     3.8875    -0.0000
  5 C      5.9756     6.0000     0.0244     3.8548     3.8548     0.0000
  6 C      5.9782     6.0000     0.0218     3.8335     3.8335    -0.0000
  7 C      5.9781     6.0000     0.0219     3.8386     3.8386    -0.0000
  8 C      5.9899     6.0000     0.0101     3.8895     3.8895     0.0000
  9 H      0.9596     1.0000     0.0404     0.9852     0.9852    -0.0000
 10 H      0.9710     1.0000     0.0290     0.9951     0.9951    -0.0000
 11 H      0.9516     1.0000     0.0484     0.9863     0.9863    -0.0000
 12 H      0.9710     1.0000     0.0290     0.9950     0.9950    -0.0000
 13 H      0.9597     1.0000     0.0403     0.9851     0.9851    -0.0000
 14 H      0.9517     1.0000     0.0483     0.9863     0.9863    -0.0000
 15 H      1.0229     1.0000    -0.0229     0.9872     0.9872    -0.0000
 16 H      1.0189     1.0000    -0.0189     0.9770     0.9770    -0.0000
 17 H      1.0149     1.0000    -0.0149     0.9773     0.9773     0.0000
 18 H      1.0156     1.0000    -0.0156     0.9776     0.9776     0.0000
 19 H      1.0194     1.0000    -0.0194     0.9945     0.9945     0.0000

  Mayer bond orders larger than 0.100000
B(  0-C ,  1-P ) :   0.9920 B(  0-C ,  9-H ) :   0.9662 B(  0-C , 10-H ) :   0.9548 
B(  0-C , 11-H ) :   0.9672 B(  1-P ,  2-C ) :   0.9919 B(  1-P ,  3-C ) :   0.9099 
B(  2-C , 12-H ) :   0.9548 B(  2-C , 13-H ) :   0.9663 B(  2-C , 14-H ) :   0.9672 
B(  3-C ,  4-C ) :   1.3613 B(  3-C ,  8-C ) :   1.4075 B(  4-C ,  5-C ) :   1.4131 
B(  4-C , 15-H ) :   0.9784 B(  5-C ,  6-C ) :   1.3721 B(  5-C , 16-H ) :   0.9827 
B(  6-C ,  7-C ) :   1.3936 B(  6-C , 17-H ) :   0.9845 B(  7-C ,  8-C ) :   1.3784 
B(  7-C , 18-H ) :   0.9856 B(  8-C , 19-H ) :   0.9848 

-------
TIMINGS
-------

Total SCF time: 0 days 0 hours 0 min 2 sec 

Total time                  ....       2.961 sec
Sum of individual times     ....       2.924 sec  ( 98.8%)

SCF preparation             ....       0.069 sec  (  2.3%)
Fock matrix formation       ....       2.722 sec  ( 91.9%)
  Startup                   ....       0.010 sec  (  0.4% of F)
  Exchange formation        ....       1.741 sec  ( 64.0% of F)
  Split-RI-J                ....       0.271 sec  ( 10.0% of F)
  XC integration            ....       0.666 sec  ( 24.5% of F)
    Basis function eval.    ....       0.197 sec  ( 29.6% of XC)
    Density eval.           ....       0.154 sec  ( 23.1% of XC)
    XC-Functional eval.     ....       0.021 sec  (  3.2% of XC)
    XC-Potential eval.      ....       0.153 sec  ( 23.0% of XC)
Diagonalization             ....       0.000 sec  (  0.0%)
Density matrix formation    ....       0.014 sec  (  0.5%)
Total Energy calculation    ....       0.008 sec  (  0.3%)
Population analysis         ....       0.047 sec  (  1.6%)
Orbital Transformation      ....       0.011 sec  (  0.4%)
Orbital Orthonormalization  ....       0.000 sec  (  0.0%)
DIIS solution               ....       0.014 sec  (  0.5%)
SOSCF solution              ....       0.039 sec  (  1.3%)
Finished LeanSCF after   3.0 sec

Maximum memory used throughout the entire LEANSCF-calculation: 18.2 MB


-------------------------------------------------------------------------------
                          DFT DISPERSION CORRECTION                            
                                                                               
                              DFTD3 V3.1  Rev 1                                
                          USING Becke-Johnson damping                          
-------------------------------------------------------------------------------
The B3LYP functional is recognized
Active option DFTDOPT                   ...         4   

molecular C6(AA) [au] = 4918.731015 


            DFT-D V3
 parameters
 s6 scaling factor         :     1.0000 
 a1 scaling factor         :     0.3981 
 s8 scaling factor         :     1.9889 
 a2 scaling factor         :     4.4211 
 ad hoc parameters k1-k3   :    16.0000     1.3333    -4.0000 

 Edisp/kcal,au: -24.415896516173  -0.038909203639 
 E6   /kcal   : -11.033010526 
 E8   /kcal   : -13.382885991 
 % E8         :  54.812183455 

-------------------------   ----------------
Dispersion correction           -0.038909204
-------------------------   ----------------


-------------------------   --------------------
FINAL SINGLE POINT ENERGY      -652.284637415094
-------------------------   --------------------

                                *** OPTIMIZATION RUN DONE ***



           ************************************************************
           *        Program running with 6 parallel MPI-processes     *
           *              working on a common directory               *
           ************************************************************

------------------------------------------------------------------------------
                              ORCA PROPERTY CALCULATIONS
------------------------------------------------------------------------------

GBWName                                 ... data/geom_opt/69597/69597.gbw
Number of atoms                         ...     20
Number of basis functions               ...    185
Max core memory                         ...   1024 MB

Electric properties:
Dipole moment                           ... YES
Quadrupole moment                       ...  NO
Static polarizability (Dipole/Dipole)   ...  NO
Static polarizability (Dipole/Quad.)    ...  NO
Static polarizability (Quad./Quad.)     ...  NO
Static polarizability (Velocity)        ...  NO

Atomic electric properties:
Dipole moment                           ...  NO
Quadrupole moment                       ...  NO
Static polarizability                   ...  NO

Choice of electric origin               ... Center of mass
Position of electric origin             ...     0.129368    -0.341698     0.343657

General magnetic properties:
Magnetizability                         ...  NO

EPR properties:
g-Tensor (aka g-matrix)                 ...  NO
Zero-Field splitting spin-orbit         ...  NO
Zero-field splitting spin-spin          ...  NO
Hyperfine couplings                     ...  NO (   0 nuclei)
Quadrupole couplings                    ...  NO (   0 nuclei)
Contact density                         ...  NO (   0 nuclei)

NMR properties:
Chemical shifts                         ...  NO (   0 nuclei)
Spin-rotation constants                 ...  NO (   0 nuclei)
Spin-spin couplings                     ...  NO (   0 nuclei,    0 pairs)

Choice of magnetic origin               ... GIAO
Position of magnetic origin             ...     0.000000     0.000000     0.000000

Properties with geometric perturbations:
SCF Hessian                             ...  NO
IR spectrum                             ...  NO
VCD spectrum                            ...  NO
X-ray spectroscopy properties:
SCF XES/XAS/RIXS spectra                ...  NO


-------------
DIPOLE MOMENT
-------------

Method             : SCF
Type of density    : Electron Density
Multiplicity       :   1
Irrep              :   0
Energy             :  -652.2457282114550026 Eh
Relativity type    : 
Basis              : AO
                                X                 Y                 Z
Electronic contribution:      2.722716941      -3.133645083       3.008209446
Nuclear contribution   :     -2.596415400       3.429463617      -3.328333002
                        -----------------------------------------
Total Dipole Moment    :      0.126301541       0.295818534      -0.320123556
                        -----------------------------------------
Magnitude (a.u.)       :      0.453805879
Magnitude (Debye)      :      1.153482875



--------------------
Rotational spectrum 
--------------------
 
Rotational constants in cm-1:             0.094961             0.028754             0.026802 
Rotational constants in MHz :          2846.850487           862.035926           803.502881 

Dipole components along the rotational axes: 
x,y,z [a.u.] :    -0.143416    -0.430527     0.004295 
x,y,z [Debye]:    -0.364535    -1.094311     0.010918 

 

Dipole moment calculation done in   0.0 sec 

Maximum memory used throughout the entire PROP-calculation: 8.7 MB

--------------------------------
SUGGESTED CITATIONS FOR THIS RUN
--------------------------------

Below you find a list of papers that are relevant to this ORCA run
We neither can nor want to force you to cite these papers, but we appreciate if you do
You receive ORCA, which is the product of decades of hard work by many enthusiastic individuals, for free
The only thing we kindly ask in return is that you cite our papers,
We deeply appreciate it, if you show your appreciation for ORCA by not just citing the generic ORCA reference.

Please note that relegating all ORCA citations to the supporting information does *not* help us.
SI sections are not indexed - citations you put there will not count into any citation statistics
But we need these citations in order to attract the funding resources that allow us to do what we are doing

Therefore, if you are a happy ORCA user, please consider citing a few of the papers listed below in the main body of your paper

In addition to the list printed below, the program has created the file data/geom_opt/69597/69597.bibtex that contains the list in bibtex format
You can import this file easily into all common literature databanks and citation aid programs


List of essential papers. We consider these as the minimum necessary citations

  1. Neese,F.
     Software update: the ORCA program system, version 5.0
     WIRES Comput. Molec. Sci., 2022 12(1)e1606
     doi.org/10.1002/wcms.1606

List of papers to cite with high priority. The work reported in these papers was absolutely
necessary for this run to complete.
Our perspective: the developers of density functionals and basis sets usually get cited in chemistry papers
Good! But without the algorithms to do something with them, the functionals or basis sets would not do anything.
Hence, in our opinion, the algorithm design and method developments papers are equally worthy of getting cited

  1. Neese,F.
     An improvement of the resolution of the identity approximation for the formation of the Coulomb matrix
     J. Comp. Chem., 2003 24(14)1740-1747
     doi.org/10.1002/jcc.10318
  2. Neese,F.
     The SHARK Integral Generation and Digestion System
     J. Comp. Chem., 2022  1-16
     doi.org/10.1002/jcc.26942
  3. Grimme,S.; Antony,J.; Ehrlich,S.; Krieg,H.
     A consistent and accurate ab initio parametrization of density functional dispersion correction (DFT-D) for the 94 elements H-Pu
     J. Chem. Phys., 2010 132 154104-XXXX
     doi.org/10.1063/1.3382344
  4. Grimme,S.; Ehrlich,S.; Goerigk,L.
     Effect of the damping function in dispersion corrected density functional theory
     J. Comput. Chem., 2011 32(7)1456-1465
     doi.org/10.1002/jcc.21759

List of suggested additional citations. These are papers that are important in the 'surrounding' of 
of this run, or papers that preceded the highly important papers. If you like your results we are grateful for a citation.

  1. Neese,F.
     The ORCA program system
     WIRES Comput. Molec. Sci., 2012 2(1)73-78
     doi.org/10.1002/wcms.81
  2. Neese,F.
     Software update: the ORCA program system, version 4.0
     WIRES Comput. Molec. Sci., 2018 8(1)1-6
     doi.org/10.1002/wcms.1327
  3. Neese,F.; Wennmohs,F.; Becker,U.; Riplinger,C.
     The ORCA quantum chemistry program package
     J. Chem. Phys., 2020 152 Art. No. L224108
     doi.org/10.1063/5.0004608

List of optional additional citations

  1. Neese,F.
     Approximate second-order SCF convergence for spin unrestricted wavefunctions
     Chem. Phys. Lett., 2000 325(1-3)93-98
     doi.org/10.1016/s0009-2614(00)00662-x

Timings for individual modules:

Sum of individual times          ...       57.873 sec (=   0.965 min)
Startup calculation              ...        3.812 sec (=   0.064 min)   6.6 %
SCF iterations                   ...       33.768 sec (=   0.563 min)  58.3 %
Property calculations            ...        0.133 sec (=   0.002 min)   0.2 %
SCF Gradient evaluation          ...       20.124 sec (=   0.335 min)  34.8 %
Geometry relaxation              ...        0.036 sec (=   0.001 min)   0.1 %
                             ****ORCA TERMINATED NORMALLY****
TOTAL RUN TIME: 0 days 0 hours 0 minutes 58 seconds 916 msec
