
                                 *****************
                                 * O   R   C   A *
                                 *****************

                                            #,                                       
                                            ###                                      
                                            ####                                     
                                            #####                                    
                                            ######                                   
                                           ########,                                 
                                     ,,################,,,,,                         
                               ,,#################################,,                 
                          ,,##########################################,,             
                       ,#########################################, ''#####,          
                    ,#############################################,,   '####,        
                  ,##################################################,,,,####,       
                ,###########''''           ''''###############################       
              ,#####''   ,,,,##########,,,,          '''####'''          '####       
            ,##' ,,,,###########################,,,                        '##       
           ' ,,###''''                  '''############,,,                           
         ,,##''                                '''############,,,,        ,,,,,,###''
      ,#''                                            '''#######################'''  
     '                                                          ''''####''''         
             ,#######,   #######,   ,#######,      ##                                
            ,#'     '#,  ##    ##  ,#'     '#,    #''#        ,####,   ,####,        
            ##       ##  ##   ,#'  ##            #'  '#       #'       #'  '#        
            ##       ##  #######   ##           ,######,      #####,   #    #        
            '#,     ,#'  ##    ##  '#,     ,#' ,#      #,     #,   #   #,  ,#        
             '#######'   ##     ##  '#######'  #'      '#     '####' # '####'        



                #########################################################
                #                        -***-                          #
                #          Department of theory and spectroscopy        #
                #                                                       #
                #                      Frank Neese                      #
                #                                                       #
                #     Directorship, Architecture, Infrastructure        #
                #                    SHARK, DRIVERS                     #
                #        Core code/Algorithms in most modules           #
                #                                                       #
                #        Max Planck Institute fuer Kohlenforschung      #
                #                Kaiser Wilhelm Platz 1                 #
                #                 D-45470 Muelheim/Ruhr                 #
                #                      Germany                          #
                #                                                       #
                #                  All rights reserved                  #
                #                        -***-                          #
                #########################################################


                         Program Version 6.0.0  -   RELEASE   -


 With contributions from (in alphabetic order):
   Daniel Aravena         : Magnetic Suceptibility
   Michael Atanasov       : Ab Initio Ligand Field Theory (pilot matlab implementation)
   Alexander A. Auer      : GIAO ZORA, VPT2 properties, NMR spectrum
   Ute Becker             : All parallelization in ORCA, NUMFREQ, NUMCALC
   Giovanni Bistoni       : ED, misc. LED, open-shell LED, HFLD
   Martin Brehm           : Molecular dynamics
   Dmytro Bykov           : pre 5.0 version of the SCF Hessian
   Marcos Casanova-Páez   : Triplet and SCS-CIS(D). UHF-(DLPNO)-IP/EA/STEOM-CCSD. UHF-CVS-IP/STEOM-CCSD
   Vijay G. Chilkuri      : MRCI spin determinant printing, contributions to CSF-ICE
   Pauline Colinet        : FMM embedding
   Dipayan Datta          : RHF DLPNO-CCSD density
   Achintya Kumar Dutta   : EOM-CC, STEOM-CC
   Nicolas Foglia         : Exact transition moments, OPA infrastructure, MCD improvements
   Dmitry Ganyushin       : Spin-Orbit,Spin-Spin,Magnetic field MRCI
   Miquel Garcia          : C-PCM and meta-GGA Hessian, CCSD/C-PCM, Gaussian charge scheme
   Tiago L. C. Gouveia    : GS-ROHF, GS-ROCIS
   Yang Guo               : DLPNO-NEVPT2, F12-NEVPT2, CIM, IAO-localization
   Andreas Hansen         : Spin unrestricted coupled pair/coupled cluster methods
   Ingolf Harden          : AUTO-CI MPn and infrastructure 
   Benjamin Helmich-Paris : MC-RPA, TRAH-(SCF,CASSCF), AVAS, COSX integrals, SCF dyn. polar.
   Lee Huntington         : MR-EOM, pCC
   Robert Izsak           : Overlap fitted RIJCOSX, COSX-SCS-MP3, EOM
   Riya Kayal             : Wick's Theorem for AUTO-CI, AUTO-CI UHF-CCSDT
   Emily Kempfer          : AUTO-CI, RHF CISDT and CCSDT
   Christian Kollmar      : KDIIS, OOCD, Brueckner-CCSD(T), CCSD density, CASPT2, CASPT2-K, improved NEVPT2
   Axel Koslowski         : Symmetry handling
   Simone Kossmann        : Meta GGA functionals, TD-DFT gradient, OOMP2, (MP2 Hessian; deprecated post 5.0)
   Lucas Lang             : DCDCAS
   Marvin Lechner         : AUTO-CI (C++ implementation), FIC-MRCC
   Spencer Leger          : CASSCF response
   Dagmar Lenk            : GEPOL surface, SMD, ORCA-2-JSON
   Dimitrios Liakos       : Extrapolation schemes; Compound Job, initial MDCI parallelization
   Dimitrios Manganas     : Further ROCIS development; embedding schemes. LFT, Crystal Embedding
   Dimitrios Pantazis     : SARC Basis sets
   Anastasios Papadopoulos: AUTO-CI, single reference methods and gradients
   Taras Petrenko         : pre 6.0 DFT Hessian and TD-DFT gradient, (ASA, deprecated), ECA, 1-Electron XAS/XES, NRVS
   Peter Pinski           : DLPNO-MP2, DLPNO-MP2 Gradient
   Christoph Reimann      : Effective Core Potentials
   Marius Retegan         : Local ZFS, SOC
   Christoph Riplinger    : Optimizer, TS searches, QM/MM, DLPNO-CCSD(T), (RO)-DLPNO pert. Triples
   Michael Roemelt        : Original ROCIS implementation
   Masaaki Saitow         : Open-shell DLPNO-CCSD energy and density
   Barbara Sandhoefer     : DKH picture change effects
   Kantharuban Sivalingam : CASSCF convergence/infrastructure, NEVPT2 and variants, FIC-MRCI
   Bernardo de Souza      : ESD, SOC TD-DFT
   Georgi Stoychev        : AutoAux, RI-MP2 NMR, DLPNO-MP2 response, X2C
   Van Anh Tran           : RI-MP2 g-tensors
   Willem Van den Heuvel  : Paramagnetic NMR
   Zikuan Wang            : NOTCH, Electric field optimization 
   Frank Wennmohs         : Technical directorship and infrastructure
   Hang Xu                : AUTO-CI-Response properties 


 We gratefully acknowledge several colleagues who have allowed us to
 interface, adapt or use parts of their codes:
   Stefan Grimme, W. Hujo, H. Kruse, P. Pracht,  : VdW corrections, initial TS optimization,
                  C. Bannwarth, S. Ehlert,         DFT functionals, gCP, sTDA/sTD-DF
                  L. Wittmann, M. Mueller
   Ed Valeev, F. Pavosevic, A. Kumar             : LibInt (2-el integral package), F12 methods
   Garnet Chan, S. Sharma, J. Yang, R. Olivares  : DMRG
   Ulf Ekstrom                                   : XCFun DFT Library
   Mihaly Kallay                                 : mrcc  (arbitrary order and MRCC methods)
   Frank Weinhold                                : gennbo (NPA and NBO analysis)
   Simon Mueller                                 : openCOSMO-RS
   Christopher J. Cramer and Donald G. Truhlar   : smd solvation model
   Lars Goerigk                                  : TD-DFT with DH, B97 family of functionals
   V. Asgeirsson, H. Jonsson                     : NEB implementation
   FAccTs GmbH                                   : IRC, NEB, NEB-TS, DLPNO-Multilevel, CI-OPT
                                                   MM, QMMM, 2- and 3-layer-ONIOM, Crystal-QMMM,
                                                   LR-CPCM, SF, NACMEs, symmetry and pop. for TD-DFT,
                                                   nearIR, NL-DFT gradient (VV10), updates on ESD,
                                                   ML-optimized integration grids, MBIS, APM,
                                                   GOAT, DOCKER, SOLVATOR, interface openCOSMO-RS
   S Lehtola, MJT Oliveira, MAL Marques          : LibXC Library
   Liviu Ungur et al                             : ANISO software


 Your calculation uses the libint2 library for the computation of 2-el integrals
 For citations please refer to: http://libint.valeyev.net

 Your ORCA version has been built with support for libXC version: 6.2.2
 For citations please refer to: https://libxc.gitlab.io

 This ORCA versions uses:
   CBLAS   interface :  Fast vector & matrix operations
   LAPACKE interface :  Fast linear algebra routines
   Shared memory     :  Shared parallel matrices


Your calculation utilizes the atom-pairwise dispersion correction
with the Becke-Johnson damping scheme (D3BJ)


Warning: RI is on but no J-basis has been assigned. Assigning Def2/J (nothing to worry about!)
================================================================================

----- Orbital basis set information -----
Your calculation utilizes the basis: def2-SVP
   F. Weigend and R. Ahlrichs, Phys. Chem. Chem. Phys. 7, 3297 (2005).

----- AuxJ basis set information -----
Your calculation utilizes the auxiliary basis: def2/J
   F. Weigend, Phys. Chem. Chem. Phys. 8, 1057 (2006).

================================================================================
                                        WARNINGS
                       Please study these warnings very carefully!
================================================================================


WARNING: Geometry Optimization
  ===> : Switching off AutoStart
         For restart on a previous wavefunction, please use MOREAD

================================================================================
                                       INPUT FILE
================================================================================
NAME = data/geom_opt_PO_BP86/82100/82100.inp
|  1> ! RI BP86 def2-SVP D3BJ TIGHTSCF Opt
|  2> %pal
|  3> nprocs 6
|  4> end
|  5> 
|  6> * xyz 0 1
|  7> C      4.033136   -1.243024   -0.220952
|  8> C      2.754413   -0.716739   -0.849693
|  9> C      1.523189   -1.124055   -0.047084
| 10> P     -0.042232   -0.521357   -0.773574
| 11> O     -0.082595   -0.980666   -2.217442
| 12> C     -0.038670    1.259727   -0.598543
| 13> C     -0.048971    2.066883   -1.745157
| 14> C     -0.037470    3.457764   -1.637544
| 15> C     -0.016124    4.058112   -0.380835
| 16> C     -0.006826    3.268648    0.767363
| 17> C     -0.017602    1.876679    0.659886
| 18> C     -1.400672   -1.175876    0.191892
| 19> C     -2.634293   -1.387774   -0.442573
| 20> C     -3.726713   -1.888015    0.266350
| 21> C     -3.599402   -2.183428    1.621132
| 22> C     -2.380784   -1.980146    2.265286
| 23> C     -1.286905   -1.479580    1.555345
| 24> H      4.023490   -2.336397   -0.168627
| 25> H      4.161636   -0.851331    0.793145
| 26> H      4.900729   -0.939019   -0.814856
| 27> H      2.668782   -1.095327   -1.874165
| 28> H      2.805862    0.375113   -0.920509
| 29> H      1.462753   -2.217048    0.006364
| 30> H      1.610503   -0.746943    0.977181
| 31> H     -0.066049    1.604065   -2.731113
| 32> H     -0.046568    4.071046   -2.535018
| 33> H     -0.009234    5.141781   -0.296737
| 34> H      0.005962    3.738789    1.747519
| 35> H     -0.013844    1.279717    1.567631
| 36> H     -2.738538   -1.164375   -1.503707
| 37> H     -4.674682   -2.048663   -0.240738
| 38> H     -4.449678   -2.574332    2.173988
| 39> H     -2.282977   -2.213498    3.322676
| 40> H     -0.349628   -1.330730    2.083109
| 41> **                         ****END OF INPUT****
================================================================================

                       *****************************
                       * Geometry Optimization Run *
                       *****************************

Geometry optimization settings:
Update method            Update   .... BFGS
Choice of coordinates    CoordSys .... (2022) Redundant Internals
Initial Hessian          InHess   .... Almloef's Model
Max. no of cycles        MaxIter  .... 102

Convergence Tolerances:
Energy Change            TolE     ....  5.0000e-06 Eh
Max. Gradient            TolMAXG  ....  3.0000e-04 Eh/bohr
RMS Gradient             TolRMSG  ....  1.0000e-04 Eh/bohr
Max. Displacement        TolMAXD  ....  4.0000e-03 bohr
RMS Displacement         TolRMSD  ....  2.0000e-03 bohr
Strict Convergence                .... False

------------------------------------------------------------------------------
                        ORCA OPTIMIZATION COORDINATE SETUP
------------------------------------------------------------------------------

The optimization will be done in redundant internal coordinates (2022)
Making redundant internal coordinates   ...  (2022 redundants) done
Evaluating the initial hessian          ...  (Almloef) done
Evaluating the coordinates              ...  done
Calculating the B-matrix                .... done
Calculating the G-matrix                .... done
Diagonalizing the G-matrix              .... done
Small eigenvalue found = 6.066e-03
Small eigenvalue found = 7.236e-03
Small eigenvalue found = 1.033e-02
Small eigenvalue found = 2.355e-02
Small eigenvalue found = 2.572e-02
The first mode is                       ....   75
The number of degrees of freedom        ....   96

    -----------------------------------------------------------------
                    Redundant Internal Coordinates


    -----------------------------------------------------------------
         Definition                    Initial Value    Approx d2E/dq
    -----------------------------------------------------------------
      1. B(C   1,C   0)                  1.5190         0.388951   
      2. B(C   2,C   1)                  1.5251         0.380328   
      3. B(P   3,C   2)                  1.8280         0.420180   
      4. B(O   4,P   3)                  1.5157         1.185283   
      5. B(C   5,P   3)                  1.7897         0.483714   
      6. B(C   6,C   5)                  1.4023         0.597283   
      7. B(C   7,C   6)                  1.3951         0.613233   
      8. B(C   8,C   7)                  1.3929         0.618159   
      9. B(C   9,C   8)                  1.3934         0.616931   
     10. B(C  10,C   9)                  1.3962         0.610831   
     11. B(C  10,C   5)                  1.4017         0.598547   
     12. B(C  11,P   3)                  1.7905         0.482242   
     13. B(C  12,C  11)                  1.4033         0.594990   
     14. B(C  13,C  12)                  1.3951         0.613288   
     15. B(C  14,C  13)                  1.3924         0.619203   
     16. B(C  15,C  14)                  1.3933         0.617265   
     17. B(C  16,C  15)                  1.3968         0.609299   
     18. B(C  16,C  11)                  1.4015         0.598966   
     19. B(H  17,C   0)                  1.0947         0.353979   
     20. B(H  18,C   0)                  1.0947         0.353959   
     21. B(H  19,C   0)                  1.0945         0.354239   
     22. B(H  20,C   1)                  1.0955         0.352847   
     23. B(H  21,C   1)                  1.0954         0.353085   
     24. B(H  22,C   2)                  1.0960         0.352293   
     25. B(H  23,C   2)                  1.0950         0.353587   
     26. B(H  24,C   6)                  1.0893         0.361011   
     27. B(H  25,C   7)                  1.0870         0.364036   
     28. B(H  26,C   8)                  1.0869         0.364159   
     29. B(H  27,C   9)                  1.0872         0.363886   
     30. B(H  28,C  10)                  1.0865         0.364824   
     31. B(H  29,C  12)                  1.0894         0.360902   
     32. B(H  30,C  13)                  1.0870         0.364077   
     33. B(H  31,C  14)                  1.0869         0.364179   
     34. B(H  32,C  15)                  1.0872         0.363768   
     35. B(H  33,C  16)                  1.0859         0.365565   
     36. A(H  18,C   0,H  19)          108.0746         0.289310   
     37. A(C   1,C   0,H  18)          110.9951         0.325554   
     38. A(H  17,C   0,H  19)          108.0810         0.289312   
     39. A(C   1,C   0,H  17)          111.0033         0.325557   
     40. A(H  17,C   0,H  18)          108.3092         0.289277   
     41. A(C   1,C   0,H  19)          110.2713         0.325596   
     42. A(C   0,C   1,H  21)          109.4252         0.325422   
     43. A(C   2,C   1,H  20)          109.6776         0.324189   
     44. A(C   0,C   1,H  20)          109.4590         0.325386   
     45. A(C   0,C   1,C   2)          111.6683         0.366993   
     46. A(C   2,C   1,H  21)          109.7647         0.324225   
     47. A(H  20,C   1,H  21)          106.7192         0.289019   
     48. A(C   1,C   2,P   3)          113.2118         0.395930   
     49. A(P   3,C   2,H  22)          107.5157         0.349899   
     50. A(C   1,C   2,H  22)          109.6655         0.324106   
     51. A(C   1,C   2,H  23)          109.6286         0.324301   
     52. A(P   3,C   2,H  23)          109.0563         0.350116   
     53. A(H  22,C   2,H  23)          107.5927         0.289013   
     54. A(O   4,P   3,C  11)          112.5000         0.530347   
     55. A(C   2,P   3,C  11)          108.3543         0.440391   
     56. A(C   2,P   3,O   4)          107.5467         0.516798   
     57. A(C   2,P   3,C   5)          106.7113         0.440634   
     58. A(O   4,P   3,C   5)          113.2535         0.530652   
     59. A(C   5,P   3,C  11)          108.2143         0.451771   
     60. A(P   3,C   5,C   6)          119.5291         0.439952   
     61. A(C   6,C   5,C  10)          118.7426         0.428446   
     62. A(P   3,C   5,C  10)          121.7272         0.440120   
     63. A(C   5,C   6,C   7)          120.7132         0.430314   
     64. A(C   7,C   6,H  24)          119.5734         0.352405   
     65. A(C   5,C   6,H  24)          119.7133         0.350838   
     66. A(C   8,C   7,H  25)          120.1225         0.353381   
     67. A(C   6,C   7,H  25)          119.9154         0.352903   
     68. A(C   6,C   7,C   8)          119.9620         0.432978   
     69. A(C   9,C   8,H  26)          120.0694         0.353282   
     70. A(C   7,C   8,H  26)          119.9739         0.353401   
     71. A(C   7,C   8,C   9)          119.9565         0.433447   
     72. A(C  10,C   9,H  27)          120.0430         0.352644   
     73. A(C   8,C   9,H  27)          119.8659         0.353237   
     74. A(C   8,C   9,C  10)          120.0908         0.432518   
     75. A(C   5,C  10,C   9)          120.5347         0.430174   
     76. A(C   9,C  10,H  28)          118.9121         0.352797   
     77. A(C   5,C  10,H  28)          120.5526         0.351587   
     78. A(C  12,C  11,C  16)          118.5867         0.428205   
     79. A(P   3,C  11,C  16)          122.8341         0.439934   
     80. A(P   3,C  11,C  12)          118.5784         0.439405   
     81. A(C  13,C  12,H  29)          119.5765         0.352392   
     82. A(C  11,C  12,H  29)          119.5741         0.350593   
     83. A(C  11,C  12,C  13)          120.8484         0.430024   
     84. A(C  14,C  13,H  30)          120.1496         0.353489   
     85. A(C  12,C  13,H  30)          119.9230         0.352915   
     86. A(C  12,C  13,C  14)          119.9272         0.433117   
     87. A(C  15,C  14,H  31)          120.1000         0.353318   
     88. A(C  13,C  14,H  31)          119.9772         0.353506   
     89. A(C  13,C  14,C  15)          119.9226         0.433621   
     90. A(C  16,C  15,H  32)          120.0503         0.352475   
     91. A(C  14,C  15,H  32)          119.8014         0.353251   
     92. A(C  14,C  15,C  16)          120.1483         0.432365   
     93. A(C  15,C  16,H  33)          118.5571         0.352769   
     94. A(C  11,C  16,H  33)          120.8762         0.351749   
     95. A(C  11,C  16,C  15)          120.5666         0.430034   
     96. D(H  20,C   1,C   0,H  18)    178.0249         0.012030   
     97. D(C   2,C   1,C   0,H  17)     60.1852         0.012030   
     98. D(C   2,C   1,C   0,H  19)    179.9342         0.012030   
     99. D(H  20,C   1,C   0,H  17)    -61.4597         0.012030   
    100. D(C   2,C   1,C   0,H  18)    -60.3301         0.012030   
    101. D(H  20,C   1,C   0,H  19)     58.2892         0.012030   
    102. D(H  22,C   2,C   1,H  21)    178.9175         0.011528   
    103. D(P   3,C   2,C   1,C   0)   -179.6142         0.011528   
    104. D(H  22,C   2,C   1,H  20)     61.9717         0.011528   
    105. D(H  22,C   2,C   1,C   0)    -59.5469         0.011528   
    106. D(P   3,C   2,C   1,H  20)    -58.0956         0.011528   
    107. D(P   3,C   2,C   1,H  21)     58.8502         0.011528   
    108. D(O   4,P   3,C   2,H  23)    176.1191         0.004086   
    109. D(O   4,P   3,C   2,H  22)    -67.5000         0.004086   
    110. D(O   4,P   3,C   2,C   1)     53.7863         0.004086   
    111. D(C   5,P   3,C   2,H  23)     54.2989         0.004086   
    112. D(C   5,P   3,C   2,H  22)    170.6798         0.004086   
    113. D(C   5,P   3,C   2,C   1)    -68.0339         0.004086   
    114. D(C  10,C   5,P   3,C   2)    -62.5305         0.004707   
    115. D(C   6,C   5,P   3,C  11)   -126.5063         0.004707   
    116. D(C   6,C   5,P   3,O   4)     -1.0636         0.004707   
    117. D(C  10,C   5,P   3,O   4)    179.3301         0.004707   
    118. D(C   6,C   5,P   3,C   2)    117.0758         0.004707   
    119. D(H  24,C   6,C   5,C  10)   -179.9573         0.024581   
    120. D(H  24,C   6,C   5,P   3)      0.4246         0.024581   
    121. D(C   7,C   6,C   5,C  10)      0.0481         0.024581   
    122. D(C   7,C   6,C   5,P   3)   -179.5700         0.024581   
    123. D(H  25,C   7,C   6,H  24)      0.0603         0.025988   
    124. D(H  25,C   7,C   6,C   5)   -179.9451         0.025988   
    125. D(C   8,C   7,C   6,H  24)    179.9764         0.025988   
    126. D(C   8,C   7,C   6,C   5)     -0.0290         0.025988   
    127. D(H  26,C   8,C   7,H  25)      0.0422         0.026432   
    128. D(H  26,C   8,C   7,C   6)   -179.8738         0.026432   
    129. D(C   9,C   8,C   7,H  25)    179.8902         0.026432   
    130. D(C   9,C   8,C   7,C   6)     -0.0257         0.026432   
    131. D(H  27,C   9,C   8,H  26)      0.0834         0.026321   
    132. D(H  27,C   9,C   8,C   7)   -179.7645         0.026321   
    133. D(C  10,C   9,C   8,H  26)    179.9084         0.026321   
    134. D(C  10,C   9,C   8,C   7)      0.0605         0.026321   
    135. D(H  28,C  10,C   9,C   8)   -179.7725         0.025773   
    136. D(C   5,C  10,C   9,H  27)    179.7838         0.025773   
    137. D(C   5,C  10,C   9,C   8)     -0.0409         0.025773   
    138. D(H  28,C  10,C   5,C   6)    179.7140         0.024691   
    139. D(H  28,C  10,C   5,P   3)     -0.6767         0.024691   
    140. D(C   9,C  10,C   5,C   6)     -0.0132         0.024691   
    141. D(H  28,C  10,C   9,H  27)      0.0522         0.025773   
    142. D(C   9,C  10,C   5,P   3)    179.5961         0.024691   
    143. D(C  16,C  11,P   3,O   4)    147.6431         0.004687   
    144. D(C  16,C  11,P   3,C   2)     28.8769         0.004687   
    145. D(C  12,C  11,P   3,C   5)     93.2107         0.004687   
    146. D(C  12,C  11,P   3,O   4)    -32.6750         0.004687   
    147. D(C  12,C  11,P   3,C   2)   -151.4412         0.004687   
    148. D(H  29,C  12,C  11,C  16)   -179.5340         0.024383   
    149. D(H  29,C  12,C  11,P   3)      0.7704         0.024383   
    150. D(C  13,C  12,C  11,C  16)      0.0974         0.024383   
    151. D(C  13,C  12,C  11,P   3)   -179.5982         0.024383   
    152. D(H  30,C  13,C  12,H  29)     -0.2199         0.025993   
    153. D(H  30,C  13,C  12,C  11)   -179.8513         0.025993   
    154. D(C  14,C  13,C  12,H  29)    179.6259         0.025993   
    155. D(C  14,C  13,C  12,C  11)     -0.0055         0.025993   
    156. D(H  31,C  14,C  13,C  12)   -179.9272         0.026527   
    157. D(C  15,C  14,C  13,H  30)    179.7731         0.026527   
    158. D(C  15,C  14,C  13,C  12)     -0.0723         0.026527   
    159. D(H  31,C  14,C  13,H  30)     -0.0818         0.026527   
    160. D(H  32,C  15,C  14,H  31)     -0.0136         0.026351   
    161. D(H  32,C  15,C  14,C  13)   -179.8683         0.026351   
    162. D(C  16,C  15,C  14,H  31)    179.9113         0.026351   
    163. D(C  16,C  15,C  14,C  13)      0.0565         0.026351   
    164. D(H  33,C  16,C  15,H  32)     -0.1023         0.025636   
    165. D(H  33,C  16,C  15,C  14)    179.9730         0.025636   
    166. D(C  11,C  16,C  15,H  32)    179.9621         0.025636   
    167. D(C  11,C  16,C  15,C  14)      0.0375         0.025636   
    168. D(H  33,C  16,C  11,C  12)    179.9529         0.024727   
    169. D(H  33,C  16,C  11,P   3)     -0.3653         0.024727   
    170. D(C  15,C  16,C  11,C  12)     -0.1131         0.024727   
    171. D(C  15,C  16,C  11,P   3)    179.5687         0.024727   
    -----------------------------------------------------------------

Number of atoms                         .... 34
Number of degrees of freedom            .... 171


         *************************************************************
         *                GEOMETRY OPTIMIZATION CYCLE   1            *
         *************************************************************
---------------------------------
CARTESIAN COORDINATES (ANGSTROEM)
---------------------------------
  C      4.033136   -1.243024   -0.220952
  C      2.754413   -0.716739   -0.849693
  C      1.523189   -1.124055   -0.047084
  P     -0.042232   -0.521357   -0.773574
  O     -0.082595   -0.980666   -2.217442
  C     -0.038670    1.259727   -0.598543
  C     -0.048971    2.066883   -1.745157
  C     -0.037470    3.457764   -1.637544
  C     -0.016124    4.058112   -0.380835
  C     -0.006826    3.268648    0.767363
  C     -0.017602    1.876679    0.659886
  C     -1.400672   -1.175876    0.191892
  C     -2.634293   -1.387774   -0.442573
  C     -3.726713   -1.888015    0.266350
  C     -3.599402   -2.183428    1.621132
  C     -2.380784   -1.980146    2.265286
  C     -1.286905   -1.479580    1.555345
  H      4.023490   -2.336397   -0.168627
  H      4.161636   -0.851331    0.793145
  H      4.900729   -0.939019   -0.814856
  H      2.668782   -1.095327   -1.874165
  H      2.805862    0.375113   -0.920509
  H      1.462753   -2.217048    0.006364
  H      1.610503   -0.746943    0.977181
  H     -0.066049    1.604065   -2.731113
  H     -0.046568    4.071046   -2.535018
  H     -0.009234    5.141781   -0.296737
  H      0.005962    3.738789    1.747519
  H     -0.013844    1.279717    1.567631
  H     -2.738538   -1.164375   -1.503707
  H     -4.674682   -2.048663   -0.240738
  H     -4.449678   -2.574332    2.173988
  H     -2.282977   -2.213498    3.322676
  H     -0.349628   -1.330730    2.083109

----------------------------
CARTESIAN COORDINATES (A.U.)
----------------------------
  NO LB      ZA    FRAG     MASS         X           Y           Z
   0 C     6.0000    0    12.011    7.621523   -2.348975   -0.417539
   1 C     6.0000    0    12.011    5.205086   -1.354440   -1.605687
   2 C     6.0000    0    12.011    2.878410   -2.124156   -0.088976
   3 P    15.0000    0    30.974   -0.079807   -0.985222   -1.461843
   4 O     8.0000    0    15.999   -0.156082   -1.853190   -4.190358
   5 C     6.0000    0    12.011   -0.073076    2.380539   -1.131082
   6 C     6.0000    0    12.011   -0.092542    3.905843   -3.297869
   7 C     6.0000    0    12.011   -0.070808    6.534227   -3.094510
   8 C     6.0000    0    12.011   -0.030470    7.668720   -0.719674
   9 C     6.0000    0    12.011   -0.012899    6.176850    1.450106
  10 C     6.0000    0    12.011   -0.033263    3.546409    1.247004
  11 C     6.0000    0    12.011   -2.646886   -2.222084    0.362623
  12 C     6.0000    0    12.011   -4.978092   -2.622513   -0.836342
  13 C     6.0000    0    12.011   -7.042467   -3.567831    0.503329
  14 C     6.0000    0    12.011   -6.801884   -4.126081    3.063496
  15 C     6.0000    0    12.011   -4.499030   -3.741934    4.280770
  16 C     6.0000    0    12.011   -2.431898   -2.796001    2.939176
  17 H     1.0000    0     1.008    7.603294   -4.415150   -0.318659
  18 H     1.0000    0     1.008    7.864352   -1.608782    1.498827
  19 H     1.0000    0     1.008    9.261036   -1.774489   -1.539855
  20 H     1.0000    0     1.008    5.043267   -2.069868   -3.541659
  21 H     1.0000    0     1.008    5.302311    0.708861   -1.739510
  22 H     1.0000    0     1.008    2.764203   -4.189614    0.012026
  23 H     1.0000    0     1.008    3.043410   -1.411518    1.846604
  24 H     1.0000    0     1.008   -0.124815    3.031244   -5.161056
  25 H     1.0000    0     1.008   -0.088001    7.693162   -4.790490
  26 H     1.0000    0     1.008   -0.017450    9.716558   -0.560752
  27 H     1.0000    0     1.008    0.011267    7.065287    3.302332
  28 H     1.0000    0     1.008   -0.026161    2.418315    2.962393
  29 H     1.0000    0     1.008   -5.175087   -2.200350   -2.841594
  30 H     1.0000    0     1.008   -8.833869   -3.871412   -0.454929
  31 H     1.0000    0     1.008   -8.408673   -4.864782    4.108242
  32 H     1.0000    0     1.008   -4.314201   -4.182905    6.278948
  33 H     1.0000    0     1.008   -0.660701   -2.514715    3.936506

--------------------------------
INTERNAL COORDINATES (ANGSTROEM)
--------------------------------
 C      0   0   0     0.000000000000     0.00000000     0.00000000
 C      1   0   0     1.519020624295     0.00000000     0.00000000
 C      2   1   0     1.525122968456   111.66825204     0.00000000
 P      3   2   1     1.827997676843   113.21182728   180.38576969
 O      4   3   2     1.515700739155   107.54665313    53.78632819
 C      4   3   2     1.789667218748   106.71132525   291.96614326
 C      6   4   3     1.402259100143   119.52906983   117.07581699
 C      7   6   4     1.395085225687   120.71323806   180.43000797
 C      8   7   6     1.392907349216   119.96201578   359.97102972
 C      9   8   7     1.393448422908   119.95650963   359.97425390
 C     10   9   8     1.396153689486   120.09084922     0.06045036
 C      4   3   2     1.790496845045   108.35434423   175.64154133
 C     12   4   3     1.403305871957   118.57841341   208.55878027
 C     13  12   4     1.395060692017   120.84842176   180.40177260
 C     14  13  12     1.392447916015   119.92721241     0.00000000
 C     15  14  13     1.393301036088   119.92262115   359.92770471
 C     16  15  14     1.396837073705   120.14825952     0.05650039
 H      1   2   3     1.094666829711   111.00325506    60.18524744
 H      1   2   3     1.094681863218   110.99512842   299.66985764
 H      1   2   3     1.094467274472   110.27131048   179.93416140
 H      2   1   3     1.095538415889   109.45900741   238.35500532
 H      2   1   3     1.095355054474   109.42516752   121.73180109
 H      3   2   1     1.095966649515   109.66549982   300.45306139
 H      3   2   1     1.094968486015   109.62863688    58.37237645
 H      7   6   4     1.089312348752   119.71331601     0.42461565
 H      8   7   6     1.087040553891   119.91543066   180.05486900
 H      9   8   7     1.086949146586   119.97389730   180.12619940
 H     10   9   8     1.087153106587   119.86587443   180.23547786
 H     11  10   9     1.086452362984   118.91213969   180.22749176
 H     13  12   4     1.089394097277   119.57406446     0.77040244
 H     14  13  12     1.087010232063   119.92298464   180.14873826
 H     15  14  13     1.086933746890   119.97721408   180.07275779
 H     16  15  14     1.087240993181   119.80139972   180.13166850
 H     17  16  15     1.085900242621   118.55713432   179.97300858

---------------------------
INTERNAL COORDINATES (A.U.)
---------------------------
 C      0   0   0     0.000000000000     0.00000000     0.00000000
 C      1   0   0     2.870532971697     0.00000000     0.00000000
 C      2   1   0     2.882064730935   111.66825204     0.00000000
 P      3   2   1     3.454414982678   113.21182728   180.38576969
 O      4   3   2     2.864259297984   107.54665313    53.78632819
 C      4   3   2     3.381980914290   106.71132525   291.96614326
 C      6   4   3     2.649885668069   119.52906983   117.07581699
 C      7   6   4     2.636329010029   120.71323806   180.43000797
 C      8   7   6     2.632213419945   119.96201578   359.97102972
 C      9   8   7     2.633235901040   119.95650963   359.97425390
 C     10   9   8     2.638348113993   120.09084922     0.06045036
 C      4   3   2     3.383548680786   108.35434423   175.64154133
 C     12   4   3     2.651863780123   118.57841341   208.55878027
 C     13  12   4     2.636282648110   120.84842176   180.40177260
 C     14  13  12     2.631345217017   119.92721241     0.00000000
 C     15  14  13     2.632957380315   119.92262115   359.92770471
 C     16  15  14     2.639639523011   120.14825952     0.05650039
 H      1   2   3     2.068620516042   111.00325506    60.18524744
 H      1   2   3     2.068648925252   110.99512842   299.66985764
 H      1   2   3     2.068243411291   110.27131048   179.93416140
 H      2   1   3     2.070267575220   109.45900741   238.35500532
 H      2   1   3     2.069921072362   109.42516752   121.73180109
 H      3   2   1     2.071076819494   109.66549982   300.45306139
 H      3   2   1     2.069190563842   109.62863688    58.37237645
 H      7   6   4     2.058502013440   119.71331601     0.42461565
 H      8   7   6     2.054208943320   119.91543066   180.05486900
 H      9   8   7     2.054036208548   119.97389730   180.12619940
 H     10   9   8     2.054421637090   119.86587443   180.23547786
 H     11  10   9     2.053097423591   118.91213969   180.22749176
 H     13  12   4     2.058656495764   119.57406446     0.77040244
 H     14  13  12     2.054151643369   119.92298464   180.14873826
 H     15  14  13     2.054007107339   119.97721408   180.07275779
 H     16  15  14     2.054587718684   119.80139972   180.13166850
 H     17  16  15     2.052054067313   118.55713432   179.97300858

---------------------
BASIS SET INFORMATION
---------------------
There are 4 groups of distinct atoms

 Group   1 Type C   : 7s4p1d contracted to 3s2p1d pattern {511/31/1}
 Group   2 Type P   : 10s7p1d contracted to 4s3p1d pattern {5311/511/1}
 Group   3 Type O   : 7s4p1d contracted to 3s2p1d pattern {511/31/1}
 Group   4 Type H   : 4s1p contracted to 2s1p pattern {31/1}

Atom   0C    basis set group =>   1
Atom   1C    basis set group =>   1
Atom   2C    basis set group =>   1
Atom   3P    basis set group =>   2
Atom   4O    basis set group =>   3
Atom   5C    basis set group =>   1
Atom   6C    basis set group =>   1
Atom   7C    basis set group =>   1
Atom   8C    basis set group =>   1
Atom   9C    basis set group =>   1
Atom  10C    basis set group =>   1
Atom  11C    basis set group =>   1
Atom  12C    basis set group =>   1
Atom  13C    basis set group =>   1
Atom  14C    basis set group =>   1
Atom  15C    basis set group =>   1
Atom  16C    basis set group =>   1
Atom  17H    basis set group =>   4
Atom  18H    basis set group =>   4
Atom  19H    basis set group =>   4
Atom  20H    basis set group =>   4
Atom  21H    basis set group =>   4
Atom  22H    basis set group =>   4
Atom  23H    basis set group =>   4
Atom  24H    basis set group =>   4
Atom  25H    basis set group =>   4
Atom  26H    basis set group =>   4
Atom  27H    basis set group =>   4
Atom  28H    basis set group =>   4
Atom  29H    basis set group =>   4
Atom  30H    basis set group =>   4
Atom  31H    basis set group =>   4
Atom  32H    basis set group =>   4
Atom  33H    basis set group =>   4
---------------------------------
AUXILIARY/J BASIS SET INFORMATION
---------------------------------
There are 4 groups of distinct atoms

 Group   1 Type C   : 12s5p4d2f1g contracted to 6s4p3d1f1g pattern {711111/2111/211/2/1}
 Group   2 Type P   : 14s5p5d2f1g contracted to 8s4p3d1f1g pattern {71111111/2111/311/2/1}
 Group   3 Type O   : 12s5p4d2f1g contracted to 6s4p3d1f1g pattern {711111/2111/211/2/1}
 Group   4 Type H   : 5s2p1d contracted to 3s1p1d pattern {311/2/1}

Atom   0C    basis set group =>   1
Atom   1C    basis set group =>   1
Atom   2C    basis set group =>   1
Atom   3P    basis set group =>   2
Atom   4O    basis set group =>   3
Atom   5C    basis set group =>   1
Atom   6C    basis set group =>   1
Atom   7C    basis set group =>   1
Atom   8C    basis set group =>   1
Atom   9C    basis set group =>   1
Atom  10C    basis set group =>   1
Atom  11C    basis set group =>   1
Atom  12C    basis set group =>   1
Atom  13C    basis set group =>   1
Atom  14C    basis set group =>   1
Atom  15C    basis set group =>   1
Atom  16C    basis set group =>   1
Atom  17H    basis set group =>   4
Atom  18H    basis set group =>   4
Atom  19H    basis set group =>   4
Atom  20H    basis set group =>   4
Atom  21H    basis set group =>   4
Atom  22H    basis set group =>   4
Atom  23H    basis set group =>   4
Atom  24H    basis set group =>   4
Atom  25H    basis set group =>   4
Atom  26H    basis set group =>   4
Atom  27H    basis set group =>   4
Atom  28H    basis set group =>   4
Atom  29H    basis set group =>   4
Atom  30H    basis set group =>   4
Atom  31H    basis set group =>   4
Atom  32H    basis set group =>   4
Atom  33H    basis set group =>   4


           ************************************************************
           *        Program running with 6 parallel MPI-processes     *
           *              working on a common directory               *
           ************************************************************
------------------------------------------------------------------------------
                             ORCA STARTUP CALCULATIONS
                           -- RI-GTO INTEGRALS CHOSEN --
------------------------------------------------------------------------------
------------------------------------------------------------------------------
                   ___                                                        
                  /   \      - P O W E R E D   B Y -                         
                 /     \                                                     
                 |  |  |   _    _      __       _____    __    __             
                 |  |  |  | |  | |    /  \     |  _  \  |  |  /  |          
                  \  \/   | |  | |   /    \    | | | |  |  | /  /          
                 / \  \   | |__| |  /  /\  \   | |_| |  |  |/  /          
                |  |  |   |  __  | /  /__\  \  |    /   |      \           
                |  |  |   | |  | | |   __   |  |    \   |  |\   \          
                \     /   | |  | | |  |  |  |  | |\  \  |  | \   \       
                 \___/    |_|  |_| |__|  |__|  |_| \__\ |__|  \__/        
                                                                              
                      - O R C A' S   B I G   F R I E N D -                    
                                      &                                       
                       - I N T E G R A L  F E E D E R -                       
                                                                              
 v1 FN, 2020, v2 2021, v3 2022-2024                                           
------------------------------------------------------------------------------


----------------------
SHARK INTEGRAL PACKAGE
----------------------

Number of atoms                             ...     34
Number of basis functions                   ...    327
Number of shells                            ...    155
Maximum angular momentum                    ...      2
Integral batch strategy                     ... SHARK/LIBINT Hybrid
RI-J (if used) integral strategy            ... SPLIT-RIJ (Revised 2003 algorithm where possible)
Printlevel                                  ...      1
Contraction scheme used                     ... SEGMENTED contraction
Prescreening option                         ... SCHWARTZ
   Thresh                                   ... 2.500e-11
   Tcut                                     ... 2.500e-12
   Tpresel                                  ... 2.500e-12 
Coulomb Range Separation                    ... NOT USED
Exchange Range Separation                   ... NOT USED
Multipole approximations                    ... NOT USED
Finite Nucleus Model                        ... NOT USED
CABS basis                                  ... NOT available
Auxiliary Coulomb fitting basis             ... AVAILABLE
   # of basis functions in Aux-J            ...   1022
   # of shells in Aux-J                     ...    342
   Maximum angular momentum in Aux-J        ...      4
Auxiliary J/K fitting basis                 ... NOT available
Auxiliary Correlation fitting basis         ... NOT available
Auxiliary 'external' fitting basis          ... NOT available

Checking pre-screening integrals            ... done (  0.0 sec) Dimension = 155
Check shell pair data                       ... done (  0.0 sec)
Shell pair information
Shell pair cut-off parameter TPreSel        ...   2.5e-12
Total number of shell pairs                 ...     12090
Shell pairs after pre-screening             ...      9668
Total number of primitive shell pairs       ...     43942
Primitive shell pairs kept                  ...     23027
          la=0 lb=0:   3081 shell pairs
          la=1 lb=0:   3635 shell pairs
          la=1 lb=1:   1100 shell pairs
          la=2 lb=0:   1110 shell pairs
          la=2 lb=1:    644 shell pairs
          la=2 lb=2:     98 shell pairs

Calculating one electron integrals          ... done (  0.0 sec)
Calculating RI/J V-Matrix + Cholesky decomp.... done (  0.1 sec)
Calculating Nuclear repulsion               ... done (  0.0 sec) ENN=   1287.787160348935 Eh

Diagonalization of the overlap matrix:
Smallest eigenvalue                        ... 2.879e-04
Time for diagonalization                   ...    0.013 sec
Threshold for overlap eigenvalues          ... 1.000e-07
Number of eigenvalues below threshold      ... 0
Time for construction of square roots      ...    0.009 sec
Total time needed                          ...    0.024 sec

-------------------
DFT GRID GENERATION
-------------------

General Integration Accuracy     IntAcc      ... 4.388
Radial Grid Type                 RadialGrid  ... OptM3 with GC (2021)
Angular Grid (max. ang.)         AngularGrid ... 4 (Lebedev-302)
Angular grid pruning method      GridPruning ... 4 (adaptive)
Weight generation scheme         WeightScheme... mBecke (2022)
Basis function cutoff            BFCut       ... 1.0000e-11
Integration weight cutoff        WCut        ... 1.0000e-14
Partially contracted basis set               ... off
Rotationally invariant grid construction     ... off
Angular grids for H and He will be reduced by one unit

Total number of grid points                  ...   157004
Total number of batches                      ...     2470
Average number of points per batch           ...       63
Average number of grid points per atom       ...     4618
Initializing property integral containers    ... done (  0.0 sec)

SHARK setup successfully completed in   1.0 seconds

Maximum memory used throughout the entire STARTUP-calculation: 43.3 MB


           ************************************************************
           *        Program running with 6 parallel MPI-processes     *
           *              working on a common directory               *
           ************************************************************
-------------------------------------------------------------------------------
                                 ORCA GUESS
                   Start orbitals & Density for SCF / CASSCF
-------------------------------------------------------------------------------

------------
SCF SETTINGS
------------
Hamiltonian:
 Density Functional     Method          .... DFT(GTOs)
 Exchange Functional    Exchange        .... B88
   X-Alpha parameter    XAlpha          ....  0.666667
   Becke's b parameter  XBeta           ....  0.004200
 Correlation Functional Correlation     .... P86
 LDA part of GGA corr.  LDAOpt          .... PW91-LDA
 Gradients option       PostSCFGGA      .... off
   NL short-range parameter             ....  4.400000
 RI-approximation to the Coulomb term is turned on
   Number of AuxJ basis functions       .... 1022


General Settings:
 Integral files         IntName         .... data/geom_opt_PO_BP86/82100/82100
 Hartree-Fock type      HFTyp           .... RHF
 Total Charge           Charge          ....    0
 Multiplicity           Mult            ....    1
 Number of Electrons    NEL             ....  130
 Basis Dimension        Dim             ....  327
 Nuclear Repulsion      ENuc            ....   1287.7871603489 Eh

Convergence Acceleration:
 AO-DIIS                CNVDIIS         .... on
   Start iteration      DIISMaxIt       ....    12
   Startup error        DIISStart       ....  0.200000
   # of expansion vecs  DIISMaxEq       ....     5
   Bias factor          DIISBfac        ....   1.050
   Max. coefficient     DIISMaxC        ....  10.000
 MO-DIIS                CNVKDIIS        .... off
 Trust-Rad. Augm. Hess. CNVTRAH         .... auto
   Auto Start mean grad. ratio tolernc. ....  1.125000
   Auto Start start iteration           ....    50
   Auto Start num. interpolation iter.  ....    10
   Max. Number of Micro iterations      ....    24
   Max. Number of Macro iterations      .... Maxiter - #DIIS iter
   Number of Davidson start vectors     ....     2
   Converg. threshold    (grad. norm)   ....   1.000e-05
   Grad. Scal. Fac. for Micro threshold ....   0.100
   Minimum threshold for Micro iter.    ....   1.000e-02
   NR start threshold (gradient norm)   ....   1.000e-04
   Initial trust radius                 ....   0.400
   Minimum AH scaling param. (alpha)    ....   1.000
   Maximum AH scaling param. (alpha)    .... 1000.000
   Quad. conv. algorithm                .... NR
   White noise on init. David. guess    .... on
   Maximum white noise                  ....   0.010
   Pseudo random numbers                .... off
   Inactive MOs                         .... canonical
   Orbital update algorithm             .... Taylor
   Preconditioner                       .... Diag
   Full preconditioner red. dimension   ....   250
 SOSCF                  CNVSOSCF        .... on
   Start iteration      SOSCFMaxIt      ....   150
   Startup grad/error   SOSCFStart      ....  0.003300
   Hessian update       SOSCFHessUp     .... L-BFGS
 Level Shifting         CNVShift        .... on
   Level shift para.    LevelShift      ....    0.2500
   Turn off err/grad.   ShiftErr        ....    0.0010
 Zerner damping         CNVZerner       .... off
 Static damping         CNVDamp         .... on
   Fraction old density DampFac         ....    0.7000
   Max. Damping (<1)    DampMax         ....    0.9800
   Min. Damping (>=0)   DampMin         ....    0.0000
   Turn off err/grad.   DampErr         ....    0.1000

SCF Procedure:
 Maximum # iterations   MaxIter         ....   125
 SCF integral mode      SCFMode         .... Direct
   Integral package                     .... SHARK and LIBINT hybrid scheme
 Reset frequency        DirectResetFreq ....    20
 Integral Threshold     Thresh          ....  2.500e-11 Eh
 Primitive CutOff       TCut            ....  2.500e-12 Eh

Convergence Tolerance:
 Convergence Check Mode ConvCheckMode   .... Total+1el-Energy
 Convergence forced     ConvForced      .... 0
 Energy Change          TolE            ....  1.000e-08 Eh
 1-El. energy change                    ....  1.000e-05 Eh
 Orbital Gradient       TolG            ....  1.000e-05
 Orbital Rotation angle TolX            ....  1.000e-05
 DIIS Error             TolErr          ....  5.000e-07

------------------------------
INITIAL GUESS: MODEL POTENTIAL
------------------------------
Loading Hartree-Fock densities                     ... done
Calculating cut-offs                               ... done
Initializing the effective Hamiltonian             ... done
Setting up the integral package (SHARK)            ... done
Starting the Coulomb interaction                   ... done (   0.2 sec)
Making the grid                                    ... done (   0.2 sec)
Mapping shells                                     ... done
Starting the XC term evaluation                    ... done (   0.1 sec)
  promolecular density results
     # of electrons  =    129.987105725
     EX              =   -113.046334270
     EC              =     -4.815853824
     EX+EC           =   -117.862188094
Transforming the Hamiltonian                       ... done (   0.0 sec)
Diagonalizing the Hamiltonian                      ... done (   0.0 sec)
Back transforming the eigenvectors                 ... done (   0.0 sec)
Now organizing SCF variables                       ... done
                      ------------------
                      INITIAL GUESS DONE (   0.6 sec)
                      ------------------
             **** ENERGY FILE WAS UPDATED (data/geom_opt_PO_BP86/82100/82100.en.tmp) ****
Finished Guess after   0.7 sec
Maximum memory used throughout the entire GUESS-calculation: 24.0 MB


           ************************************************************
           *        Program running with 6 parallel MPI-processes     *
           *              working on a common directory               *
           ************************************************************

-------------------------------------------------------------------------------------------
                                      ORCA LEAN-SCF
                              memory conserving SCF solver
-------------------------------------------------------------------------------------------

----------------------------------------D-I-I-S--------------------------------------------
Iteration    Energy (Eh)           Delta-E    RMSDP     MaxDP     DIISErr   Damp  Time(sec)
-------------------------------------------------------------------------------------------
               ***  Starting incremental Fock matrix formation  ***
    1    -997.4405531800043718     0.00e+00  3.68e-03  1.55e-01  3.35e-01  0.700   0.8
    2    -997.6612808743957430    -2.21e-01  2.12e-03  7.05e-02  7.96e-02  0.700   0.7
                               ***Turning on AO-DIIS***
    3    -997.7290401896916592    -6.78e-02  7.25e-04  2.02e-02  2.92e-02  0.700   0.7
    4    -997.7759249475589058    -4.69e-02  1.27e-03  4.65e-02  1.72e-02  0.000   0.9
    5    -997.8811168311035544    -1.05e-01  3.20e-04  8.04e-03  7.23e-03  0.000   0.8
                              *** Initializing SOSCF ***
---------------------------------------S-O-S-C-F--------------------------------------
Iteration    Energy (Eh)           Delta-E    RMSDP     MaxDP     MaxGrad    Time(sec)
--------------------------------------------------------------------------------------
    6    -997.8822280821427739    -1.11e-03  1.11e-04  2.29e-03  2.84e-03     0.7
               *** Restarting incremental Fock matrix formation ***
    7    -997.8822993337589651    -7.13e-05  1.07e-04  3.37e-03  4.71e-04     0.7
    8    -997.8822700817127043     2.93e-05  6.09e-05  1.82e-03  9.84e-04     0.6
    9    -997.8823111811602757    -4.11e-05  2.51e-05  6.72e-04  1.25e-04     0.7
   10    -997.8823094471508739     1.73e-06  1.60e-05  5.11e-04  2.21e-04     0.7
   11    -997.8823121695886584    -2.72e-06  1.42e-05  6.90e-04  6.72e-05     0.7
   12    -997.8823114573219755     7.12e-07  9.67e-06  4.17e-04  1.23e-04     0.7
   13    -997.8823123806946569    -9.23e-07  3.40e-06  1.46e-04  1.55e-05     0.6
   14    -997.8823123184874930     6.22e-08  2.13e-06  1.02e-04  3.02e-05     0.6
   15    -997.8823123999654854    -8.15e-08  1.22e-06  4.02e-05  7.63e-06     0.6
   16    -997.8823123871529788     1.28e-08  7.84e-07  2.97e-05  1.43e-05     0.6
   17    -997.8823124012333210    -1.41e-08  3.03e-07  1.69e-05  1.16e-06     0.6
                  *** Gradient check signals convergence ***

               *****************************************************
               *                     SUCCESS                       *
               *           SCF CONVERGED AFTER  17 CYCLES          *
               *****************************************************

             **** ENERGY FILE WAS UPDATED (data/geom_opt_PO_BP86/82100/82100.en.tmp) ****

----------------
TOTAL SCF ENERGY
----------------

Total Energy       :       -997.88231240123332 Eh          -27153.75819 eV

Components:
Nuclear Repulsion  :       1287.78716034893478 Eh           35042.47016 eV
Electronic Energy  :      -2285.66947275016810 Eh          -62196.22835 eV
One Electron Energy:      -3918.39581091111586 Eh         -106624.97072 eV
Two Electron Energy:       1632.72633816094776 Eh           44428.74237 eV

Virial components:
Potential Energy   :      -1987.30672732627863 Eh          -54077.36529 eV
Kinetic Energy     :        989.42441492504520 Eh           26923.60710 eV
Virial Ratio       :          2.00854830075810

DFT components:
N(Alpha)           :       65.000128074996 electrons
N(Beta)            :       65.000128074996 electrons
N(Total)           :      130.000256149992 electrons
E(X)               :     -114.792294836906 Eh       
E(C)               :       -4.820196300390 Eh       
E(XC)              :     -119.612491137296 Eh       

---------------
SCF CONVERGENCE
---------------

  Last Energy change         ...    1.4080e-08  Tolerance :   1.0000e-08
  Last MAX-Density change    ...    1.6886e-05  Tolerance :   1.0000e-07
  Last RMS-Density change    ...    3.0273e-07  Tolerance :   5.0000e-09
  Last DIIS Error            ...    2.8384e-03  Tolerance :   5.0000e-07
  Last Orbital Gradient      ...    1.1646e-06  Tolerance :   1.0000e-05
  Last Orbital Rotation      ...    5.1996e-06  Tolerance :   1.0000e-05


----------------
ORBITAL ENERGIES
----------------

  NO   OCC          E(Eh)            E(eV) 
   0   2.0000     -76.404358     -2079.0683 
   1   2.0000     -18.701682      -508.8986 
   2   2.0000      -9.932806      -270.2854 
   3   2.0000      -9.931513      -270.2502 
   4   2.0000      -9.927848      -270.1505 
   5   2.0000      -9.927638      -270.1448 
   6   2.0000      -9.927230      -270.1337 
   7   2.0000      -9.927058      -270.1290 
   8   2.0000      -9.926753      -270.1207 
   9   2.0000      -9.926103      -270.1030 
  10   2.0000      -9.925602      -270.0894 
  11   2.0000      -9.925528      -270.0873 
  12   2.0000      -9.924393      -270.0565 
  13   2.0000      -9.924071      -270.0477 
  14   2.0000      -9.914931      -269.7990 
  15   2.0000      -9.910883      -269.6888 
  16   2.0000      -9.903404      -269.4853 
  17   2.0000      -6.364545      -173.1881 
  18   2.0000      -4.585717      -124.7837 
  19   2.0000      -4.585544      -124.7790 
  20   2.0000      -4.585335      -124.7733 
  21   2.0000      -0.842890       -22.9362 
  22   2.0000      -0.785613       -21.3776 
  23   2.0000      -0.783866       -21.3301 
  24   2.0000      -0.718746       -19.5581 
  25   2.0000      -0.695298       -18.9200 
  26   2.0000      -0.682000       -18.5582 
  27   2.0000      -0.681001       -18.5310 
  28   2.0000      -0.680126       -18.5072 
  29   2.0000      -0.629131       -17.1195 
  30   2.0000      -0.576027       -15.6745 
  31   2.0000      -0.555584       -15.1182 
  32   2.0000      -0.551878       -15.0174 
  33   2.0000      -0.547671       -14.9029 
  34   2.0000      -0.528914       -14.3925 
  35   2.0000      -0.502706       -13.6793 
  36   2.0000      -0.479827       -13.0568 
  37   2.0000      -0.455779       -12.4024 
  38   2.0000      -0.425298       -11.5729 
  39   2.0000      -0.420977       -11.4554 
  40   2.0000      -0.416552       -11.3350 
  41   2.0000      -0.410682       -11.1752 
  42   2.0000      -0.406588       -11.0638 
  43   2.0000      -0.391917       -10.6646 
  44   2.0000      -0.388125       -10.5614 
  45   2.0000      -0.385044       -10.4776 
  46   2.0000      -0.383167       -10.4265 
  47   2.0000      -0.368394       -10.0245 
  48   2.0000      -0.352375        -9.5886 
  49   2.0000      -0.347105        -9.4452 
  50   2.0000      -0.340271        -9.2593 
  51   2.0000      -0.334912        -9.1134 
  52   2.0000      -0.317944        -8.6517 
  53   2.0000      -0.313004        -8.5173 
  54   2.0000      -0.310524        -8.4498 
  55   2.0000      -0.303628        -8.2622 
  56   2.0000      -0.301189        -8.1958 
  57   2.0000      -0.293874        -7.9967 
  58   2.0000      -0.285151        -7.7594 
  59   2.0000      -0.250792        -6.8244 
  60   2.0000      -0.243458        -6.6248 
  61   2.0000      -0.241432        -6.5697 
  62   2.0000      -0.238556        -6.4914 
  63   2.0000      -0.208536        -5.6746 
  64   2.0000      -0.203884        -5.5480 
  65   0.0000      -0.071644        -1.9495 
  66   0.0000      -0.058027        -1.5790 
  67   0.0000      -0.050662        -1.3786 
  68   0.0000      -0.049117        -1.3365 
  69   0.0000       0.023789         0.6473 
  70   0.0000       0.035156         0.9566 
  71   0.0000       0.045046         1.2258 
  72   0.0000       0.049106         1.3363 
  73   0.0000       0.059357         1.6152 
  74   0.0000       0.070560         1.9200 
  75   0.0000       0.073605         2.0029 
*Only the first 10 virtual orbitals were printed.

                    ********************************
                    * MULLIKEN POPULATION ANALYSIS *
                    ********************************

-----------------------
MULLIKEN ATOMIC CHARGES
-----------------------
   0 C :   -0.022387
   1 C :   -0.034285
   2 C :   -0.137795
   3 P :    0.513454
   4 O :   -0.468388
   5 C :   -0.085336
   6 C :   -0.004235
   7 C :    0.011952
   8 C :    0.015274
   9 C :    0.009507
  10 C :    0.000762
  11 C :   -0.058710
  12 C :    0.008608
  13 C :    0.012911
  14 C :    0.014914
  15 C :    0.014552
  16 C :   -0.021211
  17 H :    0.024975
  18 H :    0.018220
  19 H :    0.029135
  20 H :    0.042457
  21 H :    0.025767
  22 H :    0.055630
  23 H :    0.026026
  24 H :    0.013867
  25 H :    0.002556
  26 H :    0.001185
  27 H :   -0.002487
  28 H :   -0.012899
  29 H :    0.012524
  30 H :    0.003387
  31 H :    0.001532
  32 H :   -0.002857
  33 H :   -0.008606
Sum of atomic charges:   -0.0000000

--------------------------------
MULLIKEN REDUCED ORBITAL CHARGES
--------------------------------
  0 C s       :     2.993519  s :     2.993519
      pz      :     1.002083  p :     3.001977
      px      :     0.989104
      py      :     1.010790
      dz2     :     0.006528  d :     0.026890
      dxz     :     0.006107
      dyz     :     0.002826
      dx2y2   :     0.008061
      dxy     :     0.003369

  1 C s       :     3.028046  s :     3.028046
      pz      :     1.020221  p :     2.971071
      px      :     0.933748
      py      :     1.017101
      dz2     :     0.008804  d :     0.035168
      dxz     :     0.007393
      dyz     :     0.003470
      dx2y2   :     0.010255
      dxy     :     0.005246

  2 C s       :     3.060163  s :     3.060163
      pz      :     1.013962  p :     3.050074
      px      :     1.008216
      py      :     1.027896
      dz2     :     0.007963  d :     0.027557
      dxz     :     0.004896
      dyz     :     0.003206
      dx2y2   :     0.007517
      dxy     :     0.003976

  3 P s       :     5.257039  s :     5.257039
      pz      :     2.855247  p :     8.743260
      px      :     2.955171
      py      :     2.932842
      dz2     :     0.096660  d :     0.486248
      dxz     :     0.149590
      dyz     :     0.104200
      dx2y2   :     0.085817
      dxy     :     0.049981

  4 O s       :     3.820722  s :     3.820722
      pz      :     1.364882  p :     4.635888
      px      :     1.652901
      py      :     1.618105
      dz2     :     0.004549  d :     0.011779
      dxz     :     0.002968
      dyz     :     0.003537
      dx2y2   :     0.000341
      dxy     :     0.000383

  5 C s       :     3.057440  s :     3.057440
      pz      :     0.969382  p :     2.994559
      px      :     1.024361
      py      :     1.000816
      dz2     :     0.010023  d :     0.033338
      dxz     :     0.006392
      dyz     :     0.009473
      dx2y2   :     0.004705
      dxy     :     0.002745

  6 C s       :     3.252817  s :     3.252817
      pz      :     0.889891  p :     2.718677
      px      :     0.942953
      py      :     0.885833
      dz2     :     0.008223  d :     0.032740
      dxz     :     0.002902
      dyz     :     0.011394
      dx2y2   :     0.004710
      dxy     :     0.005511

  7 C s       :     3.172461  s :     3.172461
      pz      :     0.876808  p :     2.782801
      px      :     0.982760
      py      :     0.923234
      dz2     :     0.007959  d :     0.032785
      dxz     :     0.003414
      dyz     :     0.012435
      dx2y2   :     0.004359
      dxy     :     0.004619

  8 C s       :     3.168997  s :     3.168997
      pz      :     0.965983  p :     2.782652
      px      :     0.969034
      py      :     0.847635
      dz2     :     0.010522  d :     0.033077
      dxz     :     0.006192
      dyz     :     0.009791
      dx2y2   :     0.004362
      dxy     :     0.002210

  9 C s       :     3.170411  s :     3.170411
      pz      :     0.860193  p :     2.787339
      px      :     0.986462
      py      :     0.940684
      dz2     :     0.008382  d :     0.032743
      dxz     :     0.002894
      dyz     :     0.011486
      dx2y2   :     0.004698
      dxy     :     0.005283

 10 C s       :     3.221616  s :     3.221616
      pz      :     0.885380  p :     2.744550
      px      :     0.972460
      py      :     0.886710
      dz2     :     0.007926  d :     0.033072
      dxz     :     0.003397
      dyz     :     0.012373
      dx2y2   :     0.004340
      dxy     :     0.005036

 11 C s       :     3.047166  s :     3.047166
      pz      :     0.970388  p :     2.978243
      px      :     1.001565
      py      :     1.006291
      dz2     :     0.008322  d :     0.033301
      dxz     :     0.010688
      dyz     :     0.005735
      dx2y2   :     0.004093
      dxy     :     0.004462

 12 C s       :     3.240827  s :     3.240827
      pz      :     0.846317  p :     2.717892
      px      :     0.936651
      py      :     0.934923
      dz2     :     0.008586  d :     0.032673
      dxz     :     0.008980
      dyz     :     0.003136
      dx2y2   :     0.005867
      dxy     :     0.006104

 13 C s       :     3.171755  s :     3.171755
      pz      :     0.932164  p :     2.782526
      px      :     0.874555
      py      :     0.975806
      dz2     :     0.008625  d :     0.032808
      dxz     :     0.010703
      dyz     :     0.005579
      dx2y2   :     0.004504
      dxy     :     0.003396

 14 C s       :     3.169508  s :     3.169508
      pz      :     0.935187  p :     2.782497
      px      :     0.893100
      py      :     0.954210
      dz2     :     0.008265  d :     0.033081
      dxz     :     0.011187
      dyz     :     0.005487
      dx2y2   :     0.003792
      dxy     :     0.004350

 15 C s       :     3.168021  s :     3.168021
      pz      :     0.843740  p :     2.784726
      px      :     0.961583
      py      :     0.979403
      dz2     :     0.008808  d :     0.032700
      dxz     :     0.008917
      dyz     :     0.003128
      dx2y2   :     0.005811
      dxy     :     0.006036

 16 C s       :     3.219250  s :     3.219250
      pz      :     0.939883  p :     2.768852
      px      :     0.851820
      py      :     0.977150
      dz2     :     0.008389  d :     0.033108
      dxz     :     0.011046
      dyz     :     0.005832
      dx2y2   :     0.004549
      dxy     :     0.003293

 17 H s       :     0.952090  s :     0.952090
      pz      :     0.005354  p :     0.022934
      px      :     0.004739
      py      :     0.012841

 18 H s       :     0.958868  s :     0.958868
      pz      :     0.011683  p :     0.022912
      px      :     0.004938
      py      :     0.006291

 19 H s       :     0.948094  s :     0.948094
      pz      :     0.007377  p :     0.022772
      px      :     0.009569
      py      :     0.005825

 20 H s       :     0.935537  s :     0.935537
      pz      :     0.011895  p :     0.022006
      px      :     0.004188
      py      :     0.005922

 21 H s       :     0.951942  s :     0.951942
      pz      :     0.005029  p :     0.022291
      px      :     0.004351
      py      :     0.012911

 22 H s       :     0.921598  s :     0.921598
      pz      :     0.005141  p :     0.022771
      px      :     0.004458
      py      :     0.013172

 23 H s       :     0.950904  s :     0.950904
      pz      :     0.011726  p :     0.023070
      px      :     0.005131
      py      :     0.006212

 24 H s       :     0.963257  s :     0.963257
      pz      :     0.012094  p :     0.022876
      px      :     0.004572
      py      :     0.006210

 25 H s       :     0.975112  s :     0.975112
      pz      :     0.010545  p :     0.022332
      px      :     0.004947
      py      :     0.006841

 26 H s       :     0.976508  s :     0.976508
      pz      :     0.003768  p :     0.022306
      px      :     0.004909
      py      :     0.013629

 27 H s       :     0.980086  s :     0.980086
      pz      :     0.011780  p :     0.022401
      px      :     0.005039
      py      :     0.005582

 28 H s       :     0.990190  s :     0.990190
      pz      :     0.010677  p :     0.022710
      px      :     0.005196
      py      :     0.006837

 29 H s       :     0.964816  s :     0.964816
      pz      :     0.013976  p :     0.022660
      px      :     0.003777
      py      :     0.004907

 30 H s       :     0.974274  s :     0.974274
      pz      :     0.005964  p :     0.022340
      px      :     0.011387
      py      :     0.004988

 31 H s       :     0.976155  s :     0.976155
      pz      :     0.006354  p :     0.022313
      px      :     0.009911
      py      :     0.006049

 32 H s       :     0.980452  s :     0.980452
      pz      :     0.013190  p :     0.022405
      px      :     0.003882
      py      :     0.005332

 33 H s       :     0.985800  s :     0.985800
      pz      :     0.006174  p :     0.022806
      px      :     0.011348
      py      :     0.005284



                     *******************************
                     * LOEWDIN POPULATION ANALYSIS *
                     *******************************

----------------------
LOEWDIN ATOMIC CHARGES
----------------------
   0 C :   -0.065963
   1 C :   -0.049861
   2 C :   -0.182996
   3 P :    0.877816
   4 O :   -0.505271
   5 C :   -0.188287
   6 C :   -0.010506
   7 C :   -0.025018
   8 C :   -0.017401
   9 C :   -0.026919
  10 C :   -0.027169
  11 C :   -0.184554
  12 C :   -0.005742
  13 C :   -0.023013
  14 C :   -0.017165
  15 C :   -0.026581
  16 C :   -0.033494
  17 H :    0.025906
  18 H :    0.022770
  19 H :    0.029849
  20 H :    0.033368
  21 H :    0.026778
  22 H :    0.037174
  23 H :    0.019457
  24 H :    0.036373
  25 H :    0.033363
  26 H :    0.032036
  27 H :    0.031570
  28 H :    0.024969
  29 H :    0.035815
  30 H :    0.033923
  31 H :    0.032319
  32 H :    0.031718
  33 H :    0.024736

-------------------------------
LOEWDIN REDUCED ORBITAL CHARGES
-------------------------------
  0 C s       :     2.840052  s :     2.840052
      pz      :     1.059396  p :     3.155242
      px      :     1.032706
      py      :     1.063140
      dz2     :     0.016762  d :     0.070669
      dxz     :     0.016449
      dyz     :     0.007429
      dx2y2   :     0.021623
      dxy     :     0.008405

  1 C s       :     2.835524  s :     2.835524
      pz      :     1.057965  p :     3.125587
      px      :     1.003812
      py      :     1.063810
      dz2     :     0.021235  d :     0.088750
      dxz     :     0.019862
      dyz     :     0.008527
      dx2y2   :     0.027006
      dxy     :     0.012119

  2 C s       :     2.894840  s :     2.894840
      pz      :     1.069451  p :     3.217284
      px      :     1.067434
      py      :     1.080399
      dz2     :     0.019475  d :     0.070872
      dxz     :     0.013447
      dyz     :     0.008120
      dx2y2   :     0.020618
      dxy     :     0.009211

  3 P s       :     4.930688  s :     4.930688
      pz      :     2.784933  p :     8.513931
      px      :     2.866576
      py      :     2.862422
      dz2     :     0.140891  d :     0.677566
      dxz     :     0.208356
      dyz     :     0.136991
      dx2y2   :     0.127122
      dxy     :     0.064206

  4 O s       :     3.661601  s :     3.661601
      pz      :     1.492890  p :     4.825336
      px      :     1.676808
      py      :     1.655638
      dz2     :     0.008784  d :     0.018334
      dxz     :     0.003412
      dyz     :     0.005277
      dx2y2   :     0.000403
      dxy     :     0.000457

  5 C s       :     2.911669  s :     2.911669
      pz      :     1.089003  p :     3.186866
      px      :     1.005945
      py      :     1.091919
      dz2     :     0.029574  d :     0.089752
      dxz     :     0.013603
      dyz     :     0.029866
      dx2y2   :     0.011669
      dxy     :     0.005041

  6 C s       :     2.868504  s :     2.868504
      pz      :     1.055399  p :     3.052785
      px      :     0.937566
      py      :     1.059820
      dz2     :     0.023658  d :     0.089217
      dxz     :     0.005640
      dyz     :     0.033902
      dx2y2   :     0.014232
      dxy     :     0.011785

  7 C s       :     2.863735  s :     2.863735
      pz      :     1.049516  p :     3.072240
      px      :     0.963033
      py      :     1.059691
      dz2     :     0.023710  d :     0.089042
      dxz     :     0.006764
      dyz     :     0.035889
      dx2y2   :     0.012985
      dxy     :     0.009695

  8 C s       :     2.864715  s :     2.864715
      pz      :     1.071077  p :     3.063282
      px      :     0.950561
      py      :     1.041644
      dz2     :     0.030908  d :     0.089404
      dxz     :     0.013539
      dyz     :     0.030091
      dx2y2   :     0.011023
      dxy     :     0.003843

  9 C s       :     2.863577  s :     2.863577
      pz      :     1.046350  p :     3.074473
      px      :     0.967652
      py      :     1.060471
      dz2     :     0.024180  d :     0.088869
      dxz     :     0.005510
      dyz     :     0.033617
      dx2y2   :     0.014191
      dxy     :     0.011370

 10 C s       :     2.864744  s :     2.864744
      pz      :     1.048681  p :     3.071650
      px      :     0.961106
      py      :     1.061863
      dz2     :     0.023465  d :     0.090775
      dxz     :     0.006941
      dyz     :     0.036602
      dx2y2   :     0.013151
      dxy     :     0.010617

 11 C s       :     2.910460  s :     2.910460
      pz      :     1.084664  p :     3.184792
      px      :     1.085324
      py      :     1.014804
      dz2     :     0.024699  d :     0.089302
      dxz     :     0.030403
      dyz     :     0.013246
      dx2y2   :     0.010858
      dxy     :     0.010095

 12 C s       :     2.867195  s :     2.867195
      pz      :     1.046947  p :     3.049378
      px      :     1.048422
      py      :     0.954008
      dz2     :     0.023863  d :     0.089169
      dxz     :     0.026816
      dyz     :     0.007064
      dx2y2   :     0.016268
      dxy     :     0.015157

 13 C s       :     2.863496  s :     2.863496
      pz      :     1.056718  p :     3.070480
      px      :     1.039122
      py      :     0.974640
      dz2     :     0.025620  d :     0.089037
      dxz     :     0.030663
      dyz     :     0.013600
      dx2y2   :     0.011126
      dxy     :     0.008028

 14 C s       :     2.864413  s :     2.864413
      pz      :     1.057701  p :     3.063325
      px      :     1.042975
      py      :     0.962649
      dz2     :     0.024481  d :     0.089427
      dxz     :     0.032063
      dyz     :     0.012864
      dx2y2   :     0.010109
      dxy     :     0.009910

 15 C s       :     2.863702  s :     2.863702
      pz      :     1.035827  p :     3.074134
      px      :     1.059149
      py      :     0.979157
      dz2     :     0.023788  d :     0.088745
      dxz     :     0.027096
      dyz     :     0.007080
      dx2y2   :     0.015924
      dxy     :     0.014857

 16 C s       :     2.864929  s :     2.864929
      pz      :     1.054387  p :     3.077784
      px      :     1.041870
      py      :     0.981527
      dz2     :     0.024997  d :     0.090781
      dxz     :     0.032139
      dyz     :     0.014417
      dx2y2   :     0.011292
      dxy     :     0.007937

 17 H s       :     0.908472  s :     0.908472
      pz      :     0.012930  p :     0.065622
      px      :     0.013065
      py      :     0.039627

 18 H s       :     0.911632  s :     0.911632
      pz      :     0.035849  p :     0.065597
      px      :     0.013526
      py      :     0.016222

 19 H s       :     0.904479  s :     0.904479
      pz      :     0.020673  p :     0.065672
      px      :     0.030091
      py      :     0.014908

 20 H s       :     0.898808  s :     0.898808
      pz      :     0.038496  p :     0.067824
      px      :     0.013171
      py      :     0.016157

 21 H s       :     0.906371  s :     0.906371
      pz      :     0.013549  p :     0.066851
      px      :     0.013132
      py      :     0.040171

 22 H s       :     0.891737  s :     0.891737
      pz      :     0.013562  p :     0.071090
      px      :     0.014954
      py      :     0.042574

 23 H s       :     0.907369  s :     0.907369
      pz      :     0.039223  p :     0.073174
      px      :     0.017105
      py      :     0.016846

 24 H s       :     0.892236  s :     0.892236
      pz      :     0.038402  p :     0.071391
      px      :     0.013509
      py      :     0.019480

 25 H s       :     0.898494  s :     0.898494
      pz      :     0.032482  p :     0.068143
      px      :     0.014429
      py      :     0.021232

 26 H s       :     0.899915  s :     0.899915
      pz      :     0.011982  p :     0.068049
      px      :     0.014203
      py      :     0.041864

 27 H s       :     0.900217  s :     0.900217
      pz      :     0.036248  p :     0.068213
      px      :     0.014593
      py      :     0.017372

 28 H s       :     0.905595  s :     0.905595
      pz      :     0.033463  p :     0.069436
      px      :     0.014712
      py      :     0.021261

 29 H s       :     0.893742  s :     0.893742
      pz      :     0.043754  p :     0.070443
      px      :     0.011873
      py      :     0.014816

 30 H s       :     0.897961  s :     0.897961
      pz      :     0.018456  p :     0.068116
      px      :     0.034990
      py      :     0.014669

 31 H s       :     0.899627  s :     0.899627
      pz      :     0.019750  p :     0.068054
      px      :     0.030477
      py      :     0.017827

 32 H s       :     0.900072  s :     0.900072
      pz      :     0.040447  p :     0.068210
      px      :     0.012097
      py      :     0.015666

 33 H s       :     0.905300  s :     0.905300
      pz      :     0.019347  p :     0.069965
      px      :     0.035194
      py      :     0.015424



                      *****************************
                      * MAYER POPULATION ANALYSIS *
                      *****************************

  NA   - Mulliken gross atomic population
  ZA   - Total nuclear charge
  QA   - Mulliken gross atomic charge
  VA   - Mayer's total valence
  BVA  - Mayer's bonded valence
  FA   - Mayer's free valence

  ATOM       NA         ZA         QA         VA         BVA        FA
  0 C      6.0224     6.0000    -0.0224     4.0283     4.0283    -0.0000
  1 C      6.0343     6.0000    -0.0343     4.1172     4.1172    -0.0000
  2 C      6.1378     6.0000    -0.1378     3.9160     3.9160    -0.0000
  3 P     14.4865    15.0000     0.5135     4.8277     4.8277    -0.0000
  4 O      8.4684     8.0000    -0.4684     2.1317     2.1317    -0.0000
  5 C      6.0853     6.0000    -0.0853     3.7077     3.7077    -0.0000
  6 C      6.0042     6.0000    -0.0042     3.9010     3.9010    -0.0000
  7 C      5.9880     6.0000     0.0120     3.8244     3.8244    -0.0000
  8 C      5.9847     6.0000     0.0153     3.8277     3.8277    -0.0000
  9 C      5.9905     6.0000     0.0095     3.8627     3.8627    -0.0000
 10 C      5.9992     6.0000     0.0008     3.8556     3.8556    -0.0000
 11 C      6.0587     6.0000    -0.0587     3.7045     3.7045    -0.0000
 12 C      5.9914     6.0000     0.0086     3.9023     3.9023    -0.0000
[...]
      dxz     :     0.005384
      dyz     :     0.032167
      dx2y2   :     0.013945
      dxy     :     0.011290

 10 C s       :     2.872637  s :     2.872637
      pz      :     1.046229  p :     3.073608
      px      :     0.967837
      py      :     1.059541
      dz2     :     0.022735  d :     0.088078
      dxz     :     0.006831
      dyz     :     0.035331
      dx2y2   :     0.012849
      dxy     :     0.010332

 11 C s       :     2.921843  s :     2.921843
      pz      :     1.084038  p :     3.175897
      px      :     1.076087
      py      :     1.015772
      dz2     :     0.025186  d :     0.086222
      dxz     :     0.029132
      dyz     :     0.014693
      dx2y2   :     0.008535
      dxy     :     0.008676

 12 C s       :     2.875940  s :     2.875940
      pz      :     1.055310  p :     3.052721
      px      :     1.039112
      py      :     0.958299
      dz2     :     0.024329  d :     0.086665
      dxz     :     0.025358
      dyz     :     0.007913
      dx2y2   :     0.014426
      dxy     :     0.014640

 13 C s       :     2.872947  s :     2.872947
      pz      :     1.057796  p :     3.066848
      px      :     1.033047
      py      :     0.976005
      dz2     :     0.025962  d :     0.085976
      dxz     :     0.029448
      dyz     :     0.013893
      dx2y2   :     0.008285
      dxy     :     0.008387

 14 C s       :     2.874469  s :     2.874469
      pz      :     1.060536  p :     3.061399
      px      :     1.031622
      py      :     0.969241
      dz2     :     0.025220  d :     0.085560
      dxz     :     0.029775
      dyz     :     0.014026
      dx2y2   :     0.008007
      dxy     :     0.008532

 15 C s       :     2.872569  s :     2.872569
      pz      :     1.037591  p :     3.071067
      px      :     1.049377
      py      :     0.984099
      dz2     :     0.024647  d :     0.085796
      dxz     :     0.025115
      dyz     :     0.007625
      dx2y2   :     0.014152
      dxy     :     0.014258

 16 C s       :     2.872845  s :     2.872845
      pz      :     1.057645  p :     3.075674
      px      :     1.034877
      py      :     0.983152
      dz2     :     0.025502  d :     0.088002
      dxz     :     0.031016
      dyz     :     0.014707
      dx2y2   :     0.008551
      dxy     :     0.008226

 17 H s       :     0.908403  s :     0.908403
      pz      :     0.012091  p :     0.063165
      px      :     0.012027
      py      :     0.039048

 18 H s       :     0.910968  s :     0.910968
      pz      :     0.035969  p :     0.063072
      px      :     0.012808
      py      :     0.014295

 19 H s       :     0.904353  s :     0.904353
      pz      :     0.019930  p :     0.063417
      px      :     0.028987
      py      :     0.014499

 20 H s       :     0.899181  s :     0.899181
      pz      :     0.038619  p :     0.065601
      px      :     0.012699
      py      :     0.014283

 21 H s       :     0.904718  s :     0.904718
      pz      :     0.012478  p :     0.064357
      px      :     0.012077
      py      :     0.039802

 22 H s       :     0.892118  s :     0.892118
      pz      :     0.012471  p :     0.068516
      px      :     0.014076
      py      :     0.041969

 23 H s       :     0.902706  s :     0.902706
      pz      :     0.039063  p :     0.069619
      px      :     0.015289
      py      :     0.015267

 24 H s       :     0.890669  s :     0.890669
      pz      :     0.037019  p :     0.070958
      px      :     0.013095
      py      :     0.020844

 25 H s       :     0.898619  s :     0.898619
      pz      :     0.031541  p :     0.065903
      px      :     0.013739
      py      :     0.020623

 26 H s       :     0.899640  s :     0.899640
      pz      :     0.011109  p :     0.065833
      px      :     0.013598
      py      :     0.041125

 27 H s       :     0.900169  s :     0.900169
      pz      :     0.035498  p :     0.065963
      px      :     0.014022
      py      :     0.016442

 28 H s       :     0.906986  s :     0.906986
      pz      :     0.032075  p :     0.067000
      px      :     0.014120
      py      :     0.020805

 29 H s       :     0.890722  s :     0.890722
      pz      :     0.045836  p :     0.070421
      px      :     0.011754
      py      :     0.012831

 30 H s       :     0.898050  s :     0.898050
      pz      :     0.018658  p :     0.065901
      px      :     0.030862
      py      :     0.016381

 31 H s       :     0.899209  s :     0.899209
      pz      :     0.018397  p :     0.065843
      px      :     0.030197
      py      :     0.017249

 32 H s       :     0.899777  s :     0.899777
      pz      :     0.041197  p :     0.065982
      px      :     0.011287
      py      :     0.013498

 33 H s       :     0.907277  s :     0.907277
      pz      :     0.019209  p :     0.067224
      px      :     0.031185
      py      :     0.016830



                      *****************************
                      * MAYER POPULATION ANALYSIS *
                      *****************************

  NA   - Mulliken gross atomic population
  ZA   - Total nuclear charge
  QA   - Mulliken gross atomic charge
  VA   - Mayer's total valence
  BVA  - Mayer's bonded valence
  FA   - Mayer's free valence

  ATOM       NA         ZA         QA         VA         BVA        FA
  0 C      6.0364     6.0000    -0.0364     4.0177     4.0177    -0.0000
  1 C      6.0555     6.0000    -0.0555     4.0985     4.0985    -0.0000
  2 C      6.1549     6.0000    -0.1549     3.8928     3.8928    -0.0000
  3 P     14.4542    15.0000     0.5458     4.7338     4.7338    -0.0000
  4 O      8.4580     8.0000    -0.4580     2.1449     2.1449    -0.0000
  5 C      6.1136     6.0000    -0.1136     3.7407     3.7407    -0.0000
  6 C      6.0019     6.0000    -0.0019     3.8912     3.8912    -0.0000
  7 C      5.9969     6.0000     0.0031     3.8241     3.8241    -0.0000
  8 C      5.9921     6.0000     0.0079     3.8302     3.8302    -0.0000
  9 C      6.0012     6.0000    -0.0012     3.8702     3.8702    -0.0000
 10 C      6.0045     6.0000    -0.0045     3.8676     3.8676    -0.0000
 11 C      6.0885     6.0000    -0.0885     3.7337     3.7337    -0.0000
 12 C      5.9986     6.0000     0.0014     3.8939     3.8939    -0.0000
 13 C      5.9967     6.0000     0.0033     3.8278     3.8278    -0.0000
 14 C      5.9919     6.0000     0.0081     3.8324     3.8324    -0.0000
 15 C      5.9986     6.0000     0.0014     3.8707     3.8707    -0.0000
 16 C      6.0212     6.0000    -0.0212     3.8856     3.8856    -0.0000
 17 H      0.9691     1.0000     0.0309     0.9880     0.9880    -0.0000
 18 H      0.9752     1.0000     0.0248     0.9873     0.9873    -0.0000
 19 H      0.9641     1.0000     0.0359     0.9840     0.9840    -0.0000
 20 H      0.9505     1.0000     0.0495     0.9973     0.9973    -0.0000
 21 H      0.9630     1.0000     0.0370     0.9840     0.9840    -0.0000
 22 H      0.9366     1.0000     0.0634     0.9882     0.9882    -0.0000
 23 H      0.9619     1.0000     0.0381     0.9925     0.9925    -0.0000
 24 H      0.9757     1.0000     0.0243     1.0204     1.0204     0.0000
 25 H      0.9899     1.0000     0.0101     0.9799     0.9799    -0.0000
 26 H      0.9913     1.0000     0.0087     0.9789     0.9789     0.0000
 27 H      0.9955     1.0000     0.0045     0.9788     0.9788    -0.0000
 28 H      1.0119     1.0000    -0.0119     0.9929     0.9929    -0.0000
 29 H      0.9758     1.0000     0.0242     1.0186     1.0186    -0.0000
 30 H      0.9888     1.0000     0.0112     0.9800     0.9800    -0.0000
 31 H      0.9904     1.0000     0.0096     0.9789     0.9789    -0.0000
 32 H      0.9949     1.0000     0.0051     0.9791     0.9791    -0.0000
 33 H      1.0006     1.0000    -0.0006     0.9866     0.9866    -0.0000

  Mayer bond orders larger than 0.100000
B(  0-C ,  1-C ) :   1.1115 B(  0-C , 17-H ) :   0.9672 B(  0-C , 18-H ) :   0.9651 
B(  0-C , 19-H ) :   0.9623 B(  1-C ,  2-C ) :   1.0619 B(  1-C , 20-H ) :   0.9340 
B(  1-C , 21-H ) :   0.9406 B(  2-C ,  3-P ) :   0.9270 B(  2-C , 22-H ) :   0.9265 
B(  2-C , 23-H ) :   0.9047 B(  3-P ,  4-O ) :   1.8719 B(  3-P ,  5-C ) :   0.8633 
B(  3-P , 11-C ) :   0.8589 B(  5-C ,  6-C ) :   1.3952 B(  5-C , 10-C ) :   1.3459 
B(  6-C ,  7-C ) :   1.3617 B(  6-C , 24-H ) :   0.9688 B(  7-C ,  8-C ) :   1.3851 
B(  7-C , 25-H ) :   0.9789 B(  8-C ,  9-C ) :   1.3768 B(  8-C , 26-H ) :   0.9756 
B(  9-C , 10-C ) :   1.4067 B(  9-C , 27-H ) :   0.9745 B( 10-C , 28-H ) :   0.9701 
B( 11-C , 12-C ) :   1.3920 B( 11-C , 16-C ) :   1.3540 B( 12-C , 13-C ) :   1.3676 
B( 12-C , 29-H ) :   0.9695 B( 13-C , 14-C ) :   1.3827 B( 13-C , 30-H ) :   0.9786 
B( 14-C , 15-C ) :   1.3803 B( 14-C , 31-H ) :   0.9758 B( 15-C , 16-C ) :   1.4036 
B( 15-C , 32-H ) :   0.9739 B( 16-C , 33-H ) :   0.9678 

-------
TIMINGS
-------

Total SCF time: 0 days 0 hours 0 min 4 sec 

Total time                  ....       4.203 sec
Sum of individual times     ....       4.127 sec  ( 98.2%)

SCF preparation             ....       0.111 sec  (  2.6%)
Fock matrix formation       ....       3.649 sec  ( 86.8%)
  Startup                   ....       0.020 sec  (  0.5% of F)
  Split-RI-J                ....       1.201 sec  ( 32.9% of F)
  XC integration            ....       2.353 sec  ( 64.5% of F)
    Basis function eval.    ....       0.696 sec  ( 29.6% of XC)
    Density eval.           ....       0.661 sec  ( 28.1% of XC)
    XC-Functional eval.     ....       0.064 sec  (  2.7% of XC)
    XC-Potential eval.      ....       0.524 sec  ( 22.3% of XC)
Diagonalization             ....       0.000 sec  (  0.0%)
Density matrix formation    ....       0.042 sec  (  1.0%)
Total Energy calculation    ....       0.019 sec  (  0.5%)
Population analysis         ....       0.077 sec  (  1.8%)
Orbital Transformation      ....       0.030 sec  (  0.7%)
Orbital Orthonormalization  ....       0.000 sec  (  0.0%)
DIIS solution               ....       0.038 sec  (  0.9%)
SOSCF solution              ....       0.161 sec  (  3.8%)
Finished LeanSCF after   4.3 sec

Maximum memory used throughout the entire LEANSCF-calculation: 34.2 MB


-------------------------------------------------------------------------------
                          DFT DISPERSION CORRECTION                            
                                                                               
                              DFTD3 V3.1  Rev 1                                
                          USING Becke-Johnson damping                          
-------------------------------------------------------------------------------
The BP86 functional is recognized
Active option DFTDOPT                   ...         4   

molecular C6(AA) [au] = 14044.470492 


            DFT-D V3
 parameters
 s6 scaling factor         :     1.0000 
 a1 scaling factor         :     0.3946 
 s8 scaling factor         :     3.2822 
 a2 scaling factor         :     4.8516 
 ad hoc parameters k1-k3   :    16.0000     1.3333    -4.0000 

 Edisp/kcal,au: -45.432293244272  -0.072400960106 
 E6   /kcal   : -16.661334801 
 E8   /kcal   : -28.770958443 
 % E8         :  63.327110275 

-------------------------   ----------------
Dispersion correction           -0.072400960
-------------------------   ----------------


-------------------------   --------------------
FINAL SINGLE POINT ENERGY      -997.964084035522
-------------------------   --------------------

                                *** OPTIMIZATION RUN DONE ***



           ************************************************************
           *        Program running with 6 parallel MPI-processes     *
           *              working on a common directory               *
           ************************************************************

------------------------------------------------------------------------------
                              ORCA PROPERTY CALCULATIONS
------------------------------------------------------------------------------

GBWName                                 ... data/geom_opt_PO_BP86/82100/82100.gbw
Number of atoms                         ...     34
Number of basis functions               ...    327
Max core memory                         ...   1024 MB

Electric properties:
Dipole moment                           ... YES
Quadrupole moment                       ...  NO
Static polarizability (Dipole/Dipole)   ...  NO
Static polarizability (Dipole/Quad.)    ...  NO
Static polarizability (Quad./Quad.)     ...  NO
Static polarizability (Velocity)        ...  NO

Atomic electric properties:
Dipole moment                           ...  NO
Quadrupole moment                       ...  NO
Static polarizability                   ...  NO

Choice of electric origin               ... Center of mass
Position of electric origin             ...    -0.613278     0.022004    -0.321333

General magnetic properties:
Magnetizability                         ...  NO

EPR properties:
g-Tensor (aka g-matrix)                 ...  NO
Zero-Field splitting spin-orbit         ...  NO
Zero-field splitting spin-spin          ...  NO
Hyperfine couplings                     ...  NO (   0 nuclei)
Quadrupole couplings                    ...  NO (   0 nuclei)
Contact density                         ...  NO (   0 nuclei)

NMR properties:
Chemical shifts                         ...  NO (   0 nuclei)
Spin-rotation constants                 ...  NO (   0 nuclei)
Spin-spin couplings                     ...  NO (   0 nuclei,    0 pairs)

Choice of magnetic origin               ... GIAO
Position of magnetic origin             ...     0.000000     0.000000     0.000000

Properties with geometric perturbations:
SCF Hessian                             ...  NO
IR spectrum                             ...  NO
VCD spectrum                            ...  NO
X-ray spectroscopy properties:
SCF XES/XAS/RIXS spectra                ...  NO


-------------
DIPOLE MOMENT
-------------

Method             : SCF
Type of density    : Electron Density
Multiplicity       :   1
Irrep              :   0
Energy             :  -997.8916830754155853 Eh
Relativity type    : 
Basis              : AO
                                X                 Y                 Z
Electronic contribution:    -11.452038329       1.470057089      -3.361431426
Nuclear contribution   :     11.543294108      -1.099833631       4.698124674
                        -----------------------------------------
Total Dipole Moment    :      0.091255779       0.370223458       1.336693248
                        -----------------------------------------
Magnitude (a.u.)       :      1.390015060
Magnitude (Debye)      :      3.533137498



--------------------
Rotational spectrum 
--------------------
 
Rotational constants in cm-1:             0.016817             0.010737             0.008422 
Rotational constants in MHz :           504.147141           321.885867           252.488900 

Dipole components along the rotational axes: 
x,y,z [a.u.] :    -0.064968    -0.365477     1.339533 
x,y,z [Debye]:    -0.165137    -0.928967     3.404822 

 

Dipole moment calculation done in   0.0 sec 

Maximum memory used throughout the entire PROP-calculation: 17.2 MB

--------------------------------
SUGGESTED CITATIONS FOR THIS RUN
--------------------------------

Below you find a list of papers that are relevant to this ORCA run
We neither can nor want to force you to cite these papers, but we appreciate if you do
You receive ORCA, which is the product of decades of hard work by many enthusiastic individuals, for free
The only thing we kindly ask in return is that you cite our papers,
We deeply appreciate it, if you show your appreciation for ORCA by not just citing the generic ORCA reference.

Please note that relegating all ORCA citations to the supporting information does *not* help us.
SI sections are not indexed - citations you put there will not count into any citation statistics
But we need these citations in order to attract the funding resources that allow us to do what we are doing

Therefore, if you are a happy ORCA user, please consider citing a few of the papers listed below in the main body of your paper

In addition to the list printed below, the program has created the file data/geom_opt_PO_BP86/82100/82100.bibtex that contains the list in bibtex format
You can import this file easily into all common literature databanks and citation aid programs


List of essential papers. We consider these as the minimum necessary citations

  1. Neese,F.
     Software update: the ORCA program system, version 5.0
     WIRES Comput. Molec. Sci., 2022 12(1)e1606
     doi.org/10.1002/wcms.1606

List of papers to cite with high priority. The work reported in these papers was absolutely
necessary for this run to complete.
Our perspective: the developers of density functionals and basis sets usually get cited in chemistry papers
Good! But without the algorithms to do something with them, the functionals or basis sets would not do anything.
Hence, in our opinion, the algorithm design and method developments papers are equally worthy of getting cited

  1. Neese,F.
     An improvement of the resolution of the identity approximation for the formation of the Coulomb matrix
     J. Comp. Chem., 2003 24(14)1740-1747
     doi.org/10.1002/jcc.10318
  2. Neese,F.
     The SHARK Integral Generation and Digestion System
     J. Comp. Chem., 2022  1-16
     doi.org/10.1002/jcc.26942
  3. Grimme,S.; Antony,J.; Ehrlich,S.; Krieg,H.
     A consistent and accurate ab initio parametrization of density functional dispersion correction (DFT-D) for the 94 elements H-Pu
     J. Chem. Phys., 2010 132 154104-XXXX
     doi.org/10.1063/1.3382344
  4. Grimme,S.; Ehrlich,S.; Goerigk,L.
     Effect of the damping function in dispersion corrected density functional theory
     J. Comput. Chem., 2011 32(7)1456-1465
     doi.org/10.1002/jcc.21759

List of suggested additional citations. These are papers that are important in the 'surrounding' of 
of this run, or papers that preceded the highly important papers. If you like your results we are grateful for a citation.

  1. Neese,F.
     The ORCA program system
     WIRES Comput. Molec. Sci., 2012 2(1)73-78
     doi.org/10.1002/wcms.81
  2. Neese,F.
     Software update: the ORCA program system, version 4.0
     WIRES Comput. Molec. Sci., 2018 8(1)1-6
     doi.org/10.1002/wcms.1327
  3. Neese,F.; Wennmohs,F.; Becker,U.; Riplinger,C.
     The ORCA quantum chemistry program package
     J. Chem. Phys., 2020 152 Art. No. L224108
     doi.org/10.1063/5.0004608

List of optional additional citations

  1. Neese,F.
     Approximate second-order SCF convergence for spin unrestricted wavefunctions
     Chem. Phys. Lett., 2000 325(1-3)93-98
     doi.org/10.1016/s0009-2614(00)00662-x

Timings for individual modules:

Sum of individual times          ...      145.701 sec (=   2.428 min)
Startup calculation              ...       12.288 sec (=   0.205 min)   8.4 %
SCF iterations                   ...       86.786 sec (=   1.446 min)  59.6 %
Property calculations            ...        0.167 sec (=   0.003 min)   0.1 %
SCF Gradient evaluation          ...       46.300 sec (=   0.772 min)  31.8 %
Geometry relaxation              ...        0.160 sec (=   0.003 min)   0.1 %
                             ****ORCA TERMINATED NORMALLY****
TOTAL RUN TIME: 0 days 0 hours 2 minutes 27 seconds 827 msec
