
                                 *****************
                                 * O   R   C   A *
                                 *****************

                                            #,                                       
                                            ###                                      
                                            ####                                     
                                            #####                                    
                                            ######                                   
                                           ########,                                 
                                     ,,################,,,,,                         
                               ,,#################################,,                 
                          ,,##########################################,,             
                       ,#########################################, ''#####,          
                    ,#############################################,,   '####,        
                  ,##################################################,,,,####,       
                ,###########''''           ''''###############################       
              ,#####''   ,,,,##########,,,,          '''####'''          '####       
            ,##' ,,,,###########################,,,                        '##       
           ' ,,###''''                  '''############,,,                           
         ,,##''                                '''############,,,,        ,,,,,,###''
      ,#''                                            '''#######################'''  
     '                                                          ''''####''''         
             ,#######,   #######,   ,#######,      ##                                
            ,#'     '#,  ##    ##  ,#'     '#,    #''#        ,####,   ,####,        
            ##       ##  ##   ,#'  ##            #'  '#       #'       #'  '#        
            ##       ##  #######   ##           ,######,      #####,   #    #        
            '#,     ,#'  ##    ##  '#,     ,#' ,#      #,     #,   #   #,  ,#        
             '#######'   ##     ##  '#######'  #'      '#     '####' # '####'        



                #########################################################
                #                        -***-                          #
                #          Department of theory and spectroscopy        #
                #                                                       #
                #                      Frank Neese                      #
                #                                                       #
                #     Directorship, Architecture, Infrastructure        #
                #                    SHARK, DRIVERS                     #
                #        Core code/Algorithms in most modules           #
                #                                                       #
                #        Max Planck Institute fuer Kohlenforschung      #
                #                Kaiser Wilhelm Platz 1                 #
                #                 D-45470 Muelheim/Ruhr                 #
                #                      Germany                          #
                #                                                       #
                #                  All rights reserved                  #
                #                        -***-                          #
                #########################################################


                         Program Version 6.0.0  -   RELEASE   -


 With contributions from (in alphabetic order):
   Daniel Aravena         : Magnetic Suceptibility
   Michael Atanasov       : Ab Initio Ligand Field Theory (pilot matlab implementation)
   Alexander A. Auer      : GIAO ZORA, VPT2 properties, NMR spectrum
   Ute Becker             : All parallelization in ORCA, NUMFREQ, NUMCALC
   Giovanni Bistoni       : ED, misc. LED, open-shell LED, HFLD
   Martin Brehm           : Molecular dynamics
   Dmytro Bykov           : pre 5.0 version of the SCF Hessian
   Marcos Casanova-Páez   : Triplet and SCS-CIS(D). UHF-(DLPNO)-IP/EA/STEOM-CCSD. UHF-CVS-IP/STEOM-CCSD
   Vijay G. Chilkuri      : MRCI spin determinant printing, contributions to CSF-ICE
   Pauline Colinet        : FMM embedding
   Dipayan Datta          : RHF DLPNO-CCSD density
   Achintya Kumar Dutta   : EOM-CC, STEOM-CC
   Nicolas Foglia         : Exact transition moments, OPA infrastructure, MCD improvements
   Dmitry Ganyushin       : Spin-Orbit,Spin-Spin,Magnetic field MRCI
   Miquel Garcia          : C-PCM and meta-GGA Hessian, CCSD/C-PCM, Gaussian charge scheme
   Tiago L. C. Gouveia    : GS-ROHF, GS-ROCIS
   Yang Guo               : DLPNO-NEVPT2, F12-NEVPT2, CIM, IAO-localization
   Andreas Hansen         : Spin unrestricted coupled pair/coupled cluster methods
   Ingolf Harden          : AUTO-CI MPn and infrastructure 
   Benjamin Helmich-Paris : MC-RPA, TRAH-(SCF,CASSCF), AVAS, COSX integrals, SCF dyn. polar.
   Lee Huntington         : MR-EOM, pCC
   Robert Izsak           : Overlap fitted RIJCOSX, COSX-SCS-MP3, EOM
   Riya Kayal             : Wick's Theorem for AUTO-CI, AUTO-CI UHF-CCSDT
   Emily Kempfer          : AUTO-CI, RHF CISDT and CCSDT
   Christian Kollmar      : KDIIS, OOCD, Brueckner-CCSD(T), CCSD density, CASPT2, CASPT2-K, improved NEVPT2
   Axel Koslowski         : Symmetry handling
   Simone Kossmann        : Meta GGA functionals, TD-DFT gradient, OOMP2, (MP2 Hessian; deprecated post 5.0)
   Lucas Lang             : DCDCAS
   Marvin Lechner         : AUTO-CI (C++ implementation), FIC-MRCC
   Spencer Leger          : CASSCF response
   Dagmar Lenk            : GEPOL surface, SMD, ORCA-2-JSON
   Dimitrios Liakos       : Extrapolation schemes; Compound Job, initial MDCI parallelization
   Dimitrios Manganas     : Further ROCIS development; embedding schemes. LFT, Crystal Embedding
   Dimitrios Pantazis     : SARC Basis sets
   Anastasios Papadopoulos: AUTO-CI, single reference methods and gradients
   Taras Petrenko         : pre 6.0 DFT Hessian and TD-DFT gradient, (ASA, deprecated), ECA, 1-Electron XAS/XES, NRVS
   Peter Pinski           : DLPNO-MP2, DLPNO-MP2 Gradient
   Christoph Reimann      : Effective Core Potentials
   Marius Retegan         : Local ZFS, SOC
   Christoph Riplinger    : Optimizer, TS searches, QM/MM, DLPNO-CCSD(T), (RO)-DLPNO pert. Triples
   Michael Roemelt        : Original ROCIS implementation
   Masaaki Saitow         : Open-shell DLPNO-CCSD energy and density
   Barbara Sandhoefer     : DKH picture change effects
   Kantharuban Sivalingam : CASSCF convergence/infrastructure, NEVPT2 and variants, FIC-MRCI
   Bernardo de Souza      : ESD, SOC TD-DFT
   Georgi Stoychev        : AutoAux, RI-MP2 NMR, DLPNO-MP2 response, X2C
   Van Anh Tran           : RI-MP2 g-tensors
   Willem Van den Heuvel  : Paramagnetic NMR
   Zikuan Wang            : NOTCH, Electric field optimization 
   Frank Wennmohs         : Technical directorship and infrastructure
   Hang Xu                : AUTO-CI-Response properties 


 We gratefully acknowledge several colleagues who have allowed us to
 interface, adapt or use parts of their codes:
   Stefan Grimme, W. Hujo, H. Kruse, P. Pracht,  : VdW corrections, initial TS optimization,
                  C. Bannwarth, S. Ehlert,         DFT functionals, gCP, sTDA/sTD-DF
                  L. Wittmann, M. Mueller
   Ed Valeev, F. Pavosevic, A. Kumar             : LibInt (2-el integral package), F12 methods
   Garnet Chan, S. Sharma, J. Yang, R. Olivares  : DMRG
   Ulf Ekstrom                                   : XCFun DFT Library
   Mihaly Kallay                                 : mrcc  (arbitrary order and MRCC methods)
   Frank Weinhold                                : gennbo (NPA and NBO analysis)
   Simon Mueller                                 : openCOSMO-RS
   Christopher J. Cramer and Donald G. Truhlar   : smd solvation model
   Lars Goerigk                                  : TD-DFT with DH, B97 family of functionals
   V. Asgeirsson, H. Jonsson                     : NEB implementation
   FAccTs GmbH                                   : IRC, NEB, NEB-TS, DLPNO-Multilevel, CI-OPT
                                                   MM, QMMM, 2- and 3-layer-ONIOM, Crystal-QMMM,
                                                   LR-CPCM, SF, NACMEs, symmetry and pop. for TD-DFT,
                                                   nearIR, NL-DFT gradient (VV10), updates on ESD,
                                                   ML-optimized integration grids, MBIS, APM,
                                                   GOAT, DOCKER, SOLVATOR, interface openCOSMO-RS
   S Lehtola, MJT Oliveira, MAL Marques          : LibXC Library
   Liviu Ungur et al                             : ANISO software


 Your calculation uses the libint2 library for the computation of 2-el integrals
 For citations please refer to: http://libint.valeyev.net

 Your ORCA version has been built with support for libXC version: 6.2.2
 For citations please refer to: https://libxc.gitlab.io

 This ORCA versions uses:
   CBLAS   interface :  Fast vector & matrix operations
   LAPACKE interface :  Fast linear algebra routines
   Shared memory     :  Shared parallel matrices


Your calculation utilizes the atom-pairwise dispersion correction
with the zero-damping scheme (D30)


XCFun DFT library Copyright 2009-2010 Ulf Ekstrom and contributors.
See http://admol.org/xcfun for more information.
This is free software; see the source code for copying conditions.
There is ABSOLUTELY NO WARRANTY; not even for MERCHANTABILITY or FITNESS FOR A PARTICULAR PURPOSE.
For details see the documentation.
Scientific users of this library should cite U. Ekstrom, L. Visscher, R. Bast, A. J. Thorvaldsen and K. Ruud;
J.Chem.Theor.Comp. 2010, DOI: 10.1021/ct100117s
XCFun Version 0.99 

Warning: RI is on but no J-basis has been assigned. Assigning Def2/J (nothing to worry about!)
================================================================================

----- Orbital basis set information -----
Your calculation utilizes the basis: def2-TZVP
   F. Weigend and R. Ahlrichs, Phys. Chem. Chem. Phys. 7, 3297 (2005).

----- AuxJ basis set information -----
Your calculation utilizes the auxiliary basis: def2/J
   F. Weigend, Phys. Chem. Chem. Phys. 8, 1057 (2006).

================================================================================
                                        WARNINGS
                       Please study these warnings very carefully!
================================================================================

WARNING: Functional chosen is sensitive to the integration grid.
         DEFGRID3 seems to be a minimum grid for robust results!

================================================================================
                                       INPUT FILE
================================================================================
NAME = data/single_point_PO_M06-2x/76001/76001.inp
|  1> ! RIJCOSX M062X def2-TZVP D3ZERO NormalSCF
|  2> %pal
|  3> nprocs 6
|  4> end
|  5> 
|  6> * xyz 0 1
|  7>   C          -0.35273964679159      1.54510769852305      1.01171239644614
|  8>   O          -1.16928259528478      2.35702022755854      0.19881312673866
|  9>   P           0.01437919029607      0.02939661131503      0.01866975206089
| 10>   O           0.24612354410553      0.48641259108342     -1.43834794764297
| 11>   C          -1.41630081229409     -1.14156904600821      0.00038251288544
| 12>   O          -1.26328919265428     -1.92782365130406     -1.15939824769456
| 13>   C           1.56798544967720     -0.79866523320990      0.58335347896587
| 14>   O           2.63110566799397     -0.03872528413212      0.05528402897652
| 15>   H          -0.88402065223685      1.30657389555207      1.95800565277592
| 16>   H           0.63318927040360      2.00499253919557      1.27427044523542
| 17>   H          -0.80133724186604      2.25337036461047     -0.71159459145314
| 18>   H          -2.34501230734963     -0.51718641060894      0.01070788072314
| 19>   H          -1.43181976421882     -1.79615014968111      0.89812514925193
| 20>   H          -0.93110903358180     -1.30157768226245     -1.84671494352906
| 21>   H           1.52723654355616     -1.85203084324569      0.20758897796364
| 22>   H           1.64447321110131     -0.83152673123025      1.69138152063115
| 23>   H           2.33041536914403      0.22238210384456     -0.84815919233498
| 24> **                         ****END OF INPUT****
================================================================================

                       ****************************
                       * Single Point Calculation *
                       ****************************

---------------------------------
CARTESIAN COORDINATES (ANGSTROEM)
---------------------------------
  C     -0.352740    1.545108    1.011712
  O     -1.169283    2.357020    0.198813
  P      0.014379    0.029397    0.018670
  O      0.246124    0.486413   -1.438348
  C     -1.416301   -1.141569    0.000383
  O     -1.263289   -1.927824   -1.159398
  C      1.567985   -0.798665    0.583353
  O      2.631106   -0.038725    0.055284
  H     -0.884021    1.306574    1.958006
  H      0.633189    2.004993    1.274270
  H     -0.801337    2.253370   -0.711595
  H     -2.345012   -0.517186    0.010708
  H     -1.431820   -1.796150    0.898125
  H     -0.931109   -1.301578   -1.846715
  H      1.527237   -1.852031    0.207589
  H      1.644473   -0.831527    1.691382
  H      2.330415    0.222382   -0.848159

----------------------------
CARTESIAN COORDINATES (A.U.)
----------------------------
  NO LB      ZA    FRAG     MASS         X           Y           Z
   0 C     6.0000    0    12.011   -0.666581    2.919830    1.911859
   1 O     8.0000    0    15.999   -2.209624    4.454123    0.375702
   2 P    15.0000    0    30.974    0.027173    0.055552    0.035281
   3 O     8.0000    0    15.999    0.465106    0.919187   -2.718084
   4 C     6.0000    0    12.011   -2.676421   -2.157253    0.000723
   5 O     8.0000    0    15.999   -2.387271   -3.643059   -2.190945
   6 C     6.0000    0    12.011    2.963063   -1.509259    1.102378
   7 O     8.0000    0    15.999    4.972069   -0.073180    0.104472
   8 H     1.0000    0     1.008   -1.670557    2.469067    3.700094
   9 H     1.0000    0     1.008    1.196554    3.788887    2.408022
  10 H     1.0000    0     1.008   -1.514308    4.258253   -1.344719
  11 H     1.0000    0     1.008   -4.431431   -0.977341    0.020235
  12 H     1.0000    0     1.008   -2.705747   -3.394232    1.697211
  13 H     1.0000    0     1.008   -1.759541   -2.459625   -3.489785
  14 H     1.0000    0     1.008    2.886059   -3.499831    0.392286
  15 H     1.0000    0     1.008    3.107604   -1.571358    3.196248
  16 H     1.0000    0     1.008    4.403847    0.420241   -1.602789

--------------------------------
INTERNAL COORDINATES (ANGSTROEM)
--------------------------------
 C      0   0   0     0.000000000000     0.00000000     0.00000000
 O      1   0   0     1.409521040719     0.00000000     0.00000000
 P      1   2   0     1.848861821229   106.11063701     0.00000000
 O      3   1   2     1.544496561517   107.09169203    39.44581846
 C      3   1   2     1.848875405093   111.76974304   282.43206621
 O      5   3   1     1.409503555407   106.10674302   156.45103678
 C      3   1   2     1.848850058544   111.71464941   156.45742398
 O      7   3   1     1.409464674552   106.13546428   282.54420603
 H      1   2   3     1.111138519214   109.74455212   238.67418166
 H      1   2   3     1.119145488945   114.13882811   117.25099915
 H      2   1   3     0.987405332442   104.79789571   321.42228851
 H      5   3   1     1.119135974606   106.78037258    34.33704826
 H      5   3   1     1.111152149935   112.08101056   276.21702799
 H      6   5   3     0.987386404704   104.80277505   321.40925915
 H      7   3   1     1.119124006520   106.76305075   160.40494848
 H      7   3   1     1.111150933409   112.06483836    42.31431258
 H      8   7   3     0.987320301631   104.81534044   321.31386194

---------------------------
INTERNAL COORDINATES (A.U.)
---------------------------
 C      0   0   0     0.000000000000     0.00000000     0.00000000
 O      1   0   0     2.663608746959     0.00000000     0.00000000
 P      1   2   0     3.493842501585   106.11063701     0.00000000
 O      3   1   2     2.918675516049   107.09169203    39.44581846
 C      3   1   2     3.493868171369   111.76974304   282.43206621
 O      5   3   1     2.663575704508   106.10674302   156.45103678
 C      3   1   2     3.493820273332   111.71464941   156.45742398
 O      7   3   1     2.663502230340   106.13546428   282.54420603
 H      1   2   3     2.099747498166   109.74455212   238.67418166
 H      1   2   3     2.114878478120   114.13882811   117.25099915
 H      2   1   3     1.865925661489   104.79789571   321.42228851
 H      5   3   1     2.114860498624   106.78037258    34.33704826
 H      5   3   1     2.099773256495   112.08101056   276.21702799
 H      6   5   3     1.865889893249   104.80277505   321.40925915
 H      7   3   1     2.114837882220   106.76305075   160.40494848
 H      7   3   1     2.099770957595   112.06483836    42.31431258
 H      8   7   3     1.865764976543   104.81534044   321.31386194

---------------------
BASIS SET INFORMATION
---------------------
There are 4 groups of distinct atoms

 Group   1 Type C   : 11s6p2d1f contracted to 5s3p2d1f pattern {62111/411/11/1}
 Group   2 Type O   : 11s6p2d1f contracted to 5s3p2d1f pattern {62111/411/11/1}
 Group   3 Type P   : 14s9p3d1f contracted to 5s5p2d1f pattern {73211/51111/21/1}
 Group   4 Type H   : 5s1p contracted to 3s1p pattern {311/1}

Atom   0C    basis set group =>   1
Atom   1O    basis set group =>   2
Atom   2P    basis set group =>   3
Atom   3O    basis set group =>   2
Atom   4C    basis set group =>   1
Atom   5O    basis set group =>   2
Atom   6C    basis set group =>   1
Atom   7O    basis set group =>   2
Atom   8H    basis set group =>   4
Atom   9H    basis set group =>   4
Atom  10H    basis set group =>   4
Atom  11H    basis set group =>   4
Atom  12H    basis set group =>   4
Atom  13H    basis set group =>   4
Atom  14H    basis set group =>   4
Atom  15H    basis set group =>   4
Atom  16H    basis set group =>   4
---------------------------------
AUXILIARY/J BASIS SET INFORMATION
---------------------------------
There are 4 groups of distinct atoms

 Group   1 Type C   : 12s5p4d2f1g contracted to 6s4p3d1f1g pattern {711111/2111/211/2/1}
 Group   2 Type O   : 12s5p4d2f1g contracted to 6s4p3d1f1g pattern {711111/2111/211/2/1}
 Group   3 Type P   : 14s5p5d2f1g contracted to 8s4p3d1f1g pattern {71111111/2111/311/2/1}
 Group   4 Type H   : 5s2p1d contracted to 3s1p1d pattern {311/2/1}

Atom   0C    basis set group =>   1
Atom   1O    basis set group =>   2
Atom   2P    basis set group =>   3
Atom   3O    basis set group =>   2
Atom   4C    basis set group =>   1
Atom   5O    basis set group =>   2
Atom   6C    basis set group =>   1
Atom   7O    basis set group =>   2
Atom   8H    basis set group =>   4
Atom   9H    basis set group =>   4
Atom  10H    basis set group =>   4
Atom  11H    basis set group =>   4
Atom  12H    basis set group =>   4
Atom  13H    basis set group =>   4
Atom  14H    basis set group =>   4
Atom  15H    basis set group =>   4
Atom  16H    basis set group =>   4


           ************************************************************
           *        Program running with 6 parallel MPI-processes     *
           *              working on a common directory               *
           ************************************************************
------------------------------------------------------------------------------
                             ORCA STARTUP CALCULATIONS
                           -- RI-GTO INTEGRALS CHOSEN --
------------------------------------------------------------------------------
------------------------------------------------------------------------------
                   ___                                                        
                  /   \      - P O W E R E D   B Y -                         
                 /     \                                                     
                 |  |  |   _    _      __       _____    __    __             
                 |  |  |  | |  | |    /  \     |  _  \  |  |  /  |          
                  \  \/   | |  | |   /    \    | | | |  |  | /  /          
                 / \  \   | |__| |  /  /\  \   | |_| |  |  |/  /          
                |  |  |   |  __  | /  /__\  \  |    /   |      \           
                |  |  |   | |  | | |   __   |  |    \   |  |\   \          
                \     /   | |  | | |  |  |  |  | |\  \  |  | \   \       
                 \___/    |_|  |_| |__|  |__|  |_| \__\ |__|  \__/        
                                                                              
                      - O R C A' S   B I G   F R I E N D -                    
                                      &                                       
                       - I N T E G R A L  F E E D E R -                       
                                                                              
 v1 FN, 2020, v2 2021, v3 2022-2024                                           
------------------------------------------------------------------------------


----------------------
SHARK INTEGRAL PACKAGE
----------------------

Number of atoms                             ...     17
Number of basis functions                   ...    308
Number of shells                            ...    126
Maximum angular momentum                    ...      3
Integral batch strategy                     ... SHARK/LIBINT Hybrid
RI-J (if used) integral strategy            ... SPLIT-RIJ (Revised 2003 algorithm where possible)
Printlevel                                  ...      1
Contraction scheme used                     ... SEGMENTED contraction
Prescreening option                         ... SCHWARTZ
   Thresh                                   ... 1.000e-10
   Tcut                                     ... 1.000e-11
   Tpresel                                  ... 1.000e-11 
Coulomb Range Separation                    ... NOT USED
Exchange Range Separation                   ... NOT USED
Multipole approximations                    ... NOT USED
Finite Nucleus Model                        ... NOT USED
CABS basis                                  ... NOT available
Auxiliary Coulomb fitting basis             ... AVAILABLE
   # of basis functions in Aux-J            ...    493
   # of shells in Aux-J                     ...    167
   Maximum angular momentum in Aux-J        ...      4
Auxiliary J/K fitting basis                 ... NOT available
Auxiliary Correlation fitting basis         ... NOT available
Auxiliary 'external' fitting basis          ... NOT available

Checking pre-screening integrals            ... done (  0.0 sec) Dimension = 126
Check shell pair data                       ... done (  0.0 sec)
Shell pair information
Shell pair cut-off parameter TPreSel        ...   1.0e-11
Total number of shell pairs                 ...      8001
Shell pairs after pre-screening             ...      7094
Total number of primitive shell pairs       ...     24748
Primitive shell pairs kept                  ...     15757
          la=0 lb=0:   1963 shell pairs
          la=1 lb=0:   2104 shell pairs
          la=1 lb=1:    600 shell pairs
          la=2 lb=0:    931 shell pairs
          la=2 lb=1:    515 shell pairs
          la=2 lb=2:    118 shell pairs
          la=3 lb=0:    461 shell pairs
          la=3 lb=1:    253 shell pairs
          la=3 lb=2:    116 shell pairs
          la=3 lb=3:     33 shell pairs

Calculating one electron integrals          ... done (  0.0 sec)
Calculating RI/J V-Matrix + Cholesky decomp.... done (  0.0 sec)
Calculating Nuclear repulsion               ... done (  0.0 sec) ENN=    519.654962924120 Eh

Diagonalization of the overlap matrix:
Smallest eigenvalue                        ... 6.426e-04
Time for diagonalization                   ...    0.011 sec
Threshold for overlap eigenvalues          ... 1.000e-07
Number of eigenvalues below threshold      ... 0
Time for construction of square roots      ...    0.006 sec
Total time needed                          ...    0.019 sec

-------------------
DFT GRID GENERATION
-------------------

General Integration Accuracy     IntAcc      ... 4.388
Radial Grid Type                 RadialGrid  ... OptM3 with GC (2021)
Angular Grid (max. ang.)         AngularGrid ... 4 (Lebedev-302)
Angular grid pruning method      GridPruning ... 4 (adaptive)
Weight generation scheme         WeightScheme... mBecke (2022)
Basis function cutoff            BFCut       ... 1.0000e-10
Integration weight cutoff        WCut        ... 1.0000e-14
Partially contracted basis set               ... off
Rotationally invariant grid construction     ... off
Angular grids for H and He will be reduced by one unit

Total number of grid points                  ...    78641
Total number of batches                      ...     1236
Average number of points per batch           ...       63
Average number of grid points per atom       ...     4626

--------------------
COSX GRID GENERATION
--------------------

GRIDX 1
-------
General Integration Accuracy     IntAcc      ... 3.816
Radial Grid Type                 RadialGrid  ... OptM3 with GC (2021)
Angular Grid (max. ang.)         AngularGrid ... 1 (Lebedev-50)
Angular grid pruning method      GridPruning ... 4 (adaptive)
Weight generation scheme         WeightScheme... mBecke (2022)
Basis function cutoff            BFCut       ... 1.0000e-10
Integration weight cutoff        WCut        ... 1.0000e-14
Partially contracted basis set               ... on
Rotationally invariant grid construction     ... off
Angular grids for H and He will be reduced by one unit

Total number of grid points                  ...    11055
Total number of batches                      ...       94
Average number of points per batch           ...      117
Average number of grid points per atom       ...      650
UseSFitting                                  ... on

GRIDX 2
-------
General Integration Accuracy     IntAcc      ... 4.020
Radial Grid Type                 RadialGrid  ... OptM3 with GC (2021)
Angular Grid (max. ang.)         AngularGrid ... 2 (Lebedev-110)
Angular grid pruning method      GridPruning ... 4 (adaptive)
Weight generation scheme         WeightScheme... mBecke (2022)
Basis function cutoff            BFCut       ... 1.0000e-10
Integration weight cutoff        WCut        ... 1.0000e-14
Partially contracted basis set               ... on
Rotationally invariant grid construction     ... off
Angular grids for H and He will be reduced by one unit

Total number of grid points                  ...    21482
Total number of batches                      ...      173
Average number of points per batch           ...      124
Average number of grid points per atom       ...     1264
UseSFitting                                  ... on

GRIDX 3
-------
General Integration Accuracy     IntAcc      ... 4.338
Radial Grid Type                 RadialGrid  ... OptM3 with GC (2021)
Angular Grid (max. ang.)         AngularGrid ... 3 (Lebedev-194)
Angular grid pruning method      GridPruning ... 4 (adaptive)
Weight generation scheme         WeightScheme... mBecke (2022)
Basis function cutoff            BFCut       ... 1.0000e-10
Integration weight cutoff        WCut        ... 1.0000e-14
Partially contracted basis set               ... on
Rotationally invariant grid construction     ... off
Angular grids for H and He will be reduced by one unit

Total number of grid points                  ...    47600
Total number of batches                      ...      380
Average number of points per batch           ...      125
Average number of grid points per atom       ...     2800
UseSFitting                                  ... on
Initializing property integral containers    ... done (  0.0 sec)

SHARK setup successfully completed in   1.1 seconds

Maximum memory used throughout the entire STARTUP-calculation: 26.6 MB


           ************************************************************
           *        Program running with 6 parallel MPI-processes     *
           *              working on a common directory               *
           ************************************************************
-------------------------------------------------------------------------------
                                 ORCA GUESS
                   Start orbitals & Density for SCF / CASSCF
-------------------------------------------------------------------------------

------------
SCF SETTINGS
------------
Hamiltonian:
 Density Functional     Method          .... DFT(GTOs)
 Exchange Functional    Exchange        .... M062X
 Correlation Functional Correlation     .... M062X
 Gradients option       PostSCFGGA      .... off
 Hybrid DFT is turned on
   Fraction HF Exchange ScalHFX         ....  0.540000
   Scaling of DF-GGA-X  ScalDFX         ....  0.460000
   Scaling of DF-GGA-C  ScalDFC         ....  1.000000
   Scaling of DF-LDA-C  ScalLDAC        ....  1.000000
   Perturbative correction              ....  0.000000
 RI-approximation to the Coulomb term is turned on
   Number of AuxJ basis functions       .... 493
   RIJ-COSX (HFX calculated with COS-X)).... on


General Settings:
 Integral files         IntName         .... data/single_point_PO_M06-2x/76001/76001
 Hartree-Fock type      HFTyp           .... RHF
 Total Charge           Charge          ....    0
 Multiplicity           Mult            ....    1
 Number of Electrons    NEL             ....   74
 Basis Dimension        Dim             ....  308
 Nuclear Repulsion      ENuc            ....    519.6549629241 Eh

Convergence Acceleration:
 AO-DIIS                CNVDIIS         .... on
   Start iteration      DIISMaxIt       ....    12
   Startup error        DIISStart       ....  0.200000
   # of expansion vecs  DIISMaxEq       ....     5
   Bias factor          DIISBfac        ....   1.050
   Max. coefficient     DIISMaxC        ....  10.000
 MO-DIIS                CNVKDIIS        .... off
 Trust-Rad. Augm. Hess. CNVTRAH         .... auto
   Auto Start mean grad. ratio tolernc. ....  1.125000
   Auto Start start iteration           ....    50
   Auto Start num. interpolation iter.  ....    10
   Max. Number of Micro iterations      ....    24
   Max. Number of Macro iterations      .... Maxiter - #DIIS iter
   Number of Davidson start vectors     ....     2
   Converg. threshold    (grad. norm)   ....   5.000e-05
   Grad. Scal. Fac. for Micro threshold ....   0.100
   Minimum threshold for Micro iter.    ....   1.000e-02
   NR start threshold (gradient norm)   ....   1.000e-04
   Initial trust radius                 ....   0.400
   Minimum AH scaling param. (alpha)    ....   1.000
   Maximum AH scaling param. (alpha)    .... 1000.000
   Quad. conv. algorithm                .... NR
   White noise on init. David. guess    .... on
   Maximum white noise                  ....   0.010
   Pseudo random numbers                .... off
   Inactive MOs                         .... canonical
   Orbital update algorithm             .... Taylor
   Preconditioner                       .... Diag
   Full preconditioner red. dimension   ....   250
 SOSCF                  CNVSOSCF        .... on
   Start iteration      SOSCFMaxIt      ....   150
   Startup grad/error   SOSCFStart      ....  0.003300
   Hessian update       SOSCFHessUp     .... L-BFGS
 Level Shifting         CNVShift        .... on
   Level shift para.    LevelShift      ....    0.2500
   Turn off err/grad.   ShiftErr        ....    0.0010
 Zerner damping         CNVZerner       .... off
 Static damping         CNVDamp         .... on
   Fraction old density DampFac         ....    0.7000
   Max. Damping (<1)    DampMax         ....    0.9800
   Min. Damping (>=0)   DampMin         ....    0.0000
   Turn off err/grad.   DampErr         ....    0.1000

SCF Procedure:
 Maximum # iterations   MaxIter         ....   125
 SCF integral mode      SCFMode         .... Direct
   Integral package                     .... SHARK and LIBINT hybrid scheme
 Reset frequency        DirectResetFreq ....    20
 Integral Threshold     Thresh          ....  1.000e-10 Eh
 Primitive CutOff       TCut            ....  1.000e-11 Eh

Convergence Tolerance:
 Convergence Check Mode ConvCheckMode   .... Total+1el-Energy
 Convergence forced     ConvForced      .... 0
 Energy Change          TolE            ....  1.000e-06 Eh
 1-El. energy change                    ....  1.000e-03 Eh
 Orbital Gradient       TolG            ....  5.000e-05
 Orbital Rotation angle TolX            ....  5.000e-05
 DIIS Error             TolErr          ....  1.000e-05

------------------------------
INITIAL GUESS: MODEL POTENTIAL
------------------------------
Loading Hartree-Fock densities                     ... done
Calculating cut-offs                               ... done
Initializing the effective Hamiltonian             ... done
Setting up the integral package (SHARK)            ... done
Starting the Coulomb interaction                   ... done (   0.1 sec)
Making the grid                                    ... done (   0.1 sec)
Mapping shells                                     ... done
Starting the XC term evaluation                    ... done (   0.1 sec)
  promolecular density results
     # of electrons  =     73.990983315
     EX              =    -73.142848765
     EC              =     -2.556123198
     EX+EC           =    -75.698971963
Transforming the Hamiltonian                       ... done (   0.0 sec)
Diagonalizing the Hamiltonian                      ... done (   0.0 sec)
Back transforming the eigenvectors                 ... done (   0.0 sec)
Now organizing SCF variables                       ... done
                      ------------------
                      INITIAL GUESS DONE (   0.3 sec)
                      ------------------
             **** ENERGY FILE WAS UPDATED (data/single_point_PO_M06-2x/76001/76001.en.tmp) ****
Finished Guess after   0.4 sec
Maximum memory used throughout the entire GUESS-calculation: 17.2 MB


           ************************************************************
           *        Program running with 6 parallel MPI-processes     *
           *              working on a common directory               *
           ************************************************************

-------------------------------------------------------------------------------------------
                                      ORCA LEAN-SCF
                              memory conserving SCF solver
-------------------------------------------------------------------------------------------

----------------------------------------D-I-I-S--------------------------------------------
Iteration    Energy (Eh)           Delta-E    RMSDP     MaxDP     DIISErr   Damp  Time(sec)
-------------------------------------------------------------------------------------------
               ***  Starting incremental Fock matrix formation  ***
    1    -761.6472223607311207     0.00e+00  1.61e-03  5.48e-02  3.56e-01  0.700   2.4
    2    -761.8047908314399592    -1.58e-01  1.20e-03  4.47e-02  1.53e-01  0.700   1.6
                               ***Turning on AO-DIIS***
    3    -761.8657122937404438    -6.09e-02  5.18e-04  1.76e-02  4.62e-02  0.700   1.5
    4    -761.9035763760484770    -3.79e-02  8.96e-04  3.37e-02  3.19e-02  0.000   1.4
    5    -761.9879709993151664    -8.44e-02  1.86e-04  7.58e-03  4.18e-03  0.000   1.5
                              *** Initializing SOSCF ***
---------------------------------------S-O-S-C-F--------------------------------------
Iteration    Energy (Eh)           Delta-E    RMSDP     MaxDP     MaxGrad    Time(sec)
--------------------------------------------------------------------------------------
    6    -761.9881600688672734    -1.89e-04  6.31e-05  2.43e-03  7.06e-04     1.4
               *** Restarting incremental Fock matrix formation ***
    7    -761.9881681705846859    -8.10e-06  3.46e-05  1.32e-03  1.69e-04     2.9
    8    -761.9881709910082463    -2.82e-06  1.94e-05  7.36e-04  7.46e-05     2.0
    9    -761.9881712462265568    -2.55e-07  9.90e-06  3.85e-04  6.95e-05     1.8
                 **** Energy Check signals convergence ****

               *****************************************************
               *                     SUCCESS                       *
               *           SCF CONVERGED AFTER   9 CYCLES          *
               *****************************************************

Recomputing exchange energy using gridx3       ... done (    3.152 sec)
Old exchange energy                            :    -40.136164503 Eh
New exchange energy                            :    -40.136169326 Eh
Exchange energy change after final integration :     -0.000004823 Eh
Total energy after final integration           :   -761.988176069 Eh
             **** ENERGY FILE WAS UPDATED (data/single_point_PO_M06-2x/76001/76001.en.tmp) ****

----------------
TOTAL SCF ENERGY
----------------

Total Energy       :       -761.98817606927923 Eh          -20734.75241 eV

Components:
Nuclear Repulsion  :        519.65496292411990 Eh           14140.53043 eV
Electronic Energy  :      -1281.64313417034646 Eh          -34875.28271 eV
One Electron Energy:      -2080.10577383313102 Eh          -56602.55572 eV
Two Electron Energy:        798.46263966278468 Eh           21727.27302 eV

Virial components:
Potential Energy   :      -1521.14210880271457 Eh          -41392.38113 eV
Kinetic Energy     :        759.15393273343534 Eh           20657.62872 eV
Virial Ratio       :          2.00373342376774

DFT components:
N(Alpha)           :       37.000003801912 electrons
N(Beta)            :       37.000003801912 electrons
N(Total)           :       74.000007603825 electrons
E(XC)              :      -37.011255086483 Eh       

---------------
SCF CONVERGENCE
---------------

  Last Energy change         ...    2.5522e-07  Tolerance :   1.0000e-06
  Last MAX-Density change    ...    3.8507e-04  Tolerance :   1.0000e-05
  Last RMS-Density change    ...    9.9039e-06  Tolerance :   1.0000e-06
  Last DIIS Error            ...    7.0573e-04  Tolerance :   1.0000e-05
  Last Orbital Gradient      ...    6.9510e-05  Tolerance :   5.0000e-05
  Last Orbital Rotation      ...    9.6254e-05  Tolerance :   5.0000e-05


----------------
ORBITAL ENERGIES
----------------

  NO   OCC          E(Eh)            E(eV) 
   0   2.0000     -78.111647     -2125.5260 
   1   2.0000     -19.649518      -534.6906 
   2   2.0000     -19.649462      -534.6891 
   3   2.0000     -19.649422      -534.6880 
   4   2.0000     -19.600110      -533.3461 
   5   2.0000     -10.620828      -289.0074 
   6   2.0000     -10.620816      -289.0071 
   7   2.0000     -10.620743      -289.0051 
   8   2.0000      -6.921738      -188.3501 
   9   2.0000      -5.038063      -137.0927 
  10   2.0000      -5.038060      -137.0926 
  11   2.0000      -5.036932      -137.0619 
  12   2.0000      -1.173815       -31.9411 
  13   2.0000      -1.167072       -31.7576 
  14   2.0000      -1.167000       -31.7557 
  15   2.0000      -1.085125       -29.5277 
  16   2.0000      -0.849111       -23.1055 
  17   2.0000      -0.789522       -21.4840 
  18   2.0000      -0.789503       -21.4835 
  19   2.0000      -0.665673       -18.1139 
  20   2.0000      -0.614890       -16.7320 
  21   2.0000      -0.614839       -16.7306 
  22   2.0000      -0.569049       -15.4846 
  23   2.0000      -0.547283       -14.8923 
  24   2.0000      -0.546949       -14.8832 
  25   2.0000      -0.546935       -14.8829 
  26   2.0000      -0.532917       -14.5014 
  27   2.0000      -0.532894       -14.5008 
  28   2.0000      -0.484143       -13.1742 
  29   2.0000      -0.437087       -11.8937 
  30   2.0000      -0.426856       -11.6154 
  31   2.0000      -0.426809       -11.6141 
  32   2.0000      -0.396331       -10.7847 
  33   2.0000      -0.390113       -10.6155 
  34   2.0000      -0.390092       -10.6150 
  35   2.0000      -0.346295        -9.4232 
  36   2.0000      -0.346247        -9.4219 
  37   0.0000       0.028294         0.7699 
  38   0.0000       0.050004         1.3607 
  39   0.0000       0.068189         1.8555 
  40   0.0000       0.068234         1.8567 
  41   0.0000       0.096887         2.6364 
  42   0.0000       0.101281         2.7560 
  43   0.0000       0.101357         2.7581 
  44   0.0000       0.120384         3.2758 
  45   0.0000       0.120427         3.2770 
  46   0.0000       0.132502         3.6056 
  47   0.0000       0.137277         3.7355 
*Only the first 10 virtual orbitals were printed.

                    ********************************
                    * MULLIKEN POPULATION ANALYSIS *
                    ********************************

-----------------------
MULLIKEN ATOMIC CHARGES
-----------------------
   0 C :   -0.148104
   1 O :   -0.445710
   2 P :    0.502541
   3 O :   -0.675407
   4 C :   -0.147574
   5 O :   -0.445060
   6 C :   -0.148254
   7 O :   -0.445359
   8 H :    0.150361
   9 H :    0.151226
  10 H :    0.349514
  11 H :    0.150947
  12 H :    0.150556
  13 H :    0.349411
  14 H :    0.151094
  15 H :    0.150434
  16 H :    0.349382
Sum of atomic charges:   -0.0000000

--------------------------------
MULLIKEN REDUCED ORBITAL CHARGES
--------------------------------
  0 C s       :     3.230142  s :     3.230142
      pz      :     0.945255  p :     2.790670
      px      :     0.952003
      py      :     0.893412
      dz2     :     0.027591  d :     0.118984
      dxz     :     0.021793
      dyz     :     0.016379
      dx2y2   :     0.034939
      dxy     :     0.018282
      f0      :     0.000713  f :     0.008308
      f+1     :     0.001340
      f-1     :     0.001072
      f+2     :     0.002154
      f-2     :     0.000897
      f+3     :     0.001005
      f-3     :     0.001126

  1 O s       :     3.814788  s :     3.814788
      pz      :     1.289304  p :     4.600037
      px      :     1.629885
      py      :     1.680848
      dz2     :     0.006082  d :     0.029292
      dxz     :     0.007951
      dyz     :     0.004108
      dx2y2   :     0.004461
      dxy     :     0.006690
      f0      :     0.000269  f :     0.001593
      f+1     :     0.000336
      f-1     :     0.000189
      f+2     :     0.000125
      f-2     :     0.000308
      f+3     :     0.000187
      f-3     :     0.000179

  2 P s       :     5.371387  s :     5.371387
      pz      :     2.684832  p :     8.418830
      px      :     2.874680
      py      :     2.859318
      dz2     :     0.127174  d :     0.642638
      dxz     :     0.150163
      dyz     :     0.174943
      dx2y2   :     0.065254
      dxy     :     0.125104
      f0      :     0.012954  f :     0.064603
      f+1     :     0.015540
      f-1     :     0.010499
      f+2     :     0.008549
      f-2     :     0.006553
      f+3     :     0.006579
      f-3     :     0.003929

  3 O s       :     3.893971  s :     3.893971
      pz      :     1.402412  p :     4.756775
      px      :     1.687892
      py      :     1.666472
      dz2     :     0.008799  d :     0.023565
      dxz     :     0.006200
      dyz     :     0.006802
      dx2y2   :     0.000831
      dxy     :     0.000933
      f0      :     0.000376  f :     0.001095
      f+1     :     0.000240
      f-1     :     0.000312
      f+2     :     0.000076
      f-2     :     0.000081
      f+3     :     0.000006
      f-3     :     0.000005

  4 C s       :     3.229422  s :     3.229422
      pz      :     0.849984  p :     2.790682
      px      :     1.024306
      py      :     0.916392
      dz2     :     0.030118  d :     0.119140
      dxz     :     0.025081
      dyz     :     0.025192
      dx2y2   :     0.009176
      dxy     :     0.029573
      f0      :     0.001804  f :     0.008331
      f+1     :     0.001544
      f-1     :     0.001189
      f+2     :     0.001180
      f-2     :     0.001582
      f+3     :     0.000412
      f-3     :     0.000620

  5 O s       :     3.814557  s :     3.814557
      pz      :     1.256637  p :     4.599651
      px      :     1.817098
      py      :     1.525916
      dz2     :     0.003420  d :     0.029262
      dxz     :     0.003141
      dyz     :     0.013492
      dx2y2   :     0.004633
      dxy     :     0.004577
      f0      :     0.000210  f :     0.001590
      f+1     :     0.000247
      f-1     :     0.000357
      f+2     :     0.000253
      f-2     :     0.000312
      f+3     :     0.000128
      f-3     :     0.000082

  6 C s       :     3.230488  s :     3.230488
      pz      :     1.014158  p :     2.790464
      px      :     0.804032
      py      :     0.972274
      dz2     :     0.028969  d :     0.118991
      dxz     :     0.014628
      dyz     :     0.011833
      dx2y2   :     0.040702
      dxy     :     0.022858
      f0      :     0.000730  f :     0.008311
      f+1     :     0.001290
      f-1     :     0.000824
      f+2     :     0.001241
      f-2     :     0.001016
      f+3     :     0.001952
      f-3     :     0.001258

  7 O s       :     3.814647  s :     3.814647
      pz      :     1.402631  p :     4.599852
      px      :     1.516895
      py      :     1.680325
      dz2     :     0.007552  d :     0.029269
      dxz     :     0.006689
      dyz     :     0.002083
      dx2y2   :     0.005712
      dxy     :     0.007233
      f0      :     0.000212  f :     0.001592
      f+1     :     0.000234
      f-1     :     0.000308
      f+2     :     0.000076
      f-2     :     0.000282
      f+3     :     0.000207
      f-3     :     0.000272

  8 H s       :     0.830373  s :     0.830373
      pz      :     0.010633  p :     0.019266
      px      :     0.004807
      py      :     0.003826

  9 H s       :     0.829787  s :     0.829787
      pz      :     0.003783  p :     0.018987
      px      :     0.010375
      py      :     0.004828

 10 H s       :     0.604604  s :     0.604604
      pz      :     0.019495  p :     0.045881
      px      :     0.013432
      py      :     0.012954

 11 H s       :     0.830022  s :     0.830022
      pz      :     0.002269  p :     0.019030
      px      :     0.010695
      py      :     0.006067

 12 H s       :     0.830206  s :     0.830206
      pz      :     0.009003  p :     0.019238
      px      :     0.003926
      py      :     0.006310

 13 H s       :     0.604715  s :     0.604715
      pz      :     0.014629  p :     0.045874
      px      :     0.016071
      py      :     0.015174

 14 H s       :     0.829912  s :     0.829912
      pz      :     0.003965  p :     0.018994
      px      :     0.002989
      py      :     0.012040

 15 H s       :     0.830318  s :     0.830318
      pz      :     0.012838  p :     0.019248
      px      :     0.003122
      py      :     0.003288

 16 H s       :     0.604761  s :     0.604761
      pz      :     0.019499  p :     0.045857
      px      :     0.012032
      py      :     0.014326



                     *******************************
                     * LOEWDIN POPULATION ANALYSIS *
                     *******************************

----------------------
LOEWDIN ATOMIC CHARGES
----------------------
   0 C :   -0.465489
   1 O :   -0.048180
   2 P :    0.549788
   3 O :   -0.369297
   4 C :   -0.465482
   5 O :   -0.048097
   6 C :   -0.465599
   7 O :   -0.048046
   8 H :    0.129552
   9 H :    0.129635
  10 H :    0.194309
  11 H :    0.129575
  12 H :    0.129588
  13 H :    0.194291
  14 H :    0.129581
  15 H :    0.129564
  16 H :    0.194308

-------------------------------
LOEWDIN REDUCED ORBITAL CHARGES
-------------------------------
  0 C s       :     2.873244  s :     2.873244
      pz      :     1.020946  p :     3.057634
      px      :     1.014514
      py      :     1.022174
      dz2     :     0.088546  d :     0.474676
      dxz     :     0.093549
      dyz     :     0.088294
      dx2y2   :     0.115765
      dxy     :     0.088523
      f0      :     0.006616  f :     0.059935
      f+1     :     0.009343
      f-1     :     0.007459
      f+2     :     0.011905
      f-2     :     0.009325
      f+3     :     0.006382
      f-3     :     0.008905

  1 O s       :     3.380813  s :     3.380813
      pz      :     1.307091  p :     4.592189
      px      :     1.633656
      py      :     1.651442
      dz2     :     0.020588  d :     0.070599
      dxz     :     0.016720
      dyz     :     0.011161
      dx2y2   :     0.009658
      dxy     :     0.012474
      f0      :     0.000457  f :     0.004578
      f+1     :     0.001173
      f-1     :     0.000622
      f+2     :     0.000604
      f-2     :     0.000826
      f+3     :     0.000497
      f-3     :     0.000399

  2 P s       :     4.709024  s :     4.709024
      pz      :     2.746283  p :     8.381129
      px      :     2.820237
      py      :     2.814609
      dz2     :     0.256578  d :     1.137725
      dxz     :     0.238081
      dyz     :     0.291539
      dx2y2   :     0.124240
      dxy     :     0.227287
      f0      :     0.047422  f :     0.222334
      f+1     :     0.048080
      f-1     :     0.040397
      f+2     :     0.026638
      f-2     :     0.023484
      f+3     :     0.020990
      f-3     :     0.015324

  3 O s       :     3.548097  s :     3.548097
      pz      :     1.542453  p :     4.776874
      px      :     1.620140
      py      :     1.614281
      dz2     :     0.019845  d :     0.042328
      dxz     :     0.008190
      dyz     :     0.011510
      dx2y2   :     0.001322
      dxy     :     0.001461
      f0      :     0.000719  f :     0.001997
      f+1     :     0.000377
      f-1     :     0.000619
      f+2     :     0.000094
      f-2     :     0.000163
      f+3     :     0.000018
      f-3     :     0.000008

  4 C s       :     2.873227  s :     2.873227
      pz      :     0.930237  p :     3.057478
      px      :     1.101348
      py      :     1.025894
      dz2     :     0.117426  d :     0.474822
      dxz     :     0.073611
      dyz     :     0.126406
      dx2y2   :     0.039529
      dxy     :     0.117851
      f0      :     0.010591  f :     0.059955
      f+1     :     0.010948
      f-1     :     0.011773
      f+2     :     0.010696
      f-2     :     0.009167
      f+3     :     0.002554
      f-3     :     0.004226

  5 O s       :     3.380777  s :     3.380777
      pz      :     1.308323  p :     4.592148
      px      :     1.729060
      py      :     1.554765
      dz2     :     0.014679  d :     0.070596
      dxz     :     0.012025
      dyz     :     0.030445
      dx2y2   :     0.006024
      dxy     :     0.007423
      f0      :     0.000890  f :     0.004577
      f+1     :     0.000436
      f-1     :     0.001038
      f+2     :     0.000909
      f-2     :     0.000958
      f+3     :     0.000246
      f-3     :     0.000100

  6 C s       :     2.873244  s :     2.873244
      pz      :     1.052262  p :     3.057668
      px      :     0.971950
      py      :     1.033455
      dz2     :     0.115943  d :     0.474750
      dxz     :     0.065305
      dyz     :     0.041269
      dx2y2   :     0.146953
      dxy     :     0.105280
      f0      :     0.005189  f :     0.059937
      f+1     :     0.008158
      f-1     :     0.004273
      f+2     :     0.010088
      f-2     :     0.010311
      f+3     :     0.011358
      f-3     :     0.010561

  7 O s       :     3.380728  s :     3.380728
      pz      :     1.394592  p :     4.592131
      px      :     1.554716
      py      :     1.642823
      dz2     :     0.019053  d :     0.070607
      dxz     :     0.013883
      dyz     :     0.008248
      dx2y2   :     0.014120
      dxy     :     0.015304
      f0      :     0.000492  f :     0.004579
      f+1     :     0.001133
      f-1     :     0.000452
      f+2     :     0.000305
      f-2     :     0.000756
      f+3     :     0.000758
      f-3     :     0.000683

  8 H s       :     0.812503  s :     0.812503
      pz      :     0.029153  p :     0.057945
      px      :     0.016349
      py      :     0.012444

  9 H s       :     0.811834  s :     0.811834
      pz      :     0.012258  p :     0.058531
      px      :     0.031375
      py      :     0.014898

 10 H s       :     0.653325  s :     0.653325
      pz      :     0.070858  p :     0.152366
      px      :     0.044308
      py      :     0.037200

 11 H s       :     0.811924  s :     0.811924
      pz      :     0.008574  p :     0.058501
      px      :     0.030733
      py      :     0.019194

 12 H s       :     0.812486  s :     0.812486
      pz      :     0.025377  p :     0.057926
      px      :     0.012760
      py      :     0.019789

 13 H s       :     0.653349  s :     0.653349
      pz      :     0.047165  p :     0.152360
      px      :     0.046879
      py      :     0.058315

 14 H s       :     0.811897  s :     0.811897
      pz      :     0.013901  p :     0.058522
      px      :     0.009735
      py      :     0.034887

 15 H s       :     0.812498  s :     0.812498
      pz      :     0.036701  p :     0.057938
      px      :     0.010219
      py      :     0.011018

 16 H s       :     0.653381  s :     0.653381
      pz      :     0.074067  p :     0.152311
      px      :     0.038908
      py      :     0.039336



                      *****************************
                      * MAYER POPULATION ANALYSIS *
                      *****************************

  NA   - Mulliken gross atomic population
  ZA   - Total nuclear charge
  QA   - Mulliken gross atomic charge
  VA   - Mayer's total valence
  BVA  - Mayer's bonded valence
  FA   - Mayer's free valence

  ATOM       NA         ZA         QA         VA         BVA        FA
  0 C      6.1481     6.0000    -0.1481     3.8339     3.8339     0.0000
  1 O      8.4457     8.0000    -0.4457     1.9059     1.9059     0.0000
  2 P     14.4975    15.0000     0.5025     4.8542     4.8542    -0.0000
  3 O      8.6754     8.0000    -0.6754     1.8314     1.8314    -0.0000
  4 C      6.1476     6.0000    -0.1476     3.8349     3.8349    -0.0000
  5 O      8.4451     8.0000    -0.4451     1.9068     1.9068    -0.0000
  6 C      6.1483     6.0000    -0.1483     3.8340     3.8340    -0.0000
  7 O      8.4454     8.0000    -0.4454     1.9066     1.9066    -0.0000
  8 H      0.8496     1.0000     0.1504     0.9452     0.9452     0.0000
  9 H      0.8488     1.0000     0.1512     0.9540     0.9540     0.0000
 10 H      0.6505     1.0000     0.3495     0.9080     0.9080     0.0000
 11 H      0.8491     1.0000     0.1509     0.9538     0.9538    -0.0000
 12 H      0.8494     1.0000     0.1506     0.9452     0.9452    -0.0000
 13 H      0.6506     1.0000     0.3494     0.9080     0.9080    -0.0000
 14 H      0.8489     1.0000     0.1511     0.9538     0.9538    -0.0000
 15 H      0.8496     1.0000     0.1504     0.9452     0.9452    -0.0000
 16 H      0.6506     1.0000     0.3494     0.9080     0.9080    -0.0000

  Mayer bond orders larger than 0.100000
B(  0-C ,  1-O ) :   0.9974 B(  0-C ,  2-P ) :   0.9422 B(  0-C ,  8-H ) :   0.9420 
B(  0-C ,  9-H ) :   0.9223 B(  1-O , 10-H ) :   0.8403 B(  2-P ,  3-O ) :   1.7114 
B(  2-P ,  4-C ) :   0.9415 B(  2-P ,  6-C ) :   0.9415 B(  4-C ,  5-O ) :   0.9982 
B(  4-C , 11-H ) :   0.9224 B(  4-C , 12-H ) :   0.9424 B(  5-O , 13-H ) :   0.8404 
B(  6-C ,  7-O ) :   0.9977 B(  6-C , 14-H ) :   0.9224 B(  6-C , 15-H ) :   0.9422 
B(  7-O , 16-H ) :   0.8405 

-------
TIMINGS
-------

Total SCF time: 0 days 0 hours 0 min 19 sec 

Total time                  ....      19.823 sec
Sum of individual times     ....      19.804 sec  ( 99.9%)

SCF preparation             ....       0.116 sec  (  0.6%)
Fock matrix formation       ....      18.856 sec  ( 95.1%)
  Startup                   ....       0.027 sec  (  0.1% of F)
  Split-RI-J                ....       1.204 sec  (  6.4% of F)
  Chain of spheres X        ....      12.340 sec  ( 65.4% of F)
  XC integration            ....       5.138 sec  ( 27.2% of F)
    Basis function eval.    ....       0.724 sec  ( 14.1% of XC)
    Density eval.           ....       1.824 sec  ( 35.5% of XC)
    XC-Functional eval.     ....       0.199 sec  (  3.9% of XC)
    XC-Potential eval.      ....       1.831 sec  ( 35.6% of XC)
Diagonalization             ....       0.000 sec  (  0.0%)
Density matrix formation    ....       0.067 sec  (  0.3%)
Total Energy calculation    ....       0.267 sec  (  1.3%)
Population analysis         ....       0.046 sec  (  0.2%)
Orbital Transformation      ....       0.058 sec  (  0.3%)
Orbital Orthonormalization  ....       0.000 sec  (  0.0%)
DIIS solution               ....       0.258 sec  (  1.3%)
SOSCF solution              ....       0.136 sec  (  0.7%)
Finished LeanSCF after  19.8 sec

Maximum memory used throughout the entire LEANSCF-calculation: 29.7 MB


-------------------------------------------------------------------------------
                          DFT DISPERSION CORRECTION                            
                                                                               
                              DFTD3 V3.1  Rev 1                                
                              USING zero damping                               
-------------------------------------------------------------------------------
The M062X functional is recognized
Active option DFTDOPT                   ...         3   

molecular C6(AA) [au] = 2878.775391 


            DFT-D V3
 parameters
 s6 scaling factor         :     1.0000 
 rs6 scaling factor        :     1.6190 
 s8 scaling factor         :     0.0000 
 rs8 scaling factor        :     1.0000 
 Damping factor alpha6     :    14.0000 
 Damping factor alpha8     :    16.0000 
 ad hoc parameters k1-k3   :    16.0000     1.3333    -4.0000 

 Edisp/kcal,au: -0.335782064020  -0.000535102723 
 E6   /kcal   :  -0.335782064 
 E8   /kcal   :  -0.000000000 
 % E8         :   0.000000000 

-------------------------   ----------------
Dispersion correction           -0.000535103
-------------------------   ----------------


-------------------------   --------------------
FINAL SINGLE POINT ENERGY      -761.988711172002
-------------------------   --------------------



           ************************************************************
           *        Program running with 6 parallel MPI-processes     *
           *              working on a common directory               *
           ************************************************************

------------------------------------------------------------------------------
                              ORCA PROPERTY CALCULATIONS
------------------------------------------------------------------------------

GBWName                                 ... data/single_point_PO_M06-2x/76001/76001.gbw
Number of atoms                         ...     17
Number of basis functions               ...    308
Max core memory                         ...   1024 MB

Electric properties:
Dipole moment                           ... YES
Quadrupole moment                       ...  NO
Static polarizability (Dipole/Dipole)   ...  NO
Static polarizability (Dipole/Quad.)    ...  NO
Static polarizability (Quad./Quad.)     ...  NO
Static polarizability (Velocity)        ...  NO

Atomic electric properties:
Dipole moment                           ...  NO
Quadrupole moment                       ...  NO
Static polarizability                   ...  NO

Choice of electric origin               ... Center of mass
Position of electric origin             ...     0.065896     0.130573    -0.203713

General magnetic properties:
Magnetizability                         ...  NO

EPR properties:
g-Tensor (aka g-matrix)                 ...  NO
Zero-Field splitting spin-orbit         ...  NO
Zero-field splitting spin-spin          ...  NO
Hyperfine couplings                     ...  NO (   0 nuclei)
Quadrupole couplings                    ...  NO (   0 nuclei)
Contact density                         ...  NO (   0 nuclei)

NMR properties:
Chemical shifts                         ...  NO (   0 nuclei)
Spin-rotation constants                 ...  NO (   0 nuclei)
Spin-spin couplings                     ...  NO (   0 nuclei,    0 pairs)

Choice of magnetic origin               ... GIAO
Position of magnetic origin             ...     0.000000     0.000000     0.000000

Properties with geometric perturbations:
SCF Hessian                             ...  NO
IR spectrum                             ...  NO
VCD spectrum                            ...  NO
X-ray spectroscopy properties:
SCF XES/XAS/RIXS spectra                ...  NO


-------------
DIPOLE MOMENT
-------------

Method             : SCF
Type of density    : Electron Density
Multiplicity       :   1
Irrep              :   0
Energy             :  -761.9881760692792341 Eh
Relativity type    : 
Basis              : AO
                                X                 Y                 Z
Electronic contribution:      0.335498439       0.665818536      -2.118187830
Nuclear contribution   :     -0.513647708      -1.018621212       3.239730402
                        -----------------------------------------
Total Dipole Moment    :     -0.178149269      -0.352802676       1.121542572
                        -----------------------------------------
Magnitude (a.u.)       :      1.189144495
Magnitude (Debye)      :      3.022565100



--------------------
Rotational spectrum 
--------------------
 
Rotational constants in cm-1:             0.055511             0.055481             0.035269 
Rotational constants in MHz :          1664.191533          1663.266681          1057.337666 

Dipole components along the rotational axes: 
x,y,z [a.u.] :    -0.000873     0.001586     1.189143 
x,y,z [Debye]:    -0.002219     0.004032     3.022562 

 

Dipole moment calculation done in   0.0 sec 

Maximum memory used throughout the entire PROP-calculation: 14.8 MB

--------------------------------
SUGGESTED CITATIONS FOR THIS RUN
--------------------------------

Below you find a list of papers that are relevant to this ORCA run
We neither can nor want to force you to cite these papers, but we appreciate if you do
You receive ORCA, which is the product of decades of hard work by many enthusiastic individuals, for free
The only thing we kindly ask in return is that you cite our papers,
We deeply appreciate it, if you show your appreciation for ORCA by not just citing the generic ORCA reference.

Please note that relegating all ORCA citations to the supporting information does *not* help us.
SI sections are not indexed - citations you put there will not count into any citation statistics
But we need these citations in order to attract the funding resources that allow us to do what we are doing

Therefore, if you are a happy ORCA user, please consider citing a few of the papers listed below in the main body of your paper

In addition to the list printed below, the program has created the file data/single_point_PO_M06-2x/76001/76001.bibtex that contains the list in bibtex format
You can import this file easily into all common literature databanks and citation aid programs


List of essential papers. We consider these as the minimum necessary citations

  1. Neese,F.
     Software update: the ORCA program system, version 5.0
     WIRES Comput. Molec. Sci., 2022 12(1)e1606
     doi.org/10.1002/wcms.1606

List of papers to cite with high priority. The work reported in these papers was absolutely
necessary for this run to complete.
Our perspective: the developers of density functionals and basis sets usually get cited in chemistry papers
Good! But without the algorithms to do something with them, the functionals or basis sets would not do anything.
Hence, in our opinion, the algorithm design and method developments papers are equally worthy of getting cited

  1. Neese,F.
     An improvement of the resolution of the identity approximation for the formation of the Coulomb matrix
     J. Comp. Chem., 2003 24(14)1740-1747
     doi.org/10.1002/jcc.10318
  2. Neese,F.; Wennmohs,F.; Hansen,A.; Becker,U.
     Efficient, approximate and parallel Hartree-Fock and hybrid DFT calculations. A 'chain-of-spheres' algorithm for the Hartree-Fock exchange
     Chem. Phys., 2009 356(1-3)98-109
     doi.org/10.1016/j.chemphys.2008.10.036
  3. Helmich-Paris,B.; de Souza,B.; Neese,F.; Izsák,R.
     An improved chain of spheres for exchange algorithm
     J. Chem. Phys., 2021 155 104109
     doi.org/doi: 10.1063/5.0058766.
  4. Neese,F.
     The SHARK Integral Generation and Digestion System
     J. Comp. Chem., 2022  1-16
     doi.org/10.1002/jcc.26942
  5. Grimme,S.; Antony,J.; Ehrlich,S.; Krieg,H.
     A consistent and accurate ab initio parametrization of density functional dispersion correction (DFT-D) for the 94 elements H-Pu
     J. Chem. Phys., 2010 132 154104-XXXX
     doi.org/10.1063/1.3382344

List of suggested additional citations. These are papers that are important in the 'surrounding' of 
of this run, or papers that preceded the highly important papers. If you like your results we are grateful for a citation.

  1. Izsak,R.; Neese,F.
     An overlap fitted chain of spheres exchange method
     J. Chem. Phys., 2011 135 144105
     doi.org/10.1063/1.3646921
  2. Izsak,R.; Hansen,A.; Neese,F.
     The resolution of identity and chain of spheres approximations for the LPNO-CCSD singles Fock term
     Molec. Phys., 2012 110 2413-2417
     doi.org/10.1080/00268976.2012.687466
  3. Neese,F.
     The ORCA program system
     WIRES Comput. Molec. Sci., 2012 2(1)73-78
     doi.org/10.1002/wcms.81
  4. Izsak,R.; Neese,F.; Klopper,W.
     Robust fitting techniques in the chain of spheres approximation to the Fock exchange: The role of the complementary space
     J. Chem. Phys., 2013 139 
     doi.org/10.1063/1.4819264
  5. Neese,F.
     Software update: the ORCA program system, version 4.0
     WIRES Comput. Molec. Sci., 2018 8(1)1-6
     doi.org/10.1002/wcms.1327
  6. Neese,F.; Wennmohs,F.; Becker,U.; Riplinger,C.
     The ORCA quantum chemistry program package
     J. Chem. Phys., 2020 152 Art. No. L224108
     doi.org/10.1063/5.0004608

List of optional additional citations

  1. Neese,F.
     Approximate second-order SCF convergence for spin unrestricted wavefunctions
     Chem. Phys. Lett., 2000 325(1-3)93-98
     doi.org/10.1016/s0009-2614(00)00662-x

Timings for individual modules:

Sum of individual times          ...       21.774 sec (=   0.363 min)
Startup calculation              ...        1.196 sec (=   0.020 min)   5.5 %
SCF iterations                   ...       20.426 sec (=   0.340 min)  93.8 %
Property calculations            ...        0.152 sec (=   0.003 min)   0.7 %
                             ****ORCA TERMINATED NORMALLY****
TOTAL RUN TIME: 0 days 0 hours 0 minutes 22 seconds 10 msec
