
                                 *****************
                                 * O   R   C   A *
                                 *****************

                                            #,                                       
                                            ###                                      
                                            ####                                     
                                            #####                                    
                                            ######                                   
                                           ########,                                 
                                     ,,################,,,,,                         
                               ,,#################################,,                 
                          ,,##########################################,,             
                       ,#########################################, ''#####,          
                    ,#############################################,,   '####,        
                  ,##################################################,,,,####,       
                ,###########''''           ''''###############################       
              ,#####''   ,,,,##########,,,,          '''####'''          '####       
            ,##' ,,,,###########################,,,                        '##       
           ' ,,###''''                  '''############,,,                           
         ,,##''                                '''############,,,,        ,,,,,,###''
      ,#''                                            '''#######################'''  
     '                                                          ''''####''''         
             ,#######,   #######,   ,#######,      ##                                
            ,#'     '#,  ##    ##  ,#'     '#,    #''#        ,####,   ,####,        
            ##       ##  ##   ,#'  ##            #'  '#       #'       #'  '#        
            ##       ##  #######   ##           ,######,      #####,   #    #        
            '#,     ,#'  ##    ##  '#,     ,#' ,#      #,     #,   #   #,  ,#        
             '#######'   ##     ##  '#######'  #'      '#     '####' # '####'        



                #########################################################
                #                        -***-                          #
                #          Department of theory and spectroscopy        #
                #                                                       #
                #                      Frank Neese                      #
                #                                                       #
                #     Directorship, Architecture, Infrastructure        #
                #                    SHARK, DRIVERS                     #
                #        Core code/Algorithms in most modules           #
                #                                                       #
                #        Max Planck Institute fuer Kohlenforschung      #
                #                Kaiser Wilhelm Platz 1                 #
                #                 D-45470 Muelheim/Ruhr                 #
                #                      Germany                          #
                #                                                       #
                #                  All rights reserved                  #
                #                        -***-                          #
                #########################################################


                         Program Version 6.0.0  -   RELEASE   -


 With contributions from (in alphabetic order):
   Daniel Aravena         : Magnetic Suceptibility
   Michael Atanasov       : Ab Initio Ligand Field Theory (pilot matlab implementation)
   Alexander A. Auer      : GIAO ZORA, VPT2 properties, NMR spectrum
   Ute Becker             : All parallelization in ORCA, NUMFREQ, NUMCALC
   Giovanni Bistoni       : ED, misc. LED, open-shell LED, HFLD
   Martin Brehm           : Molecular dynamics
   Dmytro Bykov           : pre 5.0 version of the SCF Hessian
   Marcos Casanova-Páez   : Triplet and SCS-CIS(D). UHF-(DLPNO)-IP/EA/STEOM-CCSD. UHF-CVS-IP/STEOM-CCSD
   Vijay G. Chilkuri      : MRCI spin determinant printing, contributions to CSF-ICE
   Pauline Colinet        : FMM embedding
   Dipayan Datta          : RHF DLPNO-CCSD density
   Achintya Kumar Dutta   : EOM-CC, STEOM-CC
   Nicolas Foglia         : Exact transition moments, OPA infrastructure, MCD improvements
   Dmitry Ganyushin       : Spin-Orbit,Spin-Spin,Magnetic field MRCI
   Miquel Garcia          : C-PCM and meta-GGA Hessian, CCSD/C-PCM, Gaussian charge scheme
   Tiago L. C. Gouveia    : GS-ROHF, GS-ROCIS
   Yang Guo               : DLPNO-NEVPT2, F12-NEVPT2, CIM, IAO-localization
   Andreas Hansen         : Spin unrestricted coupled pair/coupled cluster methods
   Ingolf Harden          : AUTO-CI MPn and infrastructure 
   Benjamin Helmich-Paris : MC-RPA, TRAH-(SCF,CASSCF), AVAS, COSX integrals, SCF dyn. polar.
   Lee Huntington         : MR-EOM, pCC
   Robert Izsak           : Overlap fitted RIJCOSX, COSX-SCS-MP3, EOM
   Riya Kayal             : Wick's Theorem for AUTO-CI, AUTO-CI UHF-CCSDT
   Emily Kempfer          : AUTO-CI, RHF CISDT and CCSDT
   Christian Kollmar      : KDIIS, OOCD, Brueckner-CCSD(T), CCSD density, CASPT2, CASPT2-K, improved NEVPT2
   Axel Koslowski         : Symmetry handling
   Simone Kossmann        : Meta GGA functionals, TD-DFT gradient, OOMP2, (MP2 Hessian; deprecated post 5.0)
   Lucas Lang             : DCDCAS
   Marvin Lechner         : AUTO-CI (C++ implementation), FIC-MRCC
   Spencer Leger          : CASSCF response
   Dagmar Lenk            : GEPOL surface, SMD, ORCA-2-JSON
   Dimitrios Liakos       : Extrapolation schemes; Compound Job, initial MDCI parallelization
   Dimitrios Manganas     : Further ROCIS development; embedding schemes. LFT, Crystal Embedding
   Dimitrios Pantazis     : SARC Basis sets
   Anastasios Papadopoulos: AUTO-CI, single reference methods and gradients
   Taras Petrenko         : pre 6.0 DFT Hessian and TD-DFT gradient, (ASA, deprecated), ECA, 1-Electron XAS/XES, NRVS
   Peter Pinski           : DLPNO-MP2, DLPNO-MP2 Gradient
   Christoph Reimann      : Effective Core Potentials
   Marius Retegan         : Local ZFS, SOC
   Christoph Riplinger    : Optimizer, TS searches, QM/MM, DLPNO-CCSD(T), (RO)-DLPNO pert. Triples
   Michael Roemelt        : Original ROCIS implementation
   Masaaki Saitow         : Open-shell DLPNO-CCSD energy and density
   Barbara Sandhoefer     : DKH picture change effects
   Kantharuban Sivalingam : CASSCF convergence/infrastructure, NEVPT2 and variants, FIC-MRCI
   Bernardo de Souza      : ESD, SOC TD-DFT
   Georgi Stoychev        : AutoAux, RI-MP2 NMR, DLPNO-MP2 response, X2C
   Van Anh Tran           : RI-MP2 g-tensors
   Willem Van den Heuvel  : Paramagnetic NMR
   Zikuan Wang            : NOTCH, Electric field optimization 
   Frank Wennmohs         : Technical directorship and infrastructure
   Hang Xu                : AUTO-CI-Response properties 


 We gratefully acknowledge several colleagues who have allowed us to
 interface, adapt or use parts of their codes:
   Stefan Grimme, W. Hujo, H. Kruse, P. Pracht,  : VdW corrections, initial TS optimization,
                  C. Bannwarth, S. Ehlert,         DFT functionals, gCP, sTDA/sTD-DF
                  L. Wittmann, M. Mueller
   Ed Valeev, F. Pavosevic, A. Kumar             : LibInt (2-el integral package), F12 methods
   Garnet Chan, S. Sharma, J. Yang, R. Olivares  : DMRG
   Ulf Ekstrom                                   : XCFun DFT Library
   Mihaly Kallay                                 : mrcc  (arbitrary order and MRCC methods)
   Frank Weinhold                                : gennbo (NPA and NBO analysis)
   Simon Mueller                                 : openCOSMO-RS
   Christopher J. Cramer and Donald G. Truhlar   : smd solvation model
   Lars Goerigk                                  : TD-DFT with DH, B97 family of functionals
   V. Asgeirsson, H. Jonsson                     : NEB implementation
   FAccTs GmbH                                   : IRC, NEB, NEB-TS, DLPNO-Multilevel, CI-OPT
                                                   MM, QMMM, 2- and 3-layer-ONIOM, Crystal-QMMM,
                                                   LR-CPCM, SF, NACMEs, symmetry and pop. for TD-DFT,
                                                   nearIR, NL-DFT gradient (VV10), updates on ESD,
                                                   ML-optimized integration grids, MBIS, APM,
                                                   GOAT, DOCKER, SOLVATOR, interface openCOSMO-RS
   S Lehtola, MJT Oliveira, MAL Marques          : LibXC Library
   Liviu Ungur et al                             : ANISO software


 Your calculation uses the libint2 library for the computation of 2-el integrals
 For citations please refer to: http://libint.valeyev.net

 Your ORCA version has been built with support for libXC version: 6.2.2
 For citations please refer to: https://libxc.gitlab.io

 This ORCA versions uses:
   CBLAS   interface :  Fast vector & matrix operations
   LAPACKE interface :  Fast linear algebra routines
   Shared memory     :  Shared parallel matrices


Your calculation utilizes the atom-pairwise dispersion correction
with the zero-damping scheme (D30)


XCFun DFT library Copyright 2009-2010 Ulf Ekstrom and contributors.
See http://admol.org/xcfun for more information.
This is free software; see the source code for copying conditions.
There is ABSOLUTELY NO WARRANTY; not even for MERCHANTABILITY or FITNESS FOR A PARTICULAR PURPOSE.
For details see the documentation.
Scientific users of this library should cite U. Ekstrom, L. Visscher, R. Bast, A. J. Thorvaldsen and K. Ruud;
J.Chem.Theor.Comp. 2010, DOI: 10.1021/ct100117s
XCFun Version 0.99 

Warning: RI is on but no J-basis has been assigned. Assigning Def2/J (nothing to worry about!)
================================================================================

----- Orbital basis set information -----
Your calculation utilizes the basis: def2-TZVP
   F. Weigend and R. Ahlrichs, Phys. Chem. Chem. Phys. 7, 3297 (2005).

----- AuxJ basis set information -----
Your calculation utilizes the auxiliary basis: def2/J
   F. Weigend, Phys. Chem. Chem. Phys. 8, 1057 (2006).

================================================================================
                                        WARNINGS
                       Please study these warnings very carefully!
================================================================================

WARNING: Functional chosen is sensitive to the integration grid.
         DEFGRID3 seems to be a minimum grid for robust results!

================================================================================
                                       INPUT FILE
================================================================================
NAME = data/single_point_PO_M06-2x/300563/300563.inp
|  1> ! RIJCOSX M062X def2-TZVP D3ZERO NormalSCF
|  2> %pal
|  3> nprocs 6
|  4> end
|  5> 
|  6> * xyz 0 1
|  7>   C          -2.88388113369934     -3.26921778606187     -0.45139351750361
|  8>   C          -1.73350781935575     -3.56611103665208      0.30139059479042
|  9>   C          -0.90071033436834     -2.53051320726390      0.74662101800379
| 10>   C          -1.21035961046793     -1.19072243272253      0.43124991886799
| 11>   C          -2.36869236006209     -0.89430261513031     -0.31229037054240
| 12>   C          -3.20192976674175     -1.93503494757431     -0.75343244165757
| 13>   P          -0.16937825637712      0.12324108964503      1.15318945512889
| 14>   O          -0.29774043316843      0.25058044915101      2.65525588531615
| 15>   C          -0.54773638764533      1.67658856622062      0.26805187097001
| 16>   C          -0.95740236648266      2.75738316353555      1.07310542555474
| 17>   C          -1.26304962543909      3.99207318410747      0.47822748856803
| 18>   C          -1.15912038363241      4.14652274149211     -0.91426986435157
| 19>   C          -0.74722086791244      3.06688820436635     -1.71681527744754
| 20>   C          -0.43869651140935      1.83059774644672     -1.12993613808944
| 21>   C           1.55342982381905     -0.32627874391113      0.60539056085321
| 22>   C           2.64697454371337     -0.09786257227384      1.46732189721902
| 23>   C           3.95779194863182     -0.46091128946127      1.10245912402551
| 24>   C           4.19728347947978     -1.04740205995651     -0.15131486835790
| 25>   C           3.12803115462939     -1.27148983327002     -1.03684259477840
| 26>   C           1.83113805836723     -0.90070106680302     -0.65020820849188
| 27>   F           0.84667774928117     -1.11132985740595     -1.54509980104390
| 28>   F           3.35584362556798     -1.82159423770330     -2.23424287802305
| 29>   F           5.43717230480171     -1.38858937787532     -0.50423383724205
| 30>   F           4.97807611559096     -0.23945394660491      1.93661347147307
| 31>   F           2.49017705861214      0.47849471679141      2.65837993427353
| 32>   H          -3.53692257998697     -4.08331075128488     -0.80126691078887
| 33>   H          -1.48677512018826     -4.61102776795634      0.54377192023178
| 34>   H          -0.00490955604574     -2.76049445694481      1.34502366448769
| 35>   H          -2.61796498967012      0.15084278445913     -0.54964781470147
| 36>   H          -4.10539823591083     -1.70137950281866     -1.33707487336108
| 37>   H          -1.02467191378681      2.60491934692502      2.16161706446078
| 38>   H          -1.58262938677508      4.83819741125360      1.10559394024820
| 39>   H          -1.39875991404144      5.11507570028771     -1.37950354209020
| 40>   H          -0.66528572917730      3.19021374419642     -2.80757920867123
| 41>   H          -0.11985058015001      0.98610864079681     -1.75811008733066
| 42> **                         ****END OF INPUT****
================================================================================

                       ****************************
                       * Single Point Calculation *
                       ****************************

---------------------------------
CARTESIAN COORDINATES (ANGSTROEM)
---------------------------------
  C     -2.883881   -3.269218   -0.451394
  C     -1.733508   -3.566111    0.301391
  C     -0.900710   -2.530513    0.746621
  C     -1.210360   -1.190722    0.431250
  C     -2.368692   -0.894303   -0.312290
  C     -3.201930   -1.935035   -0.753432
  P     -0.169378    0.123241    1.153189
  O     -0.297740    0.250580    2.655256
  C     -0.547736    1.676589    0.268052
  C     -0.957402    2.757383    1.073105
  C     -1.263050    3.992073    0.478227
  C     -1.159120    4.146523   -0.914270
  C     -0.747221    3.066888   -1.716815
  C     -0.438697    1.830598   -1.129936
  C      1.553430   -0.326279    0.605391
  C      2.646975   -0.097863    1.467322
  C      3.957792   -0.460911    1.102459
  C      4.197283   -1.047402   -0.151315
  C      3.128031   -1.271490   -1.036843
  C      1.831138   -0.900701   -0.650208
  F      0.846678   -1.111330   -1.545100
  F      3.355844   -1.821594   -2.234243
  F      5.437172   -1.388589   -0.504234
  F      4.978076   -0.239454    1.936613
  F      2.490177    0.478495    2.658380
  H     -3.536923   -4.083311   -0.801267
  H     -1.486775   -4.611028    0.543772
  H     -0.004910   -2.760494    1.345024
  H     -2.617965    0.150843   -0.549648
  H     -4.105398   -1.701380   -1.337075
  H     -1.024672    2.604919    2.161617
  H     -1.582629    4.838197    1.105594
  H     -1.398760    5.115076   -1.379504
  H     -0.665286    3.190214   -2.807579
  H     -0.119851    0.986109   -1.758110

----------------------------
CARTESIAN COORDINATES (A.U.)
----------------------------
  NO LB      ZA    FRAG     MASS         X           Y           Z
   0 C     6.0000    0    12.011   -5.449746   -6.177926   -0.853010
   1 C     6.0000    0    12.011   -3.275855   -6.738973    0.569546
   2 C     6.0000    0    12.011   -1.702096   -4.781977    1.410909
   3 C     6.0000    0    12.011   -2.287248   -2.250139    0.814944
   4 C     6.0000    0    12.011   -4.476180   -1.689987   -0.590143
   5 C     6.0000    0    12.011   -6.050770   -3.656686   -1.423781
   6 P    15.0000    0    30.974   -0.320079    0.232892    2.179212
   7 O     8.0000    0    15.999   -0.562648    0.473528    5.017706
   8 C     6.0000    0    12.011   -1.035072    3.168293    0.506545
   9 C     6.0000    0    12.011   -1.809228    5.210699    2.027875
  10 C     6.0000    0    12.011   -2.386818    7.543925    0.903719
  11 C     6.0000    0    12.011   -2.190420    7.835792   -1.727720
  12 C     6.0000    0    12.011   -1.412043    5.795579   -3.244311
  13 C     6.0000    0    12.011   -0.829016    3.459328   -2.135270
  14 C     6.0000    0    12.011    2.935557   -0.616577    1.144022
  15 C     6.0000    0    12.011    5.002057   -0.184933    2.772837
  16 C     6.0000    0    12.011    7.479143   -0.870996    2.083346
  17 C     6.0000    0    12.011    7.931716   -1.979303   -0.285944
  18 C     6.0000    0    12.011    5.911122   -2.402768   -1.959349
  19 C     6.0000    0    12.011    3.460349   -1.702078   -1.228715
  20 F     9.0000    0    18.998    1.599989   -2.100109   -2.919815
  21 F     9.0000    0    18.998    6.341625   -3.442314   -4.222107
  22 F     9.0000    0    18.998   10.274767   -2.624054   -0.952864
  23 F     9.0000    0    18.998    9.407201   -0.452502    3.659669
  24 F     9.0000    0    18.998    4.705753    0.904224    5.023610
  25 H     1.0000    0     1.008   -6.683815   -7.716339   -1.514175
  26 H     1.0000    0     1.008   -2.809598   -8.713580    1.027580
  27 H     1.0000    0     1.008   -0.009278   -5.216579    2.541726
  28 H     1.0000    0     1.008   -4.947237    0.285052   -1.038684
  29 H     1.0000    0     1.008   -7.758078   -3.215141   -2.526705
  30 H     1.0000    0     1.008   -1.936349    4.922584    4.084864
  31 H     1.0000    0     1.008   -2.990736    9.142868    2.089270
  32 H     1.0000    0     1.008   -2.643273    9.666092   -2.606884
  33 H     1.0000    0     1.008   -1.257208    6.028630   -5.305556
  34 H     1.0000    0     1.008   -0.226485    1.863475   -3.322347

--------------------------------
INTERNAL COORDINATES (ANGSTROEM)
--------------------------------
 C      0   0   0     0.000000000000     0.00000000     0.00000000
 C      1   0   0     1.406480815483     0.00000000     0.00000000
 C      2   1   0     1.401515124781   120.00423970     0.00000000
 C      3   2   1     1.410808606405   120.01879532   359.51542903
 C      4   3   2     1.407995606890   119.90353910     1.04753364
 C      5   4   3     1.404284405166   119.86846101   359.11114624
 P      4   3   2     1.825195609159   118.03851731   175.00723333
 O      7   4   3     1.512909687194   113.88542107   292.87520402
 C      7   4   3     1.827433118166   107.59334812   166.72400120
 C      9   7   4     1.408564660053   115.82365992   124.08876801
 C     10   9   7     1.404193524312   119.72616873   179.71837711
 C     11  10   9     1.404886056222   120.03124933   359.96079782
 C     12  11  10     1.406894127106   120.17886234   359.91142189
 C     13  12  11     1.402864390849   120.13366773     0.00000000
 C      7   4   3     1.862852487590   103.73494248    56.11529803
 C     15   7   4     1.411006601857   119.87112389   215.94785154
 C     16  15   7     1.408251214575   121.42539019   178.12145483
 C     17  16  15     1.404733726085   119.83962696     0.87344591
 C     18  17  16     1.406298410227   119.92844888   359.92296999
 C     19  18  17     1.403175741356   119.15196962     0.09087158
 F     20  19  18     1.346980901875   116.81574657   178.67375755
 F     19  18  17     1.337266172460   119.99001503   179.55691908
 F     18  17  16     1.333523484482   120.10261701   179.74625670
 F     17  16  15     1.336351978866   120.41199746   180.23789644
 F     16  15   7     1.332438525270   121.65939019   357.65444077
 H      1   2   3     1.100736970363   119.95040502   179.95414797
 H      2   1   3     1.100671025839   120.10638197   179.86492054
 H      3   2   1     1.101560773161   120.10086720   179.37665094
 H      5   4   3     1.100365533108   120.01590215   179.31511722
 H      6   5   4     1.100676441890   119.75498735   180.17866684
 H     10   9   7     1.101193895462   118.45645710   359.93243623
 H     11  10   9     1.100747971296   119.84353888   180.04728924
 H     12  11  10     1.100892507663   119.96618742   180.01594548
 H     13  12  11     1.100767236700   120.07088312   180.07054630
 H     14  13  12     1.099739554598   120.10085418   179.80570868

---------------------------
INTERNAL COORDINATES (A.U.)
---------------------------
 C      0   0   0     0.000000000000     0.00000000     0.00000000
 C      1   0   0     2.657863553877     0.00000000     0.00000000
 C      2   1   0     2.648479758384   120.00423970     0.00000000
 C      3   2   1     2.666041893484   120.01879532   359.51542903
 C      4   3   2     2.660726094785   119.90353910     1.04753364
 C      5   4   3     2.653712939900   119.86846101   359.11114624
 P      4   3   2     3.449119842146   118.03851731   175.00723333
 O      7   4   3     2.858984974153   113.88542107   292.87520402
 C      7   4   3     3.453348121392   107.59334812   166.72400120
 C      9   7   4     2.661801449421   115.82365992   124.08876801
 C     10   9   7     2.653541199976   119.72616873   179.71837711
 C     11  10   9     2.654849895624   120.03124933   359.96079782
 C     12  11  10     2.658644599653   120.17886234   359.91142189
 C     13  12  11     2.651029501735   120.13366773     0.00000000
 C      7   4   3     3.520281029439   103.73494248    56.11529803
 C     15   7   4     2.666416050664   119.87112389   215.94785154
 C     16  15   7     2.661209123308   121.42539019   178.12145483
 C     17  16  15     2.654562033384   119.83962696     0.87344591
 C     18  17  16     2.657518857897   119.92844888   359.92296999
 C     19  18  17     2.651617868925   119.15196962     0.09087158
 F     20  19  18     2.545425012167   116.81574657   178.67375755
 F     19  18  17     2.527066834107   119.99001503   179.55691908
 F     18  17  16     2.519994178823   120.10261701   179.74625670
 F     17  16  15     2.525339258580   120.41199746   180.23789644
 F     16  15   7     2.517943903047   121.65939019   357.65444077
 H      1   2   3     2.080091419468   119.95040502   179.95414797
 H      2   1   3     2.079966802377   120.10638197   179.86492054
 H      3   2   1     2.081648181145   120.10086720   179.37665094
 H      5   4   3     2.079389504781   120.01590215   179.31511722
 H      6   5   4     2.079977037231   119.75498735   180.17866684
 H     10   9   7     2.080954882770   118.45645710   359.93243623
 H     11  10   9     2.080112208219   119.84353888   180.04728924
 H     12  11  10     2.080385342369   119.96618742   180.01594548
 H     13  12  11     2.080148614557   120.07088312   180.07054630
 H     14  13  12     2.078206576831   120.10085418   179.80570868

---------------------
BASIS SET INFORMATION
---------------------
There are 5 groups of distinct atoms

 Group   1 Type C   : 11s6p2d1f contracted to 5s3p2d1f pattern {62111/411/11/1}
 Group   2 Type P   : 14s9p3d1f contracted to 5s5p2d1f pattern {73211/51111/21/1}
 Group   3 Type O   : 11s6p2d1f contracted to 5s3p2d1f pattern {62111/411/11/1}
 Group   4 Type F   : 11s6p2d1f contracted to 5s3p2d1f pattern {62111/411/11/1}
 Group   5 Type H   : 5s1p contracted to 3s1p pattern {311/1}

Atom   0C    basis set group =>   1
Atom   1C    basis set group =>   1
Atom   2C    basis set group =>   1
Atom   3C    basis set group =>   1
Atom   4C    basis set group =>   1
Atom   5C    basis set group =>   1
Atom   6P    basis set group =>   2
Atom   7O    basis set group =>   3
Atom   8C    basis set group =>   1
Atom   9C    basis set group =>   1
Atom  10C    basis set group =>   1
Atom  11C    basis set group =>   1
Atom  12C    basis set group =>   1
Atom  13C    basis set group =>   1
Atom  14C    basis set group =>   1
Atom  15C    basis set group =>   1
Atom  16C    basis set group =>   1
Atom  17C    basis set group =>   1
Atom  18C    basis set group =>   1
Atom  19C    basis set group =>   1
Atom  20F    basis set group =>   4
Atom  21F    basis set group =>   4
Atom  22F    basis set group =>   4
Atom  23F    basis set group =>   4
Atom  24F    basis set group =>   4
Atom  25H    basis set group =>   5
Atom  26H    basis set group =>   5
Atom  27H    basis set group =>   5
Atom  28H    basis set group =>   5
Atom  29H    basis set group =>   5
Atom  30H    basis set group =>   5
Atom  31H    basis set group =>   5
Atom  32H    basis set group =>   5
Atom  33H    basis set group =>   5
Atom  34H    basis set group =>   5
---------------------------------
AUXILIARY/J BASIS SET INFORMATION
---------------------------------
There are 5 groups of distinct atoms

 Group   1 Type C   : 12s5p4d2f1g contracted to 6s4p3d1f1g pattern {711111/2111/211/2/1}
 Group   2 Type P   : 14s5p5d2f1g contracted to 8s4p3d1f1g pattern {71111111/2111/311/2/1}
 Group   3 Type O   : 12s5p4d2f1g contracted to 6s4p3d1f1g pattern {711111/2111/211/2/1}
 Group   4 Type F   : 12s5p4d2f1g contracted to 6s4p3d1f1g pattern {711111/2111/211/2/1}
 Group   5 Type H   : 5s2p1d contracted to 3s1p1d pattern {311/2/1}

Atom   0C    basis set group =>   1
Atom   1C    basis set group =>   1
Atom   2C    basis set group =>   1
Atom   3C    basis set group =>   1
Atom   4C    basis set group =>   1
Atom   5C    basis set group =>   1
Atom   6P    basis set group =>   2
Atom   7O    basis set group =>   3
Atom   8C    basis set group =>   1
Atom   9C    basis set group =>   1
Atom  10C    basis set group =>   1
Atom  11C    basis set group =>   1
Atom  12C    basis set group =>   1
Atom  13C    basis set group =>   1
Atom  14C    basis set group =>   1
Atom  15C    basis set group =>   1
Atom  16C    basis set group =>   1
Atom  17C    basis set group =>   1
Atom  18C    basis set group =>   1
Atom  19C    basis set group =>   1
Atom  20F    basis set group =>   4
Atom  21F    basis set group =>   4
Atom  22F    basis set group =>   4
Atom  23F    basis set group =>   4
Atom  24F    basis set group =>   4
Atom  25H    basis set group =>   5
Atom  26H    basis set group =>   5
Atom  27H    basis set group =>   5
Atom  28H    basis set group =>   5
Atom  29H    basis set group =>   5
Atom  30H    basis set group =>   5
Atom  31H    basis set group =>   5
Atom  32H    basis set group =>   5
Atom  33H    basis set group =>   5
Atom  34H    basis set group =>   5


           ************************************************************
           *        Program running with 6 parallel MPI-processes     *
           *              working on a common directory               *
           ************************************************************
------------------------------------------------------------------------------
                             ORCA STARTUP CALCULATIONS
                           -- RI-GTO INTEGRALS CHOSEN --
------------------------------------------------------------------------------
------------------------------------------------------------------------------
                   ___                                                        
                  /   \      - P O W E R E D   B Y -                         
                 /     \                                                     
                 |  |  |   _    _      __       _____    __    __             
                 |  |  |  | |  | |    /  \     |  _  \  |  |  /  |          
                  \  \/   | |  | |   /    \    | | | |  |  | /  /          
                 / \  \   | |__| |  /  /\  \   | |_| |  |  |/  /          
                |  |  |   |  __  | /  /__\  \  |    /   |      \           
                |  |  |   | |  | | |   __   |  |    \   |  |\   \          
                \     /   | |  | | |  |  |  |  | |\  \  |  | \   \       
                 \___/    |_|  |_| |__|  |__|  |_| \__\ |__|  \__/        
                                                                              
                      - O R C A' S   B I G   F R I E N D -                    
                                      &                                       
                       - I N T E G R A L  F E E D E R -                       
                                                                              
 v1 FN, 2020, v2 2021, v3 2022-2024                                           
------------------------------------------------------------------------------


----------------------
SHARK INTEGRAL PACKAGE
----------------------

Number of atoms                             ...     35
Number of basis functions                   ...    841
Number of shells                            ...    317
Maximum angular momentum                    ...      3
Integral batch strategy                     ... SHARK/LIBINT Hybrid
RI-J (if used) integral strategy            ... SPLIT-RIJ (Revised 2003 algorithm where possible)
Printlevel                                  ...      1
Contraction scheme used                     ... SEGMENTED contraction
Prescreening option                         ... SCHWARTZ
   Thresh                                   ... 1.000e-10
   Tcut                                     ... 1.000e-11
   Tpresel                                  ... 1.000e-11 
Coulomb Range Separation                    ... NOT USED
Exchange Range Separation                   ... NOT USED
Multipole approximations                    ... NOT USED
Finite Nucleus Model                        ... NOT USED
CABS basis                                  ... NOT available
Auxiliary Coulomb fitting basis             ... AVAILABLE
   # of basis functions in Aux-J            ...   1337
   # of shells in Aux-J                     ...    427
   Maximum angular momentum in Aux-J        ...      4
Auxiliary J/K fitting basis                 ... NOT available
Auxiliary Correlation fitting basis         ... NOT available
Auxiliary 'external' fitting basis          ... NOT available

Checking pre-screening integrals            ... done (  0.0 sec) Dimension = 317
Check shell pair data                       ... done (  0.0 sec)
Shell pair information
Shell pair cut-off parameter TPreSel        ...   1.0e-11
Total number of shell pairs                 ...     50403
Shell pairs after pre-screening             ...     33629
Total number of primitive shell pairs       ...    161622
Primitive shell pairs kept                  ...     69220
          la=0 lb=0:   7599 shell pairs
          la=1 lb=0:   9567 shell pairs
          la=1 lb=1:   3020 shell pairs
          la=2 lb=0:   4811 shell pairs
          la=2 lb=1:   3147 shell pairs
          la=2 lb=2:    835 shell pairs
          la=3 lb=0:   2257 shell pairs
          la=3 lb=1:   1487 shell pairs
          la=3 lb=2:    728 shell pairs
          la=3 lb=3:    178 shell pairs

Calculating one electron integrals          ... done (  0.1 sec)
Calculating RI/J V-Matrix + Cholesky decomp.... done (  0.1 sec)
Calculating Nuclear repulsion               ... done (  0.0 sec) ENN=   2383.231509587930 Eh

Diagonalization of the overlap matrix:
Smallest eigenvalue                        ... 8.365e-06
Time for diagonalization                   ...    0.163 sec
Threshold for overlap eigenvalues          ... 1.000e-07
Number of eigenvalues below threshold      ... 0
Time for construction of square roots      ...    0.068 sec
Total time needed                          ...    0.238 sec

-------------------
DFT GRID GENERATION
-------------------

General Integration Accuracy     IntAcc      ... 4.388
Radial Grid Type                 RadialGrid  ... OptM3 with GC (2021)
Angular Grid (max. ang.)         AngularGrid ... 4 (Lebedev-302)
Angular grid pruning method      GridPruning ... 4 (adaptive)
Weight generation scheme         WeightScheme... mBecke (2022)
Basis function cutoff            BFCut       ... 1.0000e-10
Integration weight cutoff        WCut        ... 1.0000e-14
Partially contracted basis set               ... off
Rotationally invariant grid construction     ... off
Angular grids for H and He will be reduced by one unit

Total number of grid points                  ...   182989
Total number of batches                      ...     2877
Average number of points per batch           ...       63
Average number of grid points per atom       ...     5228

--------------------
COSX GRID GENERATION
--------------------

GRIDX 1
-------
General Integration Accuracy     IntAcc      ... 3.816
Radial Grid Type                 RadialGrid  ... OptM3 with GC (2021)
Angular Grid (max. ang.)         AngularGrid ... 1 (Lebedev-50)
Angular grid pruning method      GridPruning ... 4 (adaptive)
Weight generation scheme         WeightScheme... mBecke (2022)
Basis function cutoff            BFCut       ... 1.0000e-10
Integration weight cutoff        WCut        ... 1.0000e-14
Partially contracted basis set               ... on
Rotationally invariant grid construction     ... off
Angular grids for H and He will be reduced by one unit

Total number of grid points                  ...    24131
Total number of batches                      ...      205
Average number of points per batch           ...      117
Average number of grid points per atom       ...      689
UseSFitting                                  ... on

GRIDX 2
-------
General Integration Accuracy     IntAcc      ... 4.020
Radial Grid Type                 RadialGrid  ... OptM3 with GC (2021)
Angular Grid (max. ang.)         AngularGrid ... 2 (Lebedev-110)
Angular grid pruning method      GridPruning ... 4 (adaptive)
Weight generation scheme         WeightScheme... mBecke (2022)
Basis function cutoff            BFCut       ... 1.0000e-10
Integration weight cutoff        WCut        ... 1.0000e-14
Partially contracted basis set               ... on
Rotationally invariant grid construction     ... off
Angular grids for H and He will be reduced by one unit

Total number of grid points                  ...    51784
Total number of batches                      ...      419
Average number of points per batch           ...      123
Average number of grid points per atom       ...     1480
UseSFitting                                  ... on

GRIDX 3
-------
General Integration Accuracy     IntAcc      ... 4.338
Radial Grid Type                 RadialGrid  ... OptM3 with GC (2021)
Angular Grid (max. ang.)         AngularGrid ... 3 (Lebedev-194)
Angular grid pruning method      GridPruning ... 4 (adaptive)
Weight generation scheme         WeightScheme... mBecke (2022)
Basis function cutoff            BFCut       ... 1.0000e-10
Integration weight cutoff        WCut        ... 1.0000e-14
Partially contracted basis set               ... on
Rotationally invariant grid construction     ... off
Angular grids for H and He will be reduced by one unit

Total number of grid points                  ...   114219
Total number of batches                      ...      909
Average number of points per batch           ...      125
Average number of grid points per atom       ...     3263
UseSFitting                                  ... on
Initializing property integral containers    ... done (  0.0 sec)

SHARK setup successfully completed in   5.4 seconds

Maximum memory used throughout the entire STARTUP-calculation: 78.4 MB


           ************************************************************
           *        Program running with 6 parallel MPI-processes     *
           *              working on a common directory               *
           ************************************************************
-------------------------------------------------------------------------------
                                 ORCA GUESS
                   Start orbitals & Density for SCF / CASSCF
-------------------------------------------------------------------------------

------------
SCF SETTINGS
------------
Hamiltonian:
 Density Functional     Method          .... DFT(GTOs)
 Exchange Functional    Exchange        .... M062X
 Correlation Functional Correlation     .... M062X
 Gradients option       PostSCFGGA      .... off
 Hybrid DFT is turned on
   Fraction HF Exchange ScalHFX         ....  0.540000
   Scaling of DF-GGA-X  ScalDFX         ....  0.460000
   Scaling of DF-GGA-C  ScalDFC         ....  1.000000
   Scaling of DF-LDA-C  ScalLDAC        ....  1.000000
   Perturbative correction              ....  0.000000
 RI-approximation to the Coulomb term is turned on
   Number of AuxJ basis functions       .... 1337
   RIJ-COSX (HFX calculated with COS-X)).... on


General Settings:
 Integral files         IntName         .... data/single_point_PO_M06-2x/300563/300563
 Hartree-Fock type      HFTyp           .... RHF
 Total Charge           Charge          ....    0
 Multiplicity           Mult            ....    1
 Number of Electrons    NEL             ....  186
 Basis Dimension        Dim             ....  841
 Nuclear Repulsion      ENuc            ....   2383.2315095879 Eh

Convergence Acceleration:
 AO-DIIS                CNVDIIS         .... on
   Start iteration      DIISMaxIt       ....    12
   Startup error        DIISStart       ....  0.200000
   # of expansion vecs  DIISMaxEq       ....     5
   Bias factor          DIISBfac        ....   1.050
   Max. coefficient     DIISMaxC        ....  10.000
 MO-DIIS                CNVKDIIS        .... off
 Trust-Rad. Augm. Hess. CNVTRAH         .... auto
   Auto Start mean grad. ratio tolernc. ....  1.125000
   Auto Start start iteration           ....    50
   Auto Start num. interpolation iter.  ....    10
   Max. Number of Micro iterations      ....    24
   Max. Number of Macro iterations      .... Maxiter - #DIIS iter
   Number of Davidson start vectors     ....     2
   Converg. threshold    (grad. norm)   ....   5.000e-05
   Grad. Scal. Fac. for Micro threshold ....   0.100
   Minimum threshold for Micro iter.    ....   1.000e-02
   NR start threshold (gradient norm)   ....   1.000e-04
   Initial trust radius                 ....   0.400
   Minimum AH scaling param. (alpha)    ....   1.000
   Maximum AH scaling param. (alpha)    .... 1000.000
   Quad. conv. algorithm                .... NR
   White noise on init. David. guess    .... on
   Maximum white noise                  ....   0.010
   Pseudo random numbers                .... off
   Inactive MOs                         .... canonical
   Orbital update algorithm             .... Taylor
   Preconditioner                       .... Diag
   Full preconditioner red. dimension   ....   250
 SOSCF                  CNVSOSCF        .... on
   Start iteration      SOSCFMaxIt      ....   150
   Startup grad/error   SOSCFStart      ....  0.003300
   Hessian update       SOSCFHessUp     .... L-BFGS
 Level Shifting         CNVShift        .... on
   Level shift para.    LevelShift      ....    0.2500
   Turn off err/grad.   ShiftErr        ....    0.0010
 Zerner damping         CNVZerner       .... off
 Static damping         CNVDamp         .... on
   Fraction old density DampFac         ....    0.7000
   Max. Damping (<1)    DampMax         ....    0.9800
   Min. Damping (>=0)   DampMin         ....    0.0000
   Turn off err/grad.   DampErr         ....    0.1000

SCF Procedure:
 Maximum # iterations   MaxIter         ....   125
 SCF integral mode      SCFMode         .... Direct
   Integral package                     .... SHARK and LIBINT hybrid scheme
 Reset frequency        DirectResetFreq ....    20
 Integral Threshold     Thresh          ....  1.000e-10 Eh
 Primitive CutOff       TCut            ....  1.000e-11 Eh

Convergence Tolerance:
 Convergence Check Mode ConvCheckMode   .... Total+1el-Energy
 Convergence forced     ConvForced      .... 0
 Energy Change          TolE            ....  1.000e-06 Eh
 1-El. energy change                    ....  1.000e-03 Eh
 Orbital Gradient       TolG            ....  5.000e-05
 Orbital Rotation angle TolX            ....  5.000e-05
 DIIS Error             TolErr          ....  1.000e-05

------------------------------
INITIAL GUESS: MODEL POTENTIAL
------------------------------
Loading Hartree-Fock densities                     ... done
Calculating cut-offs                               ... done
Initializing the effective Hamiltonian             ... done
Setting up the integral package (SHARK)            ... done
Starting the Coulomb interaction                   ... done (   0.6 sec)
Making the grid                                    ... done (   0.5 sec)
Mapping shells                                     ... done
Starting the XC term evaluation                    ... done (   0.6 sec)
  promolecular density results
     # of electrons  =    185.992516182
     EX              =   -175.645078450
     EC              =     -6.399369714
     EX+EC           =   -182.044448164
Transforming the Hamiltonian                       ... done (   0.1 sec)
Diagonalizing the Hamiltonian                      ... done (   0.2 sec)
Back transforming the eigenvectors                 ... done (   0.0 sec)
Now organizing SCF variables                       ... done
                      ------------------
                      INITIAL GUESS DONE (   2.1 sec)
                      ------------------
             **** ENERGY FILE WAS UPDATED (data/single_point_PO_M06-2x/300563/300563.en.tmp) ****
Finished Guess after   2.4 sec
Maximum memory used throughout the entire GUESS-calculation: 63.6 MB


           ************************************************************
           *        Program running with 6 parallel MPI-processes     *
           *              working on a common directory               *
           ************************************************************

-------------------------------------------------------------------------------------------
                                      ORCA LEAN-SCF
                              memory conserving SCF solver
-------------------------------------------------------------------------------------------

----------------------------------------D-I-I-S--------------------------------------------
Iteration    Energy (Eh)           Delta-E    RMSDP     MaxDP     DIISErr   Damp  Time(sec)
-------------------------------------------------------------------------------------------
               ***  Starting incremental Fock matrix formation  ***
    1    -1607.2338845979707003     0.00e+00  1.22e-03  1.27e-01  3.67e-01  0.700  21.2
    2    -1607.4488268095933563    -2.15e-01  9.90e-04  1.17e-01  1.55e-01  0.700  12.9
                               ***Turning on AO-DIIS***
    3    -1607.5458033760405669    -9.70e-02  5.48e-04  2.08e-02  4.75e-02  0.700  10.9
    4    -1607.6049717035143658    -5.92e-02  1.28e-03  5.87e-02  3.35e-02  0.000  10.4
    5    -1607.7345621857957667    -1.30e-01  1.27e-04  1.55e-02  1.05e-02  0.000  11.0
                              *** Initializing SOSCF ***
---------------------------------------S-O-S-C-F--------------------------------------
Iteration    Energy (Eh)           Delta-E    RMSDP     MaxDP     MaxGrad    Time(sec)
--------------------------------------------------------------------------------------
    6    -1607.7349896917303340    -4.28e-04  4.24e-05  5.00e-03  1.41e-03     9.7
               *** Restarting incremental Fock matrix formation ***
    7    -1607.7349602362751284     2.95e-05  4.86e-05  1.37e-03  2.58e-04    21.0
    8    -1607.7349638538935324    -3.62e-06  2.19e-05  2.00e-03  2.80e-04    15.0
    9    -1607.7349702660658295    -6.41e-06  1.53e-05  5.44e-04  6.21e-05    13.7
   10    -1607.7349702411934231     2.49e-08  2.89e-06  1.32e-04  4.73e-05    12.7
                 **** Energy Check signals convergence ****

               *****************************************************
               *                     SUCCESS                       *
               *           SCF CONVERGED AFTER  10 CYCLES          *
               *****************************************************

Recomputing exchange energy using gridx3       ... done (   31.470 sec)
Old exchange energy                            :    -96.088269984 Eh
New exchange energy                            :    -96.088225479 Eh
Exchange energy change after final integration :      0.000044505 Eh
Total energy after final integration           :  -1607.734925736 Eh
             **** ENERGY FILE WAS UPDATED (data/single_point_PO_M06-2x/300563/300563.en.tmp) ****

----------------
TOTAL SCF ENERGY
----------------

Total Energy       :      -1607.73492573578073 Eh          -43748.69147 eV

Components:
Nuclear Repulsion  :       2383.23150958793030 Eh           64851.02634 eV
Electronic Energy  :      -3990.96647982912373 Eh         -108599.71902 eV
One Electron Energy:      -6949.31132842089391 Eh         -189100.37492 eV
Two Electron Energy:       2958.34484859177019 Eh           80500.65590 eV

Virial components:
Potential Energy   :      -3208.11726954973346 Eh          -87297.30901 eV
Kinetic Energy     :       1600.38234381395296 Eh           43548.61754 eV
Virial Ratio       :          2.00459426583294

DFT components:
N(Alpha)           :       93.000060880408 electrons
N(Beta)            :       93.000060880408 electrons
N(Total)           :      186.000121760817 electrons
E(XC)              :      -88.996644599748 Eh       

---------------
SCF CONVERGENCE
---------------

  Last Energy change         ...   -2.4872e-08  Tolerance :   1.0000e-06
  Last MAX-Density change    ...    1.3246e-04  Tolerance :   1.0000e-05
  Last RMS-Density change    ...    2.8921e-06  Tolerance :   1.0000e-06
  Last DIIS Error            ...    1.4065e-03  Tolerance :   1.0000e-05
  Last Orbital Gradient      ...    4.7313e-05  Tolerance :   5.0000e-05
  Last Orbital Rotation      ...    5.4256e-05  Tolerance :   5.0000e-05


----------------
ORBITAL ENERGIES
----------------

  NO   OCC          E(Eh)            E(eV) 
   0   2.0000     -78.121213     -2125.7863 
   1   2.0000     -25.303107      -688.5325 
   2   2.0000     -25.299198      -688.4262 
   3   2.0000     -25.298290      -688.4015 
   4   2.0000     -25.294657      -688.3026 
   5   2.0000     -25.284895      -688.0370 
   6   2.0000     -19.580599      -532.8152 
   7   2.0000     -10.686099      -290.7835 
   8   2.0000     -10.683444      -290.7113 
   9   2.0000     -10.681227      -290.6510 
  10   2.0000     -10.677502      -290.5496 
  11   2.0000     -10.675253      -290.4884 
  12   2.0000     -10.600302      -288.4489 
  13   2.0000     -10.573488      -287.7192 
  14   2.0000     -10.572040      -287.6798 
  15   2.0000     -10.571779      -287.6727 
  16   2.0000     -10.571043      -287.6527 
  17   2.0000     -10.570539      -287.6390 
  18   2.0000     -10.569931      -287.6224 
  19   2.0000     -10.568140      -287.5737 
  20   2.0000     -10.568037      -287.5709 
  21   2.0000     -10.567886      -287.5668 
  22   2.0000     -10.565873      -287.5120 
  23   2.0000     -10.565660      -287.5062 
  24   2.0000     -10.565580      -287.5040 
  25   2.0000      -6.926410      -188.4772 
  26   2.0000      -5.043907      -137.2517 
  27   2.0000      -5.043423      -137.2385 
  28   2.0000      -5.041655      -137.1904 
  29   2.0000      -1.425819       -38.7985 
  30   2.0000      -1.417520       -38.5727 
  31   2.0000      -1.410939       -38.3936 
  32   2.0000      -1.404063       -38.2065 
  33   2.0000      -1.397325       -38.0232 
  34   2.0000      -1.078303       -29.3421 
  35   2.0000      -1.015440       -27.6315 
  36   2.0000      -0.976045       -26.5595 
  37   2.0000      -0.972155       -26.4537 
  38   2.0000      -0.904473       -24.6120 
  39   2.0000      -0.892892       -24.2968 
  40   2.0000      -0.871495       -23.7146 
  41   2.0000      -0.859199       -23.3800 
  42   2.0000      -0.858843       -23.3703 
  43   2.0000      -0.854836       -23.2613 
  44   2.0000      -0.786002       -21.3882 
  45   2.0000      -0.772452       -21.0195 
  46   2.0000      -0.736991       -20.0545 
  47   2.0000      -0.706673       -19.2296 
  48   2.0000      -0.706145       -19.2152 
  49   2.0000      -0.701289       -19.0830 
  50   2.0000      -0.696730       -18.9590 
  51   2.0000      -0.694285       -18.8925 
  52   2.0000      -0.683860       -18.6088 
  53   2.0000      -0.649808       -17.6822 
  54   2.0000      -0.644831       -17.5467 
  55   2.0000      -0.641559       -17.4577 
  56   2.0000      -0.637856       -17.3569 
  57   2.0000      -0.620904       -16.8956 
  58   2.0000      -0.615442       -16.7470 
  59   2.0000      -0.609057       -16.5733 
  60   2.0000      -0.600669       -16.3450 
  61   2.0000      -0.594117       -16.1668 
  62   2.0000      -0.586883       -15.9699 
  63   2.0000      -0.580375       -15.7928 
  64   2.0000      -0.564762       -15.3680 
  65   2.0000      -0.559948       -15.2370 
  66   2.0000      -0.548156       -14.9161 
  67   2.0000      -0.543582       -14.7916 
  68   2.0000      -0.536166       -14.5898 
  69   2.0000      -0.530734       -14.4420 
  70   2.0000      -0.522473       -14.2172 
  71   2.0000      -0.516777       -14.0622 
  72   2.0000      -0.504554       -13.7296 
  73   2.0000      -0.503275       -13.6948 
  74   2.0000      -0.501090       -13.6353 
  75   2.0000      -0.485781       -13.2188 
  76   2.0000      -0.479418       -13.0456 
  77   2.0000      -0.467051       -12.7091 
  78   2.0000      -0.456271       -12.4158 
  79   2.0000      -0.448914       -12.2156 
  80   2.0000      -0.445687       -12.1278 
  81   2.0000      -0.427174       -11.6240 
  82   2.0000      -0.422758       -11.5038 
  83   2.0000      -0.417745       -11.3674 
  84   2.0000      -0.414914       -11.2904 
  85   2.0000      -0.355671        -9.6783 
  86   2.0000      -0.353704        -9.6248 
  87   2.0000      -0.342147        -9.3103 
  88   2.0000      -0.328764        -8.9461 
  89   2.0000      -0.328104        -8.9282 
  90   2.0000      -0.326693        -8.8898 
  91   2.0000      -0.323192        -8.7945 
  92   2.0000      -0.322934        -8.7875 
  93   0.0000      -0.035771        -0.9734 
  94   0.0000      -0.019112        -0.5201 
  95   0.0000      -0.014900        -0.4055 
  96   0.0000      -0.005650        -0.1537 
  97   0.0000      -0.003133        -0.0853 
  98   0.0000       0.009399         0.2558 
  99   0.0000       0.021674         0.5898 
 100   0.0000       0.067310         1.8316 
 101   0.0000       0.072126         1.9627 
 102   0.0000       0.076744         2.0883 
 103   0.0000       0.091668         2.4944 
*Only the first 10 virtual orbitals were printed.

                    ********************************
                    * MULLIKEN POPULATION ANALYSIS *
                    ********************************

-----------------------
MULLIKEN ATOMIC CHARGES
-----------------------
   0 C :   -0.126708
   1 C :   -0.144747
   2 C :   -0.177030
   3 C :   -0.059736
   4 C :   -0.123984
   5 C :   -0.161100
   6 P :    0.672817
   7 O :   -0.549257
   8 C :   -0.124150
   9 C :   -0.131341
  10 C :   -0.136960
  11 C :   -0.134063
  12 C :   -0.140959
  13 C :   -0.212661
  14 C :   -0.215266
  15 C :    0.234011
  16 C :    0.142491
  17 C :    0.174195
  18 C :    0.152332
  19 C :    0.183204
  20 F :   -0.181147
  21 F :   -0.164646
  22 F :   -0.158161
  23 F :   -0.161970
  24 F :   -0.142931
  25 H :    0.152012
  26 H :    0.152554
  27 H :    0.175012
  28 H :    0.189829
  29 H :    0.150887
  30 H :    0.199067
  31 H :    0.154371
  32 H :    0.153387
  33 H :    0.153177
  34 H :    0.207475
Sum of atomic charges:   -0.0000000

--------------------------------
MULLIKEN REDUCED ORBITAL CHARGES
--------------------------------
  0 C s       :     3.225359  s :     3.225359
      pz      :     0.937724  p :     2.833615
      px      :     0.945066
      py      :     0.950825
      dz2     :     0.011716  d :     0.061471
      dxz     :     0.007580
      dyz     :     0.012940
      dx2y2   :     0.013706
      dxy     :     0.015529
      f0      :     0.000726  f :     0.006264
      f+1     :     0.001163
      f-1     :     0.000559
      f+2     :     0.000973
      f-2     :     0.000862
      f+3     :     0.001102
      f-3     :     0.000879

  1 C s       :     3.226978  s :     3.226978
      pz      :     0.939577  p :     2.852445
      px      :     0.909728
      py      :     1.003141
      dz2     :     0.014043  d :     0.059011
      dxz     :     0.008873
      dyz     :     0.008434
      dx2y2   :     0.015266
      dxy     :     0.012395
      f0      :     0.000583  f :     0.006314
      f+1     :     0.001353
      f-1     :     0.000631
      f+2     :     0.000777
      f-2     :     0.001029
      f+3     :     0.000819
      f-3     :     0.001123

  2 C s       :     3.240495  s :     3.240495
      pz      :     0.973970  p :     2.864244
      px      :     0.997912
      py      :     0.892362
      dz2     :     0.006463  d :     0.065639
      dxz     :     0.008959
      dyz     :     0.019641
      dx2y2   :     0.016939
      dxy     :     0.013637
      f0      :     0.000779  f :     0.006652
      f+1     :     0.000663
      f-1     :     0.000901
      f+2     :     0.001088
      f-2     :     0.000815
      f+3     :     0.001151
      f-3     :     0.001256

  3 C s       :     3.221890  s :     3.221890
      pz      :     0.923865  p :     2.757128
      px      :     0.933850
      py      :     0.899414
      dz2     :     0.013771  d :     0.073554
      dxz     :     0.008243
      dyz     :     0.017336
      dx2y2   :     0.013016
      dxy     :     0.021189
      f0      :     0.000768  f :     0.007163
      f+1     :     0.001467
      f-1     :     0.000700
      f+2     :     0.001127
      f-2     :     0.000974
      f+3     :     0.001114
      f-3     :     0.001012

  4 C s       :     3.192487  s :     3.192487
      pz      :     0.950057  p :     2.860568
      px      :     0.861696
      py      :     1.048815
      dz2     :     0.014160  d :     0.064405
      dxz     :     0.011101
      dyz     :     0.009026
      dx2y2   :     0.019410
      dxy     :     0.010708
      f0      :     0.000587  f :     0.006525
      f+1     :     0.001360
      f-1     :     0.000632
      f+2     :     0.000814
      f-2     :     0.001116
      f+3     :     0.000829
      f-3     :     0.001188

  5 C s       :     3.236685  s :     3.236685
      pz      :     0.981264  p :     2.858263
      px      :     0.990197
      py      :     0.886802
      dz2     :     0.005127  d :     0.059846
      dxz     :     0.007626
      dyz     :     0.018233
      dx2y2   :     0.012808
      dxy     :     0.016051
      f0      :     0.000798  f :     0.006306
      f+1     :     0.000637
      f-1     :     0.000850
      f+2     :     0.001009
      f-2     :     0.000826
      f+3     :     0.001017
      f-3     :     0.001169

  6 P s       :     5.297902  s :     5.297902
      pz      :     2.628895  p :     8.248217
      px      :     2.789973
      py      :     2.829350
      dz2     :     0.107808  d :     0.716498
      dxz     :     0.197189
      dyz     :     0.235944
      dx2y2   :     0.080886
      dxy     :     0.094671
      f0      :     0.008439  f :     0.064566
      f+1     :     0.017719
      f-1     :     0.017791
      f+2     :     0.006043
      f-2     :     0.005781
      f+3     :     0.004120
      f-3     :     0.004673

  7 O s       :     3.871602  s :     3.871602
      pz      :     1.362988  p :     4.650884
      px      :     1.641710
      py      :     1.646187
      dz2     :     0.009929  d :     0.025469
      dxz     :     0.007732
      dyz     :     0.007419
      dx2y2   :     0.000184
      dxy     :     0.000204
      f0      :     0.000530  f :     0.001302
      f+1     :     0.000370
      f-1     :     0.000359
      f+2     :     0.000020
      f-2     :     0.000022
      f+3     :     0.000001
      f-3     :     0.000001

  8 C s       :     3.253693  s :     3.253693
      pz      :     0.869090  p :     2.788258
      px      :     0.998679
      py      :     0.920488
      dz2     :     0.014886  d :     0.075093
      dxz     :     0.020120
      dyz     :     0.019964
      dx2y2   :     0.010673
      dxy     :     0.009449
      f0      :     0.000974  f :     0.007106
      f+1     :     0.001293
      f-1     :     0.001836
      f+2     :     0.000732
      f-2     :     0.000549
      f+3     :     0.000795
      f-3     :     0.000927

  9 C s       :     3.206202  s :     3.206202
      pz      :     1.050776  p :     2.855788
      px      :     0.909634
      py      :     0.895379
      dz2     :     0.015041  d :     0.062885
      dxz     :     0.005725
      dyz     :     0.013831
      dx2y2   :     0.011169
      dxy     :     0.017119
      f0      :     0.000761  f :     0.006465
      f+1     :     0.000253
      f-1     :     0.001534
      f+2     :     0.000900
      f-2     :     0.000832
      f+3     :     0.001061
      f-3     :     0.001124

 10 C s       :     3.227918  s :     3.227918
      pz      :     0.912703  p :     2.843553
      px      :     0.962986
      py      :     0.967864
      dz2     :     0.011729  d :     0.059239
      dxz     :     0.015040
      dyz     :     0.014964
      dx2y2   :     0.007654
      dxy     :     0.009853
      f0      :     0.000880  f :     0.006250
      f+1     :     0.001106
      f-1     :     0.001556
      f+2     :     0.000616
      f-2     :     0.000495
      f+3     :     0.000850
      f-3     :     0.000746

 11 C s       :     3.229821  s :     3.229821
      pz      :     0.906104  p :     2.836530
      px      :     0.940709
      py      :     0.989717
      dz2     :     0.012290  d :     0.061462
      dxz     :     0.017221
      dyz     :     0.016565
      dx2y2   :     0.008193
      dxy     :     0.007194
      f0      :     0.000946  f :     0.006251
      f+1     :     0.001158
      f-1     :     0.001512
      f+2     :     0.000715
      f-2     :     0.000518
      f+3     :     0.000640
      f-3     :     0.000763

 12 C s       :     3.226724  s :     3.226724
      pz      :     1.005556  p :     2.848600
      px      :     0.949856
      py      :     0.893189
      dz2     :     0.013263  d :     0.059350
      dxz     :     0.005689
      dyz     :     0.013857
      dx2y2   :     0.010526
      dxy     :     0.016015
      f0      :     0.000797  f :     0.006285
      f+1     :     0.000273
      f-1     :     0.001364
      f+2     :     0.000907
      f-2     :     0.000826
      f+3     :     0.001027
      f-3     :     0.001091

 13 C s       :     3.197936  s :     3.197936
      pz      :     0.896911  p :     2.942568
      px      :     0.987095
      py      :     1.058562
      dz2     :     0.012696  d :     0.065693
      dxz     :     0.016412
      dyz     :     0.018238
      dx2y2   :     0.007156
      dxy     :     0.011190
      f0      :     0.000874  f :     0.006465
      f+1     :     0.001092
      f-1     :     0.001659
      f+2     :     0.000640
      f-2     :     0.000507
      f+3     :     0.000899
      f-3     :     0.000794

 14 C s       :     3.248595  s :     3.248595
      pz      :     0.886509  p :     2.896609
      px      :     0.957398
      py      :     1.052702
      dz2     :     0.016094  d :     0.063067
      dxz     :     0.010265
      dyz     :     0.013306
      dx2y2   :     0.010262
      dxy     :     0.013140
      f0      :     0.001126  f :     0.006995
      f+1     :     0.001146
      f-1     :     0.000947
      f+2     :     0.001192
      f-2     :     0.001006
      f+3     :     0.000715
      f-3     :     0.000864

 15 C s       :     3.091137  s :     3.091137
      pz      :     0.696677  p :     2.453476
      px      :     0.874739
      py      :     0.882060
      dz2     :     0.048850  d :     0.203837
      dxz     :     0.063649
      dyz     :     0.032190
      dx2y2   :     0.023247
      dxy     :     0.035902
      f0      :     0.003825  f :     0.017540
      f+1     :     0.003776
      f-1     :     0.002194
      f+2     :     0.002254
      f-2     :     0.002498
      f+3     :     0.001559
      f-3     :     0.001433

 16 C s       :     3.103684  s :     3.103684
      pz      :     0.799673  p :     2.555135
      px      :     0.740763
      py      :     1.014698
      dz2     :     0.055566  d :     0.181608
      dxz     :     0.026750
      dyz     :     0.029410
      dx2y2   :     0.032757
      dxy     :     0.037125
      f0      :     0.002083  f :     0.017081
      f+1     :     0.003979
      f-1     :     0.001244
      f+2     :     0.002355
      f-2     :     0.003239
      f+3     :     0.002096
      f-3     :     0.002085

 17 C s       :     3.094078  s :     3.094078
      pz      :     0.897459  p :     2.528137
      px      :     0.656620
      py      :     0.974058
      dz2     :     0.031932  d :     0.186303
      dxz     :     0.056465
      dyz     :     0.021895
      dx2y2   :     0.030866
      dxy     :     0.045145
      f0      :     0.002090  f :     0.017288
      f+1     :     0.003279
      f-1     :     0.001212
      f+2     :     0.002485
      f-2     :     0.002294
      f+3     :     0.003034
      f-3     :     0.002893

 18 C s       :     3.095396  s :     3.095396
      pz      :     0.690499  p :     2.552974
      px      :     0.898658
      py      :     0.963816
      dz2     :     0.040389  d :     0.182216
      dxz     :     0.063360
      dyz     :     0.031119
      dx2y2   :     0.017441
      dxy     :     0.029907
      f0      :     0.003714  f :     0.017082
      f+1     :     0.003366
      f-1     :     0.002231
      f+2     :     0.002490
      f-2     :     0.002355
      f+3     :     0.001483
      f-3     :     0.001443

 19 C s       :     3.099673  s :     3.099673
      pz      :     0.808089  p :     2.508490
      px      :     0.715402
      py      :     0.985000
      dz2     :     0.052548  d :     0.191403
      dxz     :     0.039403
      dyz     :     0.028682
      dx2y2   :     0.031064
      dxy     :     0.039706
      f0      :     0.002603  f :     0.017230
      f+1     :     0.003648
      f-1     :     0.001370
      f+2     :     0.002472
      f-2     :     0.003381
      f+3     :     0.001821
      f-3     :     0.001935

 20 F s       :     3.936448  s :     3.936448
      pz      :     1.695446  p :     5.228336
      px      :     1.651174
      py      :     1.881717
      dz2     :     0.002727  d :     0.015642
      dxz     :     0.006073
      dyz     :     0.001890
      dx2y2   :     0.002587
      dxy     :     0.002365
      f0      :     0.000076  f :     0.000721
      f+1     :     0.000202
      f-1     :     0.000023
      f+2     :     0.000196
      f-2     :     0.000116
      f+3     :     0.000055
      f-3     :     0.000053

 21 F s       :     3.922796  s :     3.922796
      pz      :     1.516792  p :     5.225168
      px      :     1.899200
      py      :     1.809176
      dz2     :     0.006097  d :     0.015929
      dxz     :     0.003035
      dyz     :     0.005196
      dx2y2   :     0.000879
      dxy     :     0.000721
      f0      :     0.000198  f :     0.000754
      f+1     :     0.000121
      f-1     :     0.000265
      f+2     :     0.000080
      f-2     :     0.000075
      f+3     :     0.000007
      f-3     :     0.000007

 22 F s       :     3.922650  s :     3.922650
      pz      :     1.875068  p :     5.218603
      px      :     1.489225
      py      :     1.854309
      dz2     :     0.002089  d :     0.016142
      dxz     :     0.004026
      dyz     :     0.000532
      dx2y2   :     0.005203
      dxy     :     0.004292
      f0      :     0.000079  f :     0.000766
      f+1     :     0.000127
      f-1     :     0.000014
      f+2     :     0.000125
      f-2     :     0.000060
      f+3     :     0.000176
      f-3     :     0.000184

 23 F s       :     3.922624  s :     3.922624
      pz      :     1.718257  p :     5.222591
      px      :     1.627195
      py      :     1.877140
      dz2     :     0.002551  d :     0.015997
      dxz     :     0.006207
      dyz     :     0.001709
      dx2y2   :     0.002938
      dxy     :     0.002593
      f0      :     0.000081  f :     0.000757
      f+1     :     0.000185
      f-1     :     0.000017
      f+2     :     0.000212
      f-2     :     0.000122
      f+3     :     0.000071
      f-3     :     0.000068

 24 F s       :     3.923621  s :     3.923621
      pz      :     1.511144  p :     5.201921
      px      :     1.904248
      py      :     1.786529
      dz2     :     0.006291  d :     0.016610
      dxz     :     0.003018
      dyz     :     0.005534
      dx2y2   :     0.001022
      dxy     :     0.000745
      f0      :     0.000203  f :     0.000779
      f+1     :     0.000107
      f-1     :     0.000287
      f+2     :     0.000093
      f-2     :     0.000071
      f+3     :     0.000008
      f-3     :     0.000008

 25 H s       :     0.828281  s :     0.828281
      pz      :     0.004476  p :     0.019708
      px      :     0.006724
      py      :     0.008508

 26 H s       :     0.827682  s :     0.827682
      pz      :     0.003936  p :     0.019764
      px      :     0.003506
      py      :     0.012322

 27 H s       :     0.805119  s :     0.805119
      pz      :     0.006682  p :     0.019869
      px      :     0.010044
      py      :     0.003144

 28 H s       :     0.789802  s :     0.789802
      pz      :     0.003804  p :     0.020370
      px      :     0.003529
      py      :     0.013037

 29 H s       :     0.829349  s :     0.829349
      pz      :     0.006460  p :     0.019764
      px      :     0.010193
      py      :     0.003111

 30 H s       :     0.780127  s :     0.780127
      pz      :     0.014157  p :     0.020806
      px      :     0.003384
      py      :     0.003265

 31 H s       :     0.825808  s :     0.825808
      pz      :     0.006182  p :     0.019821
      px      :     0.004567
      py      :     0.009072

 32 H s       :     0.826912  s :     0.826912
      pz      :     0.004567  p :     0.019702
      px      :     0.004101
      py      :     0.011034

 33 H s       :     0.827056  s :     0.827056
      pz      :     0.013146  p :     0.019767
      px      :     0.003743
      py      :     0.002878

 34 H s       :     0.771981  s :     0.771981
      pz      :     0.006299  p :     0.020544
      px      :     0.004535
      py      :     0.009710



                     *******************************
                     * LOEWDIN POPULATION ANALYSIS *
                     *******************************

----------------------
LOEWDIN ATOMIC CHARGES
----------------------
   0 C :   -0.125426
   1 C :   -0.132886
   2 C :   -0.119648
   3 C :   -0.232790
   4 C :   -0.121847
   5 C :   -0.133538
   6 P :    0.687432
   7 O :   -0.280383
   8 C :   -0.240477
   9 C :   -0.111761
  10 C :   -0.132577
  11 C :   -0.126339
  12 C :   -0.137852
  13 C :   -0.132868
  14 C :   -0.181795
  15 C :   -0.229152
  16 C :   -0.221306
  17 C :   -0.210775
  18 C :   -0.224551
  19 C :   -0.236672
  20 F :    0.211232
  21 F :    0.215202
  22 F :    0.225896
  23 F :    0.218038
  24 F :    0.236066
  25 H :    0.150222
  26 H :    0.150911
  27 H :    0.156809
  28 H :    0.158025
  29 H :    0.150511
  30 H :    0.164066
  31 H :    0.151294
  32 H :    0.150300
  33 H :    0.150615
  34 H :    0.156024

-------------------------------
LOEWDIN REDUCED ORBITAL CHARGES
-------------------------------
  0 C s       :     2.779379  s :     2.779379
      pz      :     0.918506  p :     2.932184
      px      :     0.985067
      py      :     1.028611
      dz2     :     0.046308  d :     0.373384
      dxz     :     0.044260
      dyz     :     0.073528
      dx2y2   :     0.081654
      dxy     :     0.127635
      f0      :     0.004254  f :     0.040478
      f+1     :     0.004213
      f-1     :     0.003572
      f+2     :     0.006448
      f-2     :     0.005763
      f+3     :     0.008435
      f-3     :     0.007794

  1 C s       :     2.777500  s :     2.777500
      pz      :     0.932447  p :     2.942597
      px      :     1.009913
      py      :     1.000238
      dz2     :     0.052701  d :     0.372158
      dxz     :     0.062343
      dyz     :     0.049819
      dx2y2   :     0.118057
      dxy     :     0.089237
      f0      :     0.003776  f :     0.040631
      f+1     :     0.004429
      f-1     :     0.004088
      f+2     :     0.005037
      f-2     :     0.007545
      f+3     :     0.006966
      f-3     :     0.008791

  2 C s       :     2.774182  s :     2.774182
      pz      :     0.906438  p :     2.922390
      px      :     0.965235
      py      :     1.050717
      dz2     :     0.029687  d :     0.381868
      dxz     :     0.045048
      dyz     :     0.083626
      dx2y2   :     0.122525
      dxy     :     0.100982
      f0      :     0.003651  f :     0.041209
      f+1     :     0.001605
      f-1     :     0.006593
      f+2     :     0.004856
      f-2     :     0.006357
      f+3     :     0.008440
      f-3     :     0.009707

  3 C s       :     2.769774  s :     2.769774
      pz      :     0.942803  p :     2.986374
      px      :     1.002014
      py      :     1.041556
      dz2     :     0.055571  d :     0.432646
      dxz     :     0.053879
      dyz     :     0.087754
      dx2y2   :     0.096610
      dxy     :     0.138833
      f0      :     0.004463  f :     0.043996
      f+1     :     0.004563
      f-1     :     0.003976
      f+2     :     0.006905
      f-2     :     0.006389
      f+3     :     0.009011
      f-3     :     0.008690

  4 C s       :     2.774560  s :     2.774560
      pz      :     0.918114  p :     2.925176
      px      :     0.999929
      py      :     1.007133
      dz2     :     0.055285  d :     0.381056
      dxz     :     0.063692
      dyz     :     0.049593
      dx2y2   :     0.121677
      dxy     :     0.090809
      f0      :     0.003781  f :     0.041055
      f+1     :     0.004582
      f-1     :     0.004124
      f+2     :     0.005092
      f-2     :     0.007463
      f+3     :     0.007103
      f-3     :     0.008908

  5 C s       :     2.777621  s :     2.777621
      pz      :     0.915776  p :     2.943476
      px      :     0.965240
      py      :     1.062460
      dz2     :     0.028367  d :     0.371920
      dxz     :     0.043463
      dyz     :     0.079963
      dx2y2   :     0.120111
      dxy     :     0.100017
      f0      :     0.003602  f :     0.040522
      f+1     :     0.001547
      f-1     :     0.006323
      f+2     :     0.004698
      f-2     :     0.006391
      f+3     :     0.008283
      f-3     :     0.009677

  6 P s       :     4.644522  s :     4.644522
      pz      :     2.731932  p :     8.251085
      px      :     2.742817
      py      :     2.776336
      dz2     :     0.251069  d :     1.197569
      dxz     :     0.287329
      dyz     :     0.341932
      dx2y2   :     0.156571
      dxy     :     0.160668
      f0      :     0.040682  f :     0.219392
      f+1     :     0.053457
      f-1     :     0.054443
      f+2     :     0.020548
      f-2     :     0.019553
      f+3     :     0.014677
      f-3     :     0.016032

  7 O s       :     3.539394  s :     3.539394
      pz      :     1.521992  p :     4.695957
      px      :     1.584393
      py      :     1.589573
      dz2     :     0.025059  d :     0.042854
      dxz     :     0.008536
      dyz     :     0.008574
      dx2y2   :     0.000358
      dxy     :     0.000328
      f0      :     0.001165  f :     0.002177
      f+1     :     0.000449
      f-1     :     0.000480
      f+2     :     0.000038
      f-2     :     0.000039
      f+3     :     0.000003
      f-3     :     0.000002

  8 C s       :     2.769341  s :     2.769341
      pz      :     1.060752  p :     2.993087
      px      :     0.913060
      py      :     1.019274
      dz2     :     0.114042  d :     0.434386
      dxz     :     0.078261
      dyz     :     0.149193
      dx2y2   :     0.053939
      dxy     :     0.038951
      f0      :     0.007125  f :     0.043663
      f+1     :     0.006221
      f-1     :     0.014528
      f+2     :     0.004635
      f-2     :     0.004307
      f+3     :     0.003329
      f-3     :     0.003519

  9 C s       :     2.776791  s :     2.776791
      pz      :     1.007826  p :     2.914313
      px      :     0.869117
      py      :     1.037369
      dz2     :     0.114639  d :     0.379571
      dxz     :     0.021062
      dyz     :     0.097408
      dx2y2   :     0.071754
      dxy     :     0.074709
      f0      :     0.004008  f :     0.041085
      f+1     :     0.001512
      f-1     :     0.012358
      f+2     :     0.006876
      f-2     :     0.006736
      f+3     :     0.005005
      f-3     :     0.004591

 10 C s       :     2.778045  s :     2.778045
      pz      :     1.041891  p :     2.943443
      px      :     0.892996
      py      :     1.008557
      dz2     :     0.090263  d :     0.370709
      dxz     :     0.058880
      dyz     :     0.146593
      dx2y2   :     0.037035
      dxy     :     0.037938
      f0      :     0.007030  f :     0.040380
      f+1     :     0.005982
      f-1     :     0.013041
      f+2     :     0.004113
      f-2     :     0.002654
      f+3     :     0.004032
      f-3     :     0.003528

 11 C s       :     2.779942  s :     2.779942
      pz      :     1.055427  p :     2.932263
      px      :     0.881913
      py      :     0.994923
      dz2     :     0.104828  d :     0.373745
      dxz     :     0.070405
      dyz     :     0.129062
      dx2y2   :     0.041841
      dxy     :     0.027609
      f0      :     0.007149  f :     0.040389
      f+1     :     0.006061
      f-1     :     0.012726
      f+2     :     0.004333
      f-2     :     0.004034
      f+3     :     0.002975
      f-3     :     0.003110

 12 C s       :     2.777909  s :     2.777909
      pz      :     0.993981  p :     2.946807
      px      :     0.903587
      py      :     1.049240
      dz2     :     0.115912  d :     0.372646
      dxz     :     0.020385
      dyz     :     0.095469
      dx2y2   :     0.069397
      dxy     :     0.071483
      f0      :     0.004182  f :     0.040489
      f+1     :     0.001568
      f-1     :     0.012063
      f+2     :     0.006693
      f-2     :     0.006418
      f+3     :     0.005031
      f-3     :     0.004533

 13 C s       :     2.775366  s :     2.775366
      pz      :     1.031945  p :     2.935429
      px      :     0.887482
      py      :     1.016001
      dz2     :     0.089864  d :     0.381086
      dxz     :     0.064496
      dyz     :     0.148492
      dx2y2   :     0.037876
      dxy     :     0.040358
      f0      :     0.006992  f :     0.040987
      f+1     :     0.006378
      f-1     :     0.013034
      f+2     :     0.004106
      f-2     :     0.002663
      f+3     :     0.004135
      f-3     :     0.003679

 14 C s       :     2.773739  s :     2.773739
      pz      :     1.005989  p :     2.988115
      px      :     1.035174
      py      :     0.946952
      dz2     :     0.096100  d :     0.378163
      dxz     :     0.102218
      dyz     :     0.065321
      dx2y2   :     0.062058
      dxy     :     0.052466
      f0      :     0.006562  f :     0.041779
      f+1     :     0.009475
      f-1     :     0.005429
      f+2     :     0.006124
      f-2     :     0.006610
      f+3     :     0.003753
      f-3     :     0.003825

 15 C s       :     2.726251  s :     2.726251
      pz      :     0.799256  p :     2.700810
      px      :     1.039734
      py      :     0.861820
      dz2     :     0.183332  d :     0.690472
      dxz     :     0.179788
      dyz     :     0.126423
      dx2y2   :     0.092647
      dxy     :     0.108282
      f0      :     0.024118  f :     0.111619
      f+1     :     0.024271
      f-1     :     0.019336
      f+2     :     0.012605
      f-2     :     0.015499
      f+3     :     0.008960
      f-3     :     0.006830

 16 C s       :     2.724106  s :     2.724106
      pz      :     0.911749  p :     2.733801
      px      :     0.880124
      py      :     0.941928
      dz2     :     0.155982  d :     0.654823
      dxz     :     0.176635
      dyz     :     0.092275
      dx2y2   :     0.115733
      dxy     :     0.114198
      f0      :     0.014261  f :     0.108576
      f+1     :     0.027221
      f-1     :     0.007127
      f+2     :     0.017081
      f-2     :     0.019641
      f+3     :     0.012243
      f-3     :     0.011001

 17 C s       :     2.724806  s :     2.724806
      pz      :     1.004534  p :     2.710790
      px      :     0.797726
      py      :     0.908529
      dz2     :     0.131305  d :     0.665139
      dxz     :     0.186197
      dyz     :     0.080177
      dx2y2   :     0.130922
      dxy     :     0.136538
      f0      :     0.014201  f :     0.110041
      f+1     :     0.023143
      f-1     :     0.006961
      f+2     :     0.014584
      f-2     :     0.014551
      f+3     :     0.018910
      f-3     :     0.017691

 18 C s       :     2.722842  s :     2.722842
      pz      :     0.798860  p :     2.736369
      px      :     1.033463
[...]
      dxz     :     0.011074
      dyz     :     0.004026
      dx2y2   :     0.005131
      dxy     :     0.005068
      f0      :     0.000171  f :     0.001463
      f+1     :     0.000395
      f-1     :     0.000053
      f+2     :     0.000334
      f-2     :     0.000267
      f+3     :     0.000122
      f-3     :     0.000122

 21 F s       :     3.587387  s :     3.587387
      pz      :     1.574067  p :     5.163733
      px      :     1.821281
      py      :     1.768385
      dz2     :     0.011895  d :     0.032137
      dxz     :     0.006548
      dyz     :     0.010223
      dx2y2   :     0.001927
      dxy     :     0.001544
      f0      :     0.000437  f :     0.001541
      f+1     :     0.000271
      f-1     :     0.000444
      f+2     :     0.000185
      f-2     :     0.000169
      f+3     :     0.000019
      f-3     :     0.000016

 22 F s       :     3.584833  s :     3.584833
      pz      :     1.805053  p :     5.155467
      px      :     1.555748
      py      :     1.794666
      dz2     :     0.004063  d :     0.032247
      dxz     :     0.008347
      dyz     :     0.001123
      dx2y2   :     0.009816
      dxy     :     0.008898
      f0      :     0.000150  f :     0.001557
      f+1     :     0.000270
      f-1     :     0.000031
      f+2     :     0.000249
      f-2     :     0.000135
      f+3     :     0.000359
      f-3     :     0.000364

 23 F s       :     3.586702  s :     3.586702
      pz      :     1.704061  p :     5.161459
      px      :     1.645293
      py      :     1.812105
      dz2     :     0.005713  d :     0.032252
      dxz     :     0.011306
      dyz     :     0.003738
      dx2y2   :     0.005727
      dxy     :     0.005768
      f0      :     0.000163  f :     0.001549
      f+1     :     0.000397
      f-1     :     0.000040
      f+2     :     0.000355
      f-2     :     0.000287
      f+3     :     0.000148
      f-3     :     0.000159

 24 F s       :     3.583066  s :     3.583066
      pz      :     1.572580  p :     5.146721
      px      :     1.824013
      py      :     1.750128
      dz2     :     0.012015  d :     0.032577
      dxz     :     0.006487
      dyz     :     0.010466
      dx2y2   :     0.001995
      dxy     :     0.001614
      f0      :     0.000430  f :     0.001570
      f+1     :     0.000261
      f-1     :     0.000475
      f+2     :     0.000190
      f-2     :     0.000176
      f+3     :     0.000020
      f-3     :     0.000018

 25 H s       :     0.793922  s :     0.793922
      pz      :     0.013538  p :     0.055856
      px      :     0.019011
      py      :     0.023307

 26 H s       :     0.793095  s :     0.793095
      pz      :     0.012447  p :     0.055994
      px      :     0.011592
      py      :     0.031955

 27 H s       :     0.786586  s :     0.786586
      pz      :     0.018884  p :     0.056606
      px      :     0.026949
      py      :     0.010772

 28 H s       :     0.783989  s :     0.783989
      pz      :     0.012496  p :     0.057986
      px      :     0.011508
      py      :     0.033982

 29 H s       :     0.793492  s :     0.793492
      pz      :     0.018195  p :     0.055998
      px      :     0.026915
      py      :     0.010888

 30 H s       :     0.776956  s :     0.776956
      pz      :     0.037287  p :     0.058977
      px      :     0.010986
      py      :     0.010704

 31 H s       :     0.792655  s :     0.792655
      pz      :     0.017896  p :     0.056051
      px      :     0.013692
      py      :     0.024463

 32 H s       :     0.793854  s :     0.793854
      pz      :     0.014245  p :     0.055845
      px      :     0.012530
      py      :     0.029071

 33 H s       :     0.793341  s :     0.793341
      pz      :     0.033930  p :     0.056045
      px      :     0.011880
      py      :     0.010234

 34 H s       :     0.785348  s :     0.785348
      pz      :     0.018348  p :     0.058628
      px      :     0.014059
      py      :     0.026220



                      *****************************
                      * MAYER POPULATION ANALYSIS *
                      *****************************

  NA   - Mulliken gross atomic population
  ZA   - Total nuclear charge
  QA   - Mulliken gross atomic charge
  VA   - Mayer's total valence
  BVA  - Mayer's bonded valence
  FA   - Mayer's free valence

  ATOM       NA         ZA         QA         VA         BVA        FA
  0 C      6.1267     6.0000    -0.1267     3.9305     3.9305    -0.0000
  1 C      6.1447     6.0000    -0.1447     3.9581     3.9581    -0.0000
  2 C      6.1770     6.0000    -0.1770     3.9626     3.9626    -0.0000
  3 C      6.0597     6.0000    -0.0597     3.8094     3.8094    -0.0000
  4 C      6.1240     6.0000    -0.1240     3.8978     3.8978     0.0000
  5 C      6.1611     6.0000    -0.1611     3.9781     3.9781    -0.0000
  6 P     14.3272    15.0000     0.6728     4.9359     4.9359    -0.0000
  7 O      8.5493     8.0000    -0.5493     2.0319     2.0319    -0.0000
  8 C      6.1242     6.0000    -0.1242     3.7368     3.7368     0.0000
  9 C      6.1313     6.0000    -0.1313     3.9368     3.9368     0.0000
 10 C      6.1370     6.0000    -0.1370     3.9116     3.9116     0.0000
 11 C      6.1341     6.0000    -0.1341     3.9429     3.9429    -0.0000
 12 C      6.1410     6.0000    -0.1410     3.9912     3.9912     0.0000
 13 C      6.2127     6.0000    -0.2127     3.9117     3.9117     0.0000
 14 C      6.2153     6.0000    -0.2153     3.5512     3.5512    -0.0000
 15 C      5.7660     6.0000     0.2340     3.9578     3.9578    -0.0000
 16 C      5.8575     6.0000     0.1425     4.0111     4.0111    -0.0000
 17 C      5.8258     6.0000     0.1742     3.9493     3.9493     0.0000
 18 C      5.8477     6.0000     0.1523     4.0355     4.0355     0.0000
 19 C      5.8168     6.0000     0.1832     3.8525     3.8525     0.0000
 20 F      9.1811     9.0000    -0.1811     1.0632     1.0632    -0.0000
 21 F      9.1646     9.0000    -0.1646     1.1103     1.1103    -0.0000
 22 F      9.1582     9.0000    -0.1582     1.1188     1.1188     0.0000
 23 F      9.1620     9.0000    -0.1620     1.1100     1.1100    -0.0000
 24 F      9.1429     9.0000    -0.1429     1.1394     1.1394    -0.0000
 25 H      0.8480     1.0000     0.1520     0.9628     0.9628    -0.0000
 26 H      0.8474     1.0000     0.1526     0.9639     0.9639     0.0000
 27 H      0.8250     1.0000     0.1750     0.9562     0.9562    -0.0000
 28 H      0.8102     1.0000     0.1898     0.9443     0.9443     0.0000
 29 H      0.8491     1.0000     0.1509     0.9655     0.9655     0.0000
 30 H      0.8009     1.0000     0.1991     0.9723     0.9723     0.0000
 31 H      0.8456     1.0000     0.1544     0.9651     0.9651     0.0000
 32 H      0.8466     1.0000     0.1534     0.9624     0.9624     0.0000
 33 H      0.8468     1.0000     0.1532     0.9652     0.9652    -0.0000
 34 H      0.7925     1.0000     0.2075     0.9481     0.9481    -0.0000

  Mayer bond orders larger than 0.100000
B(  0-C ,  1-C ) :   1.4242 B(  0-C ,  5-C ) :   1.4444 B(  0-C , 25-H ) :   0.9437 
B(  1-C ,  2-C ) :   1.4707 B(  1-C , 26-H ) :   0.9425 B(  2-C ,  3-C ) :   1.3722 
B(  2-C , 27-H ) :   0.9346 B(  3-C ,  4-C ) :   1.3727 B(  3-C ,  6-P ) :   0.9596 
B(  4-C ,  5-C ) :   1.4565 B(  4-C , 28-H ) :   0.9169 B(  5-C , 29-H ) :   0.9422 
B(  6-P ,  7-O ) :   2.0161 B(  6-P ,  8-C ) :   0.9087 B(  6-P , 14-C ) :   0.8331 
B(  8-C ,  9-C ) :   1.4208 B(  8-C , 13-C ) :   1.3437 B(  9-C , 10-C ) :   1.4252 
B(  9-C , 30-H ) :   0.9051 B( 10-C , 11-C ) :   1.4401 B( 10-C , 31-H ) :   0.9478 
B( 11-C , 12-C ) :   1.4321 B( 11-C , 32-H ) :   0.9456 B( 12-C , 13-C ) :   1.4982 
B( 12-C , 33-H ) :   0.9440 B( 13-C , 34-H ) :   0.8958 B( 14-C , 15-C ) :   1.2947 
B( 14-C , 19-C ) :   1.3100 B( 15-C , 16-C ) :   1.4183 B( 15-C , 24-F ) :   1.0812 
B( 16-C , 17-C ) :   1.3919 B( 16-C , 23-F ) :   1.0487 B( 17-C , 18-C ) :   1.3913 
B( 17-C , 22-F ) :   1.0441 B( 18-C , 19-C ) :   1.4288 B( 18-C , 21-F ) :   1.0667 
B( 19-C , 20-F ) :   0.9763 

-------
TIMINGS
-------

Total SCF time: 0 days 0 hours 2 min 51 sec 

Total time                  ....     171.047 sec
Sum of individual times     ....     171.143 sec  (100.1%)

SCF preparation             ....       0.406 sec  (  0.2%)
Fock matrix formation       ....     164.934 sec  ( 96.4%)
  Startup                   ....       0.187 sec  (  0.1% of F)
  Split-RI-J                ....      12.602 sec  (  7.6% of F)
  Chain of spheres X        ....     118.306 sec  ( 71.7% of F)
  XC integration            ....      33.356 sec  ( 20.2% of F)
    Basis function eval.    ....       4.968 sec  ( 14.9% of XC)
    Density eval.           ....      14.578 sec  ( 43.7% of XC)
    XC-Functional eval.     ....       0.518 sec  (  1.6% of XC)
    XC-Potential eval.      ....      11.928 sec  ( 35.8% of XC)
Diagonalization             ....       0.000 sec  (  0.0%)
Density matrix formation    ....       0.498 sec  (  0.3%)
Total Energy calculation    ....       0.170 sec  (  0.1%)
Population analysis         ....       0.284 sec  (  0.2%)
Orbital Transformation      ....       0.701 sec  (  0.4%)
Orbital Orthonormalization  ....       0.000 sec  (  0.0%)
DIIS solution               ....       2.870 sec  (  1.7%)
SOSCF solution              ....       1.280 sec  (  0.7%)
Finished LeanSCF after 171.1 sec

Maximum memory used throughout the entire LEANSCF-calculation: 119.3 MB


-------------------------------------------------------------------------------
                          DFT DISPERSION CORRECTION                            
                                                                               
                              DFTD3 V3.1  Rev 1                                
                              USING zero damping                               
-------------------------------------------------------------------------------
The M062X functional is recognized
Active option DFTDOPT                   ...         3   

molecular C6(AA) [au] = 18475.726124 


            DFT-D V3
 parameters
 s6 scaling factor         :     1.0000 
 rs6 scaling factor        :     1.6190 
 s8 scaling factor         :     0.0000 
 rs8 scaling factor        :     1.0000 
 Damping factor alpha6     :    14.0000 
 Damping factor alpha8     :    16.0000 
 ad hoc parameters k1-k3   :    16.0000     1.3333    -4.0000 

 Edisp/kcal,au: -1.555302865045  -0.002478532617 
 E6   /kcal   :  -1.555302865 
 E8   /kcal   :  -0.000000000 
 % E8         :   0.000000000 

-------------------------   ----------------
Dispersion correction           -0.002478533
-------------------------   ----------------


-------------------------   --------------------
FINAL SINGLE POINT ENERGY     -1607.737404268398
-------------------------   --------------------



           ************************************************************
           *        Program running with 6 parallel MPI-processes     *
           *              working on a common directory               *
           ************************************************************

------------------------------------------------------------------------------
                              ORCA PROPERTY CALCULATIONS
------------------------------------------------------------------------------

GBWName                                 ... data/single_point_PO_M06-2x/300563/300563.gbw
Number of atoms                         ...     35
Number of basis functions               ...    841
Max core memory                         ...   1024 MB

Electric properties:
Dipole moment                           ... YES
Quadrupole moment                       ...  NO
Static polarizability (Dipole/Dipole)   ...  NO
Static polarizability (Dipole/Quad.)    ...  NO
Static polarizability (Quad./Quad.)     ...  NO
Static polarizability (Velocity)        ...  NO

Atomic electric properties:
Dipole moment                           ...  NO
Quadrupole moment                       ...  NO
Static polarizability                   ...  NO

Choice of electric origin               ... Center of mass
Position of electric origin             ...     1.524947    -0.339824     0.374066

General magnetic properties:
Magnetizability                         ...  NO

EPR properties:
g-Tensor (aka g-matrix)                 ...  NO
Zero-Field splitting spin-orbit         ...  NO
Zero-field splitting spin-spin          ...  NO
Hyperfine couplings                     ...  NO (   0 nuclei)
Quadrupole couplings                    ...  NO (   0 nuclei)
Contact density                         ...  NO (   0 nuclei)

NMR properties:
Chemical shifts                         ...  NO (   0 nuclei)
Spin-rotation constants                 ...  NO (   0 nuclei)
Spin-spin couplings                     ...  NO (   0 nuclei,    0 pairs)

Choice of magnetic origin               ... GIAO
Position of magnetic origin             ...     0.000000     0.000000     0.000000

Properties with geometric perturbations:
SCF Hessian                             ...  NO
IR spectrum                             ...  NO
VCD spectrum                            ...  NO
X-ray spectroscopy properties:
SCF XES/XAS/RIXS spectra                ...  NO


-------------
DIPOLE MOMENT
-------------

Method             : SCF
Type of density    : Electron Density
Multiplicity       :   1
Irrep              :   0
Energy             : -1607.7349257357807346 Eh
Relativity type    : 
Basis              : AO
                                X                 Y                 Z
Electronic contribution:     33.494141436      -7.743639905       3.754817325
Nuclear contribution   :    -34.347844092       7.870736506      -5.307974654
                        -----------------------------------------
Total Dipole Moment    :     -0.853702656       0.127096600      -1.553157328
                        -----------------------------------------
Magnitude (a.u.)       :      1.776867878
Magnitude (Debye)      :      4.516439219



--------------------
Rotational spectrum 
--------------------
 
Rotational constants in cm-1:             0.008432             0.005657             0.004576 
Rotational constants in MHz :           252.780623           169.597513           137.193786 

Dipole components along the rotational axes: 
x,y,z [a.u.] :    -0.941709    -0.349857    -1.465620 
x,y,z [Debye]:    -2.393635    -0.889266    -3.725311 

 

Dipole moment calculation done in   0.1 sec 

Maximum memory used throughout the entire PROP-calculation: 66.8 MB

--------------------------------
SUGGESTED CITATIONS FOR THIS RUN
--------------------------------

Below you find a list of papers that are relevant to this ORCA run
We neither can nor want to force you to cite these papers, but we appreciate if you do
You receive ORCA, which is the product of decades of hard work by many enthusiastic individuals, for free
The only thing we kindly ask in return is that you cite our papers,
We deeply appreciate it, if you show your appreciation for ORCA by not just citing the generic ORCA reference.

Please note that relegating all ORCA citations to the supporting information does *not* help us.
SI sections are not indexed - citations you put there will not count into any citation statistics
But we need these citations in order to attract the funding resources that allow us to do what we are doing

Therefore, if you are a happy ORCA user, please consider citing a few of the papers listed below in the main body of your paper

In addition to the list printed below, the program has created the file data/single_point_PO_M06-2x/300563/300563.bibtex that contains the list in bibtex format
You can import this file easily into all common literature databanks and citation aid programs


List of essential papers. We consider these as the minimum necessary citations

  1. Neese,F.
     Software update: the ORCA program system, version 5.0
     WIRES Comput. Molec. Sci., 2022 12(1)e1606
     doi.org/10.1002/wcms.1606

List of papers to cite with high priority. The work reported in these papers was absolutely
necessary for this run to complete.
Our perspective: the developers of density functionals and basis sets usually get cited in chemistry papers
Good! But without the algorithms to do something with them, the functionals or basis sets would not do anything.
Hence, in our opinion, the algorithm design and method developments papers are equally worthy of getting cited

  1. Neese,F.
     An improvement of the resolution of the identity approximation for the formation of the Coulomb matrix
     J. Comp. Chem., 2003 24(14)1740-1747
     doi.org/10.1002/jcc.10318
  2. Neese,F.; Wennmohs,F.; Hansen,A.; Becker,U.
     Efficient, approximate and parallel Hartree-Fock and hybrid DFT calculations. A 'chain-of-spheres' algorithm for the Hartree-Fock exchange
     Chem. Phys., 2009 356(1-3)98-109
     doi.org/10.1016/j.chemphys.2008.10.036
  3. Helmich-Paris,B.; de Souza,B.; Neese,F.; Izsák,R.
     An improved chain of spheres for exchange algorithm
     J. Chem. Phys., 2021 155 104109
     doi.org/doi: 10.1063/5.0058766.
  4. Neese,F.
     The SHARK Integral Generation and Digestion System
     J. Comp. Chem., 2022  1-16
     doi.org/10.1002/jcc.26942
  5. Grimme,S.; Antony,J.; Ehrlich,S.; Krieg,H.
     A consistent and accurate ab initio parametrization of density functional dispersion correction (DFT-D) for the 94 elements H-Pu
     J. Chem. Phys., 2010 132 154104-XXXX
     doi.org/10.1063/1.3382344

List of suggested additional citations. These are papers that are important in the 'surrounding' of 
of this run, or papers that preceded the highly important papers. If you like your results we are grateful for a citation.

  1. Izsak,R.; Neese,F.
     An overlap fitted chain of spheres exchange method
     J. Chem. Phys., 2011 135 144105
     doi.org/10.1063/1.3646921
  2. Izsak,R.; Hansen,A.; Neese,F.
     The resolution of identity and chain of spheres approximations for the LPNO-CCSD singles Fock term
     Molec. Phys., 2012 110 2413-2417
     doi.org/10.1080/00268976.2012.687466
  3. Neese,F.
     The ORCA program system
     WIRES Comput. Molec. Sci., 2012 2(1)73-78
     doi.org/10.1002/wcms.81
  4. Izsak,R.; Neese,F.; Klopper,W.
     Robust fitting techniques in the chain of spheres approximation to the Fock exchange: The role of the complementary space
     J. Chem. Phys., 2013 139 
     doi.org/10.1063/1.4819264
  5. Neese,F.
     Software update: the ORCA program system, version 4.0
     WIRES Comput. Molec. Sci., 2018 8(1)1-6
     doi.org/10.1002/wcms.1327
  6. Neese,F.; Wennmohs,F.; Becker,U.; Riplinger,C.
     The ORCA quantum chemistry program package
     J. Chem. Phys., 2020 152 Art. No. L224108
     doi.org/10.1063/5.0004608

List of optional additional citations

  1. Neese,F.
     Approximate second-order SCF convergence for spin unrestricted wavefunctions
     Chem. Phys. Lett., 2000 325(1-3)93-98
     doi.org/10.1016/s0009-2614(00)00662-x

Timings for individual modules:

Sum of individual times          ...      179.729 sec (=   2.995 min)
Startup calculation              ...        5.599 sec (=   0.093 min)   3.1 %
SCF iterations                   ...      173.748 sec (=   2.896 min)  96.7 %
Property calculations            ...        0.382 sec (=   0.006 min)   0.2 %
                             ****ORCA TERMINATED NORMALLY****
TOTAL RUN TIME: 0 days 0 hours 3 minutes 0 seconds 13 msec
