
                                 *****************
                                 * O   R   C   A *
                                 *****************

                                            #,                                       
                                            ###                                      
                                            ####                                     
                                            #####                                    
                                            ######                                   
                                           ########,                                 
                                     ,,################,,,,,                         
                               ,,#################################,,                 
                          ,,##########################################,,             
                       ,#########################################, ''#####,          
                    ,#############################################,,   '####,        
                  ,##################################################,,,,####,       
                ,###########''''           ''''###############################       
              ,#####''   ,,,,##########,,,,          '''####'''          '####       
            ,##' ,,,,###########################,,,                        '##       
           ' ,,###''''                  '''############,,,                           
         ,,##''                                '''############,,,,        ,,,,,,###''
      ,#''                                            '''#######################'''  
     '                                                          ''''####''''         
             ,#######,   #######,   ,#######,      ##                                
            ,#'     '#,  ##    ##  ,#'     '#,    #''#        ,####,   ,####,        
            ##       ##  ##   ,#'  ##            #'  '#       #'       #'  '#        
            ##       ##  #######   ##           ,######,      #####,   #    #        
            '#,     ,#'  ##    ##  '#,     ,#' ,#      #,     #,   #   #,  ,#        
             '#######'   ##     ##  '#######'  #'      '#     '####' # '####'        



                #########################################################
                #                        -***-                          #
                #          Department of theory and spectroscopy        #
                #                                                       #
                #                      Frank Neese                      #
                #                                                       #
                #     Directorship, Architecture, Infrastructure        #
                #                    SHARK, DRIVERS                     #
                #        Core code/Algorithms in most modules           #
                #                                                       #
                #        Max Planck Institute fuer Kohlenforschung      #
                #                Kaiser Wilhelm Platz 1                 #
                #                 D-45470 Muelheim/Ruhr                 #
                #                      Germany                          #
                #                                                       #
                #                  All rights reserved                  #
                #                        -***-                          #
                #########################################################


                         Program Version 6.0.0  -   RELEASE   -


 With contributions from (in alphabetic order):
   Daniel Aravena         : Magnetic Suceptibility
   Michael Atanasov       : Ab Initio Ligand Field Theory (pilot matlab implementation)
   Alexander A. Auer      : GIAO ZORA, VPT2 properties, NMR spectrum
   Ute Becker             : All parallelization in ORCA, NUMFREQ, NUMCALC
   Giovanni Bistoni       : ED, misc. LED, open-shell LED, HFLD
   Martin Brehm           : Molecular dynamics
   Dmytro Bykov           : pre 5.0 version of the SCF Hessian
   Marcos Casanova-Páez   : Triplet and SCS-CIS(D). UHF-(DLPNO)-IP/EA/STEOM-CCSD. UHF-CVS-IP/STEOM-CCSD
   Vijay G. Chilkuri      : MRCI spin determinant printing, contributions to CSF-ICE
   Pauline Colinet        : FMM embedding
   Dipayan Datta          : RHF DLPNO-CCSD density
   Achintya Kumar Dutta   : EOM-CC, STEOM-CC
   Nicolas Foglia         : Exact transition moments, OPA infrastructure, MCD improvements
   Dmitry Ganyushin       : Spin-Orbit,Spin-Spin,Magnetic field MRCI
   Miquel Garcia          : C-PCM and meta-GGA Hessian, CCSD/C-PCM, Gaussian charge scheme
   Tiago L. C. Gouveia    : GS-ROHF, GS-ROCIS
   Yang Guo               : DLPNO-NEVPT2, F12-NEVPT2, CIM, IAO-localization
   Andreas Hansen         : Spin unrestricted coupled pair/coupled cluster methods
   Ingolf Harden          : AUTO-CI MPn and infrastructure 
   Benjamin Helmich-Paris : MC-RPA, TRAH-(SCF,CASSCF), AVAS, COSX integrals, SCF dyn. polar.
   Lee Huntington         : MR-EOM, pCC
   Robert Izsak           : Overlap fitted RIJCOSX, COSX-SCS-MP3, EOM
   Riya Kayal             : Wick's Theorem for AUTO-CI, AUTO-CI UHF-CCSDT
   Emily Kempfer          : AUTO-CI, RHF CISDT and CCSDT
   Christian Kollmar      : KDIIS, OOCD, Brueckner-CCSD(T), CCSD density, CASPT2, CASPT2-K, improved NEVPT2
   Axel Koslowski         : Symmetry handling
   Simone Kossmann        : Meta GGA functionals, TD-DFT gradient, OOMP2, (MP2 Hessian; deprecated post 5.0)
   Lucas Lang             : DCDCAS
   Marvin Lechner         : AUTO-CI (C++ implementation), FIC-MRCC
   Spencer Leger          : CASSCF response
   Dagmar Lenk            : GEPOL surface, SMD, ORCA-2-JSON
   Dimitrios Liakos       : Extrapolation schemes; Compound Job, initial MDCI parallelization
   Dimitrios Manganas     : Further ROCIS development; embedding schemes. LFT, Crystal Embedding
   Dimitrios Pantazis     : SARC Basis sets
   Anastasios Papadopoulos: AUTO-CI, single reference methods and gradients
   Taras Petrenko         : pre 6.0 DFT Hessian and TD-DFT gradient, (ASA, deprecated), ECA, 1-Electron XAS/XES, NRVS
   Peter Pinski           : DLPNO-MP2, DLPNO-MP2 Gradient
   Christoph Reimann      : Effective Core Potentials
   Marius Retegan         : Local ZFS, SOC
   Christoph Riplinger    : Optimizer, TS searches, QM/MM, DLPNO-CCSD(T), (RO)-DLPNO pert. Triples
   Michael Roemelt        : Original ROCIS implementation
   Masaaki Saitow         : Open-shell DLPNO-CCSD energy and density
   Barbara Sandhoefer     : DKH picture change effects
   Kantharuban Sivalingam : CASSCF convergence/infrastructure, NEVPT2 and variants, FIC-MRCI
   Bernardo de Souza      : ESD, SOC TD-DFT
   Georgi Stoychev        : AutoAux, RI-MP2 NMR, DLPNO-MP2 response, X2C
   Van Anh Tran           : RI-MP2 g-tensors
   Willem Van den Heuvel  : Paramagnetic NMR
   Zikuan Wang            : NOTCH, Electric field optimization 
   Frank Wennmohs         : Technical directorship and infrastructure
   Hang Xu                : AUTO-CI-Response properties 


 We gratefully acknowledge several colleagues who have allowed us to
 interface, adapt or use parts of their codes:
   Stefan Grimme, W. Hujo, H. Kruse, P. Pracht,  : VdW corrections, initial TS optimization,
                  C. Bannwarth, S. Ehlert,         DFT functionals, gCP, sTDA/sTD-DF
                  L. Wittmann, M. Mueller
   Ed Valeev, F. Pavosevic, A. Kumar             : LibInt (2-el integral package), F12 methods
   Garnet Chan, S. Sharma, J. Yang, R. Olivares  : DMRG
   Ulf Ekstrom                                   : XCFun DFT Library
   Mihaly Kallay                                 : mrcc  (arbitrary order and MRCC methods)
   Frank Weinhold                                : gennbo (NPA and NBO analysis)
   Simon Mueller                                 : openCOSMO-RS
   Christopher J. Cramer and Donald G. Truhlar   : smd solvation model
   Lars Goerigk                                  : TD-DFT with DH, B97 family of functionals
   V. Asgeirsson, H. Jonsson                     : NEB implementation
   FAccTs GmbH                                   : IRC, NEB, NEB-TS, DLPNO-Multilevel, CI-OPT
                                                   MM, QMMM, 2- and 3-layer-ONIOM, Crystal-QMMM,
                                                   LR-CPCM, SF, NACMEs, symmetry and pop. for TD-DFT,
                                                   nearIR, NL-DFT gradient (VV10), updates on ESD,
                                                   ML-optimized integration grids, MBIS, APM,
                                                   GOAT, DOCKER, SOLVATOR, interface openCOSMO-RS
   S Lehtola, MJT Oliveira, MAL Marques          : LibXC Library
   Liviu Ungur et al                             : ANISO software


 Your calculation uses the libint2 library for the computation of 2-el integrals
 For citations please refer to: http://libint.valeyev.net

 Your ORCA version has been built with support for libXC version: 6.2.2
 For citations please refer to: https://libxc.gitlab.io

 This ORCA versions uses:
   CBLAS   interface :  Fast vector & matrix operations
   LAPACKE interface :  Fast linear algebra routines
   Shared memory     :  Shared parallel matrices


Your calculation utilizes the atom-pairwise dispersion correction
with the Becke-Johnson damping scheme (D3BJ)


Warning: RI is on but no J-basis has been assigned. Assigning Def2/J (nothing to worry about!)
================================================================================

----- Orbital basis set information -----
Your calculation utilizes the basis: def2-SVP
   F. Weigend and R. Ahlrichs, Phys. Chem. Chem. Phys. 7, 3297 (2005).

----- AuxJ basis set information -----
Your calculation utilizes the auxiliary basis: def2/J
   F. Weigend, Phys. Chem. Chem. Phys. 8, 1057 (2006).

================================================================================
                                        WARNINGS
                       Please study these warnings very carefully!
================================================================================


WARNING: Geometry Optimization
  ===> : Switching off AutoStart
         For restart on a previous wavefunction, please use MOREAD

================================================================================
                                       INPUT FILE
================================================================================
NAME = data/geom_opt/201037/201037.inp
|  1> ! RIJONX B3LYP def2-SVP D3BJ TIGHTSCF Opt
|  2> %pal
|  3> nprocs 6
|  4> end
|  5> 
|  6> * xyz 0 1
|  7> C      2.881618    0.060742    1.003614
|  8> C      1.966676    0.210064    2.041579
|  9> C      0.596015    0.206913    1.771323
| 10> C      0.120404    0.054480    0.459860
| 11> C      1.054475   -0.094707   -0.573616
| 12> C      2.425998   -0.091546   -0.303120
| 13> P     -1.677755    0.061692    0.196624
| 14> C     -1.882751    1.310487   -1.140338
| 15> O     -1.564952    2.648533   -0.779291
| 16> C     -1.944404   -1.466064   -0.795261
| 17> O     -1.683439   -2.687681   -0.116092
| 18> H      3.948349    0.063039    1.212697
| 19> H      2.317573    0.329297    3.063636
| 20> H     -0.097447    0.325641    2.602709
| 21> H      0.739826   -0.216147   -1.606948
| 22> H      3.139428   -0.208342   -1.115386
| 23> H     -2.926992    1.307450   -1.468541
| 24> H     -1.276860    1.057140   -2.015534
| 25> H     -0.850646    2.575285   -0.122326
| 26> H     -2.989283   -1.497777   -1.119898
| 27> H     -1.332782   -1.461282   -1.702539
| 28> H     -0.963051   -2.487219    0.506850
| 29> **                         ****END OF INPUT****
================================================================================

                       *****************************
                       * Geometry Optimization Run *
                       *****************************

Geometry optimization settings:
Update method            Update   .... BFGS
Choice of coordinates    CoordSys .... (2022) Redundant Internals
Initial Hessian          InHess   .... Almloef's Model
Max. no of cycles        MaxIter  .... 66

Convergence Tolerances:
Energy Change            TolE     ....  5.0000e-06 Eh
Max. Gradient            TolMAXG  ....  3.0000e-04 Eh/bohr
RMS Gradient             TolRMSG  ....  1.0000e-04 Eh/bohr
Max. Displacement        TolMAXD  ....  4.0000e-03 bohr
RMS Displacement         TolRMSD  ....  2.0000e-03 bohr
Strict Convergence                .... False

------------------------------------------------------------------------------
                        ORCA OPTIMIZATION COORDINATE SETUP
------------------------------------------------------------------------------

The optimization will be done in redundant internal coordinates (2022)
Making redundant internal coordinates   ...  (2022 redundants) done
Evaluating the initial hessian          ...  (Almloef) done
Evaluating the coordinates              ...  done
Calculating the B-matrix                .... done
Calculating the G-matrix                .... done
Diagonalizing the G-matrix              .... done
Small eigenvalue found = 1.952e-02
Small eigenvalue found = 2.356e-02
The first mode is                       ....   41
The number of degrees of freedom        ....   60

    -----------------------------------------------------------------
                    Redundant Internal Coordinates


    -----------------------------------------------------------------
         Definition                    Initial Value    Approx d2E/dq
    -----------------------------------------------------------------
      1. B(C   1,C   0)                  1.3917         0.620941   
      2. B(C   2,C   1)                  1.3971         0.608814   
      3. B(C   3,C   2)                  1.4033         0.594905   
      4. B(C   4,C   3)                  1.4010         0.600038   
      5. B(C   5,C   4)                  1.3979         0.606822   
      6. B(C   5,C   0)                  1.3922         0.619674   
      7. B(P   6,C   3)                  1.8173         0.436959   
      8. B(C   7,P   6)                  1.8409         0.400702   
      9. B(O   8,C   7)                  1.4219         0.497768   
     10. B(C   9,P   6)                  1.8409         0.400703   
     11. B(O  10,C   9)                  1.4219         0.497766   
     12. B(H  11,C   0)                  1.0870         0.364049   
     13. B(H  12,C   1)                  1.0872         0.363859   
     14. B(H  13,C   2)                  1.0891         0.361262   
     15. B(H  14,C   4)                  1.0870         0.364117   
     16. B(H  15,C   5)                  1.0874         0.363580   
     17. B(H  16,C   7)                  1.0946         0.354056   
     18. B(H  17,C   7)                  1.0942         0.354597   
     19. B(H  18,O   8)                  0.9732         0.495266   
     20. B(H  19,C   9)                  1.0946         0.354055   
     21. B(H  20,C   9)                  1.0942         0.354596   
     22. B(H  21,O  10)                  0.9732         0.495267   
     23. A(C   1,C   0,C   5)          119.7762         0.434143   
     24. A(C   5,C   0,H  11)          120.1262         0.353530   
     25. A(C   1,C   0,H  11)          120.0976         0.353652   
     26. A(C   0,C   1,H  12)          120.0486         0.353621   
     27. A(C   0,C   1,C   2)          120.0326         0.432765   
     28. A(C   2,C   1,H  12)          119.9187         0.352442   
     29. A(C   3,C   2,H  13)          120.6255         0.350643   
     30. A(C   1,C   2,H  13)          118.4748         0.352015   
     31. A(C   1,C   2,C   3)          120.8997         0.429448   
     32. A(C   2,C   3,P   6)          118.0517         0.431660   
     33. A(C   2,C   3,C   4)          118.3579         0.428331   
     34. A(C   4,C   3,P   6)          123.5904         0.432327   
     35. A(C   3,C   4,H  14)          121.3431         0.351620   
     36. A(C   3,C   4,C   5)          120.7396         0.429858   
     37. A(C   5,C   4,H  14)          117.9173         0.352289   
     38. A(C   0,C   5,C   4)          120.1940         0.432351   
     39. A(C   4,C   5,H  15)          119.9283         0.352201   
     40. A(C   0,C   5,H  15)          119.8777         0.353453   
     41. A(C   7,P   6,C   9)           98.9474         0.422364   
     42. A(C   3,P   6,C   9)          102.5955         0.428964   
     43. A(C   3,P   6,C   7)          102.5955         0.428964   
     44. A(H  16,C   7,H  17)          106.7255         0.289368   
     45. A(P   6,C   7,H  17)          111.2334         0.347493   
     46. A(O   8,C   7,H  16)          106.9759         0.337095   
     47. A(P   6,C   7,H  16)          108.7903         0.347403   
     48. A(O   8,C   7,H  17)          107.2911         0.337180   
     49. A(P   6,C   7,O   8)          115.4081         0.409064   
     50. A(C   7,O   8,H  18)          105.3445         0.353557   
     51. A(O  10,C   9,H  19)          106.9759         0.337094   
     52. A(P   6,C   9,H  19)          108.7903         0.347403   
     53. A(P   6,C   9,O  10)          115.4080         0.409064   
     54. A(H  19,C   9,H  20)          106.7255         0.289368   
     55. A(O  10,C   9,H  20)          107.2911         0.337180   
     56. A(P   6,C   9,H  20)          111.2334         0.347493   
     57. A(C   9,O  10,H  21)          105.3445         0.353557   
     58. D(H  12,C   1,C   0,C   5)   -180.0000         0.026685   
     59. D(C   2,C   1,C   0,C   5)      0.0001         0.026685   
     60. D(H  12,C   1,C   0,H  11)     -0.0001         0.026685   
     61. D(C   2,C   1,C   0,H  11)   -180.0000         0.026685   
     62. D(H  13,C   2,C   1,C   0)    179.9999         0.025593   
     63. D(C   3,C   2,C   1,C   0)     -0.0001         0.025593   
     64. D(H  13,C   2,C   1,H  12)      0.0001         0.025593   
     65. D(C   3,C   2,C   1,H  12)   -180.0000         0.025593   
     66. D(P   6,C   3,C   2,H  13)     -0.0001         0.024376   
     67. D(P   6,C   3,C   2,C   1)    179.9999         0.024376   
     68. D(C   4,C   3,C   2,C   1)     -0.0000         0.024376   
     69. D(C   4,C   3,C   2,H  13)    180.0000         0.024376   
     70. D(H  14,C   4,C   3,C   2)    180.0000         0.024821   
     71. D(C   5,C   4,C   3,P   6)   -179.9999         0.024821   
     72. D(C   5,C   4,C   3,C   2)      0.0001         0.024821   
     73. D(H  14,C   4,C   3,P   6)      0.0001         0.024821   
     74. D(H  15,C   5,C   4,H  14)     -0.0000         0.025417   
     75. D(C   0,C   5,C   4,H  14)   -179.9999         0.025417   
     76. D(C   0,C   5,C   4,C   3)     -0.0000         0.025417   
     77. D(H  15,C   5,C   0,H  11)      0.0001         0.026570   
     78. D(H  15,C   5,C   0,C   1)   -180.0000         0.026570   
     79. D(H  15,C   5,C   4,C   3)    179.9999         0.025417   
     80. D(C   4,C   5,C   0,H  11)   -180.0000         0.026570   
     81. D(C   4,C   5,C   0,C   1)     -0.0001         0.026570   
     82. D(C   9,P   6,C   3,C   4)     51.1554         0.003880   
     83. D(C   9,P   6,C   3,C   2)   -128.8445         0.003880   
     84. D(C   7,P   6,C   3,C   4)    -51.1557         0.003880   
     85. D(C   7,P   6,C   3,C   2)    128.8443         0.003880   
     86. D(H  16,C   7,P   6,C   3)    173.0325         0.003674   
     87. D(O   8,C   7,P   6,C   9)   -171.9175         0.003674   
     88. D(O   8,C   7,P   6,C   3)    -66.7657         0.003674   
     89. D(H  17,C   7,P   6,C   3)     55.7534         0.003674   
     90. D(H  16,C   7,P   6,C   9)     67.8807         0.003674   
     91. D(H  18,O   8,C   7,H  17)    -92.3301         0.019583   
     92. D(H  18,O   8,C   7,H  16)    153.4545         0.019583   
     93. D(H  18,O   8,C   7,P   6)     32.2664         0.019583   
     94. D(H  20,C   9,P   6,C   3)    -55.7534         0.003674   
     95. D(H  19,C   9,P   6,C   7)    -67.8809         0.003674   
     96. D(H  19,C   9,P   6,C   3)   -173.0326         0.003674   
     97. D(O  10,C   9,P   6,C   7)    171.9174         0.003674   
     98. D(O  10,C   9,P   6,C   3)     66.7656         0.003674   
     99. D(H  21,O  10,C   9,H  20)     92.3297         0.019583   
    100. D(H  21,O  10,C   9,H  19)   -153.4548         0.019583   
    101. D(H  21,O  10,C   9,P   6)    -32.2668         0.019583   
    -----------------------------------------------------------------

Number of atoms                         .... 22
Number of degrees of freedom            .... 101


         *************************************************************
         *                GEOMETRY OPTIMIZATION CYCLE   1            *
         *************************************************************
---------------------------------
CARTESIAN COORDINATES (ANGSTROEM)
---------------------------------
  C      2.881618    0.060742    1.003614
  C      1.966676    0.210064    2.041579
  C      0.596015    0.206913    1.771323
  C      0.120404    0.054480    0.459860
  C      1.054475   -0.094707   -0.573616
  C      2.425998   -0.091546   -0.303120
  P     -1.677755    0.061692    0.196624
  C     -1.882751    1.310487   -1.140338
  O     -1.564952    2.648533   -0.779291
  C     -1.944404   -1.466064   -0.795261
  O     -1.683439   -2.687681   -0.116092
  H      3.948349    0.063039    1.212697
  H      2.317573    0.329297    3.063636
  H     -0.097447    0.325641    2.602709
  H      0.739826   -0.216147   -1.606948
  H      3.139428   -0.208342   -1.115386
  H     -2.926992    1.307450   -1.468541
  H     -1.276860    1.057140   -2.015534
  H     -0.850646    2.575285   -0.122326
  H     -2.989283   -1.497777   -1.119898
  H     -1.332782   -1.461282   -1.702539
  H     -0.963051   -2.487219    0.506850

----------------------------
CARTESIAN COORDINATES (A.U.)
----------------------------
  NO LB      ZA    FRAG     MASS         X           Y           Z
   0 C     6.0000    0    12.011    5.445469    0.114786    1.896556
   1 C     6.0000    0    12.011    3.716479    0.396963    3.858025
   2 C     6.0000    0    12.011    1.126305    0.391009    3.347315
   3 C     6.0000    0    12.011    0.227531    0.102952    0.869009
   4 C     6.0000    0    12.011    1.992669   -0.178970   -1.083977
   5 C     6.0000    0    12.011    4.584472   -0.172997   -0.572814
   6 P    15.0000    0    30.974   -3.170497    0.116581    0.371566
   7 C     6.0000    0    12.011   -3.557884    2.476462   -2.154927
   8 O     8.0000    0    15.999   -2.957331    5.005002   -1.472647
   9 C     6.0000    0    12.011   -3.674391   -2.770459   -1.502825
  10 O     8.0000    0    15.999   -3.181239   -5.078981   -0.219382
  11 H     1.0000    0     1.008    7.461298    0.119126    2.291665
  12 H     1.0000    0     1.008    4.379578    0.622281    5.789433
  13 H     1.0000    0     1.008   -0.184148    0.615372    4.918407
  14 H     1.0000    0     1.008    1.398069   -0.408459   -3.036692
  15 H     1.0000    0     1.008    5.932659   -0.393709   -2.107774
  16 H     1.0000    0     1.008   -5.531213    2.470722   -2.775140
  17 H     1.0000    0     1.008   -2.412916    1.997705   -3.808807
  18 H     1.0000    0     1.008   -1.607488    4.866583   -0.231163
  19 H     1.0000    0     1.008   -5.648926   -2.830388   -2.116301
  20 H     1.0000    0     1.008   -2.518593   -2.761423   -3.217332
  21 H     1.0000    0     1.008   -1.819903   -4.700163    0.957808

--------------------------------
INTERNAL COORDINATES (ANGSTROEM)
--------------------------------
 C      0   0   0     0.000000000000     0.00000000     0.00000000
 C      1   0   0     1.391685044927     0.00000000     0.00000000
 C      2   1   0     1.397053975785   120.03263736     0.00000000
 C      3   2   1     1.403344876778   120.89965799     0.00000000
 C      4   3   2     1.401006080139   118.35793034     0.00000000
 C      1   2   3     1.392240987078   119.77617892     0.00000000
 P      4   3   2     1.817338987069   118.05168308   179.99990297
 C      7   4   3     1.840918168058   102.59551188   128.84434294
 O      8   7   4     1.421871386141   115.40806543   293.23425345
 C      7   4   3     1.840917145871   102.59553166   231.15546708
 O     10   7   4     1.421872482494   115.40800116    66.76564334
 H      1   2   3     1.087030819921   120.09761190   180.00002270
 H      2   1   3     1.087173272366   120.04862390   179.99989790
 H      3   2   1     1.089122841751   118.47484450   179.99994941
 H      5   4   3     1.086980537556   121.34309158   179.99999809
 H      6   1   2     1.087382051200   119.87772536   180.00000418
 H      8   7   4     1.094607554633   108.79025286   173.03245411
 H      8   7   4     1.094192233890   111.23335266    55.75338591
 H      9   8   7     0.973242694483   105.34453586    32.26644203
 H     10   7   4     1.094608158557   108.79027276   186.96738431
 H     10   7   4     1.094192719630   111.23339233   304.24657494
 H     11  10   7     0.973242323038   105.34450317   327.73321221

---------------------------
INTERNAL COORDINATES (A.U.)
---------------------------
 C      0   0   0     0.000000000000     0.00000000     0.00000000
 C      1   0   0     2.629903599586     0.00000000     0.00000000
 C      2   1   0     2.640049408540   120.03263736     0.00000000
 C      3   2   1     2.651937488552   120.89965799     0.00000000
 C      4   3   2     2.647517803421   118.35793034     0.00000000
 C      1   2   3     2.630954177998   119.77617892     0.00000000
 P      4   3   2     3.434272978058   118.05168308   179.99990297
 C      7   4   3     3.478831172589   102.59551188   128.84434294
 O      8   7   4     2.686947517465   115.40806543   293.23425345
 C      7   4   3     3.478829240936   102.59553166   231.15546708
 O     10   7   4     2.686949589273   115.40800116    66.76564334
 H      1   2   3     2.054190548783   120.09761190   180.00002270
 H      2   1   3     2.054459744891   120.04862390   179.99989790
 H      3   2   1     2.058143897108   118.47484450   179.99994941
 H      5   4   3     2.054095528883   121.34309158   179.99999809
 H      6   1   2     2.054854279710   119.87772536   180.00000418
 H      8   7   4     2.068508502377   108.79025286   173.03245411
 H      8   7   4     2.067723659916   111.23335266    55.75338591
 H      9   8   7     1.839162154413   105.34453586    32.26644203
 H     10   7   4     2.068509643628   108.79027276   186.96738431
 H     10   7   4     2.067724577832   111.23339233   304.24657494
 H     11  10   7     1.839161452483   105.34450317   327.73321221

---------------------
BASIS SET INFORMATION
---------------------
There are 4 groups of distinct atoms

 Group   1 Type C   : 7s4p1d contracted to 3s2p1d pattern {511/31/1}
 Group   2 Type P   : 10s7p1d contracted to 4s3p1d pattern {5311/511/1}
 Group   3 Type O   : 7s4p1d contracted to 3s2p1d pattern {511/31/1}
 Group   4 Type H   : 4s1p contracted to 2s1p pattern {31/1}

Atom   0C    basis set group =>   1
Atom   1C    basis set group =>   1
Atom   2C    basis set group =>   1
Atom   3C    basis set group =>   1
Atom   4C    basis set group =>   1
Atom   5C    basis set group =>   1
Atom   6P    basis set group =>   2
Atom   7C    basis set group =>   1
Atom   8O    basis set group =>   3
Atom   9C    basis set group =>   1
Atom  10O    basis set group =>   3
Atom  11H    basis set group =>   4
Atom  12H    basis set group =>   4
Atom  13H    basis set group =>   4
Atom  14H    basis set group =>   4
Atom  15H    basis set group =>   4
Atom  16H    basis set group =>   4
Atom  17H    basis set group =>   4
Atom  18H    basis set group =>   4
Atom  19H    basis set group =>   4
Atom  20H    basis set group =>   4
Atom  21H    basis set group =>   4
---------------------------------
AUXILIARY/J BASIS SET INFORMATION
---------------------------------
There are 4 groups of distinct atoms

 Group   1 Type C   : 12s5p4d2f1g contracted to 6s4p3d1f1g pattern {711111/2111/211/2/1}
 Group   2 Type P   : 14s5p5d2f1g contracted to 8s4p3d1f1g pattern {71111111/2111/311/2/1}
 Group   3 Type O   : 12s5p4d2f1g contracted to 6s4p3d1f1g pattern {711111/2111/211/2/1}
 Group   4 Type H   : 5s2p1d contracted to 3s1p1d pattern {311/2/1}

Atom   0C    basis set group =>   1
Atom   1C    basis set group =>   1
Atom   2C    basis set group =>   1
Atom   3C    basis set group =>   1
Atom   4C    basis set group =>   1
Atom   5C    basis set group =>   1
Atom   6P    basis set group =>   2
Atom   7C    basis set group =>   1
Atom   8O    basis set group =>   3
Atom   9C    basis set group =>   1
Atom  10O    basis set group =>   3
Atom  11H    basis set group =>   4
Atom  12H    basis set group =>   4
Atom  13H    basis set group =>   4
Atom  14H    basis set group =>   4
Atom  15H    basis set group =>   4
Atom  16H    basis set group =>   4
Atom  17H    basis set group =>   4
Atom  18H    basis set group =>   4
Atom  19H    basis set group =>   4
Atom  20H    basis set group =>   4
Atom  21H    basis set group =>   4


           ************************************************************
           *        Program running with 6 parallel MPI-processes     *
           *              working on a common directory               *
           ************************************************************
------------------------------------------------------------------------------
                             ORCA STARTUP CALCULATIONS
                           -- RI-GTO INTEGRALS CHOSEN --
------------------------------------------------------------------------------
------------------------------------------------------------------------------
                   ___                                                        
                  /   \      - P O W E R E D   B Y -                         
                 /     \                                                     
                 |  |  |   _    _      __       _____    __    __             
                 |  |  |  | |  | |    /  \     |  _  \  |  |  /  |          
                  \  \/   | |  | |   /    \    | | | |  |  | /  /          
                 / \  \   | |__| |  /  /\  \   | |_| |  |  |/  /          
                |  |  |   |  __  | /  /__\  \  |    /   |      \           
                |  |  |   | |  | | |   __   |  |    \   |  |\   \          
                \     /   | |  | | |  |  |  |  | |\  \  |  | \   \       
                 \___/    |_|  |_| |__|  |__|  |_| \__\ |__|  \__/        
                                                                              
                      - O R C A' S   B I G   F R I E N D -                    
                                      &                                       
                       - I N T E G R A L  F E E D E R -                       
                                                                              
 v1 FN, 2020, v2 2021, v3 2022-2024                                           
------------------------------------------------------------------------------


----------------------
SHARK INTEGRAL PACKAGE
----------------------

Number of atoms                             ...     22
Number of basis functions                   ...    213
Number of shells                            ...    101
Maximum angular momentum                    ...      2
Integral batch strategy                     ... SHARK/LIBINT Hybrid
RI-J (if used) integral strategy            ... SPLIT-RIJ (Revised 2003 algorithm where possible)
Printlevel                                  ...      1
Contraction scheme used                     ... SEGMENTED contraction
Prescreening option                         ... SCHWARTZ
   Thresh                                   ... 2.500e-11
   Tcut                                     ... 2.500e-12
   Tpresel                                  ... 2.500e-12 
Coulomb Range Separation                    ... NOT USED
Exchange Range Separation                   ... NOT USED
Multipole approximations                    ... NOT USED
Finite Nucleus Model                        ... NOT USED
CABS basis                                  ... NOT available
Auxiliary Coulomb fitting basis             ... AVAILABLE
   # of basis functions in Aux-J            ...    662
   # of shells in Aux-J                     ...    222
   Maximum angular momentum in Aux-J        ...      4
Auxiliary J/K fitting basis                 ... NOT available
Auxiliary Correlation fitting basis         ... NOT available
Auxiliary 'external' fitting basis          ... NOT available

Checking pre-screening integrals            ... done (  0.0 sec) Dimension = 101
Check shell pair data                       ... done (  0.0 sec)
Shell pair information
Shell pair cut-off parameter TPreSel        ...   2.5e-12
Total number of shell pairs                 ...      5151
Shell pairs after pre-screening             ...      4579
Total number of primitive shell pairs       ...     18907
Primitive shell pairs kept                  ...     11581
          la=0 lb=0:   1422 shell pairs
          la=1 lb=0:   1719 shell pairs
          la=1 lb=1:    526 shell pairs
          la=2 lb=0:    535 shell pairs
          la=2 lb=1:    322 shell pairs
          la=2 lb=2:     55 shell pairs

Calculating one electron integrals          ... done (  0.0 sec)
Calculating RI/J V-Matrix + Cholesky decomp.... done (  0.0 sec)
Calculating Nuclear repulsion               ... done (  0.0 sec) ENN=    695.205944749114 Eh

Diagonalization of the overlap matrix:
Smallest eigenvalue                        ... 2.899e-04
Time for diagonalization                   ...    0.005 sec
Threshold for overlap eigenvalues          ... 1.000e-07
Number of eigenvalues below threshold      ... 0
Time for construction of square roots      ...    0.003 sec
Total time needed                          ...    0.009 sec

-------------------
DFT GRID GENERATION
-------------------

General Integration Accuracy     IntAcc      ... 4.388
Radial Grid Type                 RadialGrid  ... OptM3 with GC (2021)
Angular Grid (max. ang.)         AngularGrid ... 4 (Lebedev-302)
Angular grid pruning method      GridPruning ... 4 (adaptive)
Weight generation scheme         WeightScheme... mBecke (2022)
Basis function cutoff            BFCut       ... 1.0000e-11
Integration weight cutoff        WCut        ... 1.0000e-14
Partially contracted basis set               ... off
Rotationally invariant grid construction     ... off
Angular grids for H and He will be reduced by one unit

Total number of grid points                  ...   102549
Total number of batches                      ...     1615
Average number of points per batch           ...       63
Average number of grid points per atom       ...     4661
Initializing property integral containers    ... done (  0.0 sec)

SHARK setup successfully completed in   0.7 seconds

Maximum memory used throughout the entire STARTUP-calculation: 26.7 MB


           ************************************************************
           *        Program running with 6 parallel MPI-processes     *
           *              working on a common directory               *
           ************************************************************
-------------------------------------------------------------------------------
                                 ORCA GUESS
                   Start orbitals & Density for SCF / CASSCF
-------------------------------------------------------------------------------

------------
SCF SETTINGS
------------
Hamiltonian:
 Density Functional     Method          .... DFT(GTOs)
 Exchange Functional    Exchange        .... B88
   X-Alpha parameter    XAlpha          ....  0.666667
   Becke's b parameter  XBeta           ....  0.004200
 Correlation Functional Correlation     .... LYP
 LDA part of GGA corr.  LDAOpt          .... VWN-5
 Gradients option       PostSCFGGA      .... off
 Hybrid DFT is turned on
   Fraction HF Exchange ScalHFX         ....  0.200000
   Scaling of DF-GGA-X  ScalDFX         ....  0.720000
   Scaling of DF-GGA-C  ScalDFC         ....  0.810000
   Scaling of DF-LDA-C  ScalLDAC        ....  1.000000
   Perturbative correction              ....  0.000000
   NL short-range parameter             ....  4.800000
 RI-approximation to the Coulomb term is turned on
   Number of AuxJ basis functions       .... 662
   RIJ-ON(X) (HFX calculated with O(N)) .... on


General Settings:
 Integral files         IntName         .... data/geom_opt/201037/201037
 Hartree-Fock type      HFTyp           .... RHF
 Total Charge           Charge          ....    0
 Multiplicity           Mult            ....    1
 Number of Electrons    NEL             ....   90
 Basis Dimension        Dim             ....  213
 Nuclear Repulsion      ENuc            ....    695.2059447491 Eh

Convergence Acceleration:
 AO-DIIS                CNVDIIS         .... on
   Start iteration      DIISMaxIt       ....    12
   Startup error        DIISStart       ....  0.200000
   # of expansion vecs  DIISMaxEq       ....     5
   Bias factor          DIISBfac        ....   1.050
   Max. coefficient     DIISMaxC        ....  10.000
 MO-DIIS                CNVKDIIS        .... off
 Trust-Rad. Augm. Hess. CNVTRAH         .... auto
   Auto Start mean grad. ratio tolernc. ....  1.125000
   Auto Start start iteration           ....    50
   Auto Start num. interpolation iter.  ....    10
   Max. Number of Micro iterations      ....    24
   Max. Number of Macro iterations      .... Maxiter - #DIIS iter
   Number of Davidson start vectors     ....     2
   Converg. threshold    (grad. norm)   ....   1.000e-05
   Grad. Scal. Fac. for Micro threshold ....   0.100
   Minimum threshold for Micro iter.    ....   1.000e-02
   NR start threshold (gradient norm)   ....   1.000e-04
   Initial trust radius                 ....   0.400
   Minimum AH scaling param. (alpha)    ....   1.000
   Maximum AH scaling param. (alpha)    .... 1000.000
   Quad. conv. algorithm                .... NR
   White noise on init. David. guess    .... on
   Maximum white noise                  ....   0.010
   Pseudo random numbers                .... off
   Inactive MOs                         .... canonical
   Orbital update algorithm             .... Taylor
   Preconditioner                       .... Diag
   Full preconditioner red. dimension   ....   250
   COSX micro iterations for RIJONX calc.... off
 SOSCF                  CNVSOSCF        .... on
   Start iteration      SOSCFMaxIt      ....   150
   Startup grad/error   SOSCFStart      ....  0.003300
   Hessian update       SOSCFHessUp     .... L-BFGS
 Level Shifting         CNVShift        .... on
   Level shift para.    LevelShift      ....    0.2500
   Turn off err/grad.   ShiftErr        ....    0.0010
 Zerner damping         CNVZerner       .... off
 Static damping         CNVDamp         .... on
   Fraction old density DampFac         ....    0.7000
   Max. Damping (<1)    DampMax         ....    0.9800
   Min. Damping (>=0)   DampMin         ....    0.0000
   Turn off err/grad.   DampErr         ....    0.1000

SCF Procedure:
 Maximum # iterations   MaxIter         ....   125
 SCF integral mode      SCFMode         .... Direct
   Integral package                     .... SHARK and LIBINT hybrid scheme
 Reset frequency        DirectResetFreq ....    20
 Integral Threshold     Thresh          ....  2.500e-11 Eh
 Primitive CutOff       TCut            ....  2.500e-12 Eh

Convergence Tolerance:
 Convergence Check Mode ConvCheckMode   .... Total+1el-Energy
 Convergence forced     ConvForced      .... 0
 Energy Change          TolE            ....  1.000e-08 Eh
 1-El. energy change                    ....  1.000e-05 Eh
 Orbital Gradient       TolG            ....  1.000e-05
 Orbital Rotation angle TolX            ....  1.000e-05
 DIIS Error             TolErr          ....  5.000e-07

------------------------------
INITIAL GUESS: MODEL POTENTIAL
------------------------------
Loading Hartree-Fock densities                     ... done
Calculating cut-offs                               ... done
Initializing the effective Hamiltonian             ... done
Setting up the integral package (SHARK)            ... done
Starting the Coulomb interaction                   ... done (   0.0 sec)
Making the grid                                    ... done (   0.1 sec)
Mapping shells                                     ... done
Starting the XC term evaluation                    ... done (   0.1 sec)
  promolecular density results
     # of electrons  =     89.991671410
     EX              =    -83.434440061
     EC              =     -3.139204827
     EX+EC           =    -86.573644888
Transforming the Hamiltonian                       ... done (   0.0 sec)
Diagonalizing the Hamiltonian                      ... done (   0.0 sec)
Back transforming the eigenvectors                 ... done (   0.0 sec)
Now organizing SCF variables                       ... done
                      ------------------
                      INITIAL GUESS DONE (   0.2 sec)
                      ------------------
             **** ENERGY FILE WAS UPDATED (data/geom_opt/201037/201037.en.tmp) ****
Finished Guess after   0.3 sec
Maximum memory used throughout the entire GUESS-calculation: 14.7 MB


           ************************************************************
           *        Program running with 6 parallel MPI-processes     *
           *              working on a common directory               *
           ************************************************************

-------------------------------------------------------------------------------------------
                                      ORCA LEAN-SCF
                              memory conserving SCF solver
-------------------------------------------------------------------------------------------

----------------------------------------D-I-I-S--------------------------------------------
Iteration    Energy (Eh)           Delta-E    RMSDP     MaxDP     DIISErr   Damp  Time(sec)
-------------------------------------------------------------------------------------------
               ***  Starting incremental Fock matrix formation  ***
    1    -802.1879724550415176     0.00e+00  3.39e-03  9.75e-02  2.38e-01  0.700   1.1
    2    -802.3178220344270812    -1.30e-01  2.35e-03  8.22e-02  9.91e-02  0.700   1.1
                               ***Turning on AO-DIIS***
    3    -802.3696072759496474    -5.18e-02  1.07e-03  4.82e-02  2.91e-02  0.700   1.1
    4    -802.4007500226337015    -3.11e-02  2.02e-03  9.46e-02  1.61e-02  0.000   1.0
    5    -802.4690820880246065    -6.83e-02  3.11e-04  1.95e-02  4.42e-03  0.000   1.0
                              *** Initializing SOSCF ***
---------------------------------------S-O-S-C-F--------------------------------------
Iteration    Energy (Eh)           Delta-E    RMSDP     MaxDP     MaxGrad    Time(sec)
--------------------------------------------------------------------------------------
    6    -802.4693762281265208    -2.94e-04  9.60e-05  4.14e-03  8.97e-04     0.9
               *** Restarting incremental Fock matrix formation ***
    7    -802.4693931226202039    -1.69e-05  6.13e-05  2.65e-03  1.34e-04     1.2
    8    -802.4693937203626319    -5.98e-07  1.83e-05  4.84e-04  2.02e-04     0.8
    9    -802.4693951777403527    -1.46e-06  1.66e-05  9.22e-04  9.24e-05     0.8
   10    -802.4693951714018567     6.34e-09  6.36e-06  2.74e-04  5.96e-05     0.8
                 **** Energy Check signals convergence ****

               *****************************************************
               *                     SUCCESS                       *
               *           SCF CONVERGED AFTER  10 CYCLES          *
               *****************************************************

             **** ENERGY FILE WAS UPDATED (data/geom_opt/201037/201037.en.tmp) ****

----------------
TOTAL SCF ENERGY
----------------

Total Energy       :       -802.46939517140186 Eh          -21836.30238 eV

Components:
Nuclear Repulsion  :        695.20594474911400 Eh           18917.51550 eV
Electronic Energy  :      -1497.67533992051585 Eh          -40753.81788 eV
One Electron Energy:      -2478.73164918197972 Eh          -67449.71725 eV
Two Electron Energy:        981.05630926146375 Eh           26695.89937 eV

Virial components:
Potential Energy   :      -1599.94382267082005 Eh          -43536.68478 eV
Kinetic Energy     :        797.47442749941820 Eh           21700.38240 eV
Virial Ratio       :          2.00626348319111

DFT components:
N(Alpha)           :       45.000066527399 electrons
N(Beta)            :       45.000066527399 electrons
N(Total)           :       90.000133054797 electrons
E(X)               :      -67.067083333896 Eh       
E(C)               :       -3.698715794624 Eh       
E(XC)              :      -70.765799128520 Eh       

---------------
SCF CONVERGENCE
---------------

  Last Energy change         ...   -6.3385e-09  Tolerance :   1.0000e-08
  Last MAX-Density change    ...    2.7352e-04  Tolerance :   1.0000e-07
  Last RMS-Density change    ...    6.3579e-06  Tolerance :   5.0000e-09
  Last DIIS Error            ...    8.9704e-04  Tolerance :   5.0000e-07
  Last Orbital Gradient      ...    5.9575e-05  Tolerance :   1.0000e-05
  Last Orbital Rotation      ...    8.5564e-05  Tolerance :   1.0000e-05


----------------
ORBITAL ENERGIES
----------------

  NO   OCC          E(Eh)            E(eV) 
   0   2.0000     -77.044372     -2096.4840 
   1   2.0000     -19.130680      -520.5723 
   2   2.0000     -19.130655      -520.5716 
   3   2.0000     -10.232260      -278.4339 
   4   2.0000     -10.232204      -278.4324 
   5   2.0000     -10.209518      -277.8151 
   6   2.0000     -10.208211      -277.7795 
   7   2.0000     -10.207443      -277.7587 
   8   2.0000     -10.206015      -277.7198 
   9   2.0000     -10.205002      -277.6922 
  10   2.0000     -10.204868      -277.6886 
  11   2.0000      -6.545155      -178.1027 
  12   2.0000      -4.710515      -128.1796 
  13   2.0000      -4.710114      -128.1687 
  14   2.0000      -4.707164      -128.0884 
  15   2.0000      -1.005562       -27.3627 
  16   2.0000      -1.004246       -27.3269 
  17   2.0000      -0.865845       -23.5608 
  18   2.0000      -0.770952       -20.9787 
  19   2.0000      -0.755034       -20.5455 
  20   2.0000      -0.720436       -19.6040 
  21   2.0000      -0.662224       -18.0200 
  22   2.0000      -0.626430       -17.0460 
  23   2.0000      -0.615436       -16.7469 
  24   2.0000      -0.573308       -15.6005 
  25   2.0000      -0.525490       -14.2993 
  26   2.0000      -0.489935       -13.3318 
  27   2.0000      -0.487799       -13.2737 
  28   2.0000      -0.470072       -12.7913 
  29   2.0000      -0.461591       -12.5605 
  30   2.0000      -0.454837       -12.3767 
  31   2.0000      -0.441079       -12.0024 
  32   2.0000      -0.435840       -11.8598 
  33   2.0000      -0.431151       -11.7322 
  34   2.0000      -0.411420       -11.1953 
  35   2.0000      -0.386523       -10.5178 
  36   2.0000      -0.374160       -10.1814 
  37   2.0000      -0.363491        -9.8911 
  38   2.0000      -0.330799        -9.0015 
  39   2.0000      -0.314353        -8.5540 
  40   2.0000      -0.286396        -7.7932 
  41   2.0000      -0.278225        -7.5709 
  42   2.0000      -0.272964        -7.4277 
  43   2.0000      -0.260486        -7.0882 
  44   2.0000      -0.230710        -6.2779 
  45   0.0000      -0.044489        -1.2106 
  46   0.0000      -0.027094        -0.7373 
  47   0.0000       0.041855         1.1389 
  48   0.0000       0.045609         1.2411 
  49   0.0000       0.051653         1.4055 
  50   0.0000       0.060617         1.6495 
  51   0.0000       0.087707         2.3866 
  52   0.0000       0.094240         2.5644 
  53   0.0000       0.103374         2.8130 
  54   0.0000       0.114831         3.1247 
  55   0.0000       0.120865         3.2889 
*Only the first 10 virtual orbitals were printed.

                    ********************************
                    * MULLIKEN POPULATION ANALYSIS *
                    ********************************

-----------------------
MULLIKEN ATOMIC CHARGES
-----------------------
   0 C :    0.032054
   1 C :    0.025220
   2 C :    0.027437
   3 C :   -0.196115
   4 C :    0.027208
   5 C :    0.028700
   6 P :    0.122986
   7 C :    0.105630
   8 O :   -0.311847
   9 C :    0.105684
  10 O :   -0.311854
  11 H :   -0.009602
  12 H :   -0.010538
  13 H :   -0.010270
  14 H :   -0.012884
  15 H :   -0.012866
  16 H :    0.033768
  17 H :    0.000609
  18 H :    0.166143
  19 H :    0.033794
  20 H :    0.000606
  21 H :    0.166137
Sum of atomic charges:   -0.0000000

--------------------------------
MULLIKEN REDUCED ORBITAL CHARGES
--------------------------------
  0 C s       :     3.160732  s :     3.160732
      pz      :     0.960518  p :     2.771728
      px      :     0.848588
      py      :     0.962622
      dz2     :     0.010756  d :     0.035486
      dxz     :     0.011078
      dyz     :     0.006164
      dx2y2   :     0.004789
      dxy     :     0.002699

  1 C s       :     3.160919  s :     3.160919
      pz      :     0.855028  p :     2.778938
      px      :     0.945732
      py      :     0.978179
      dz2     :     0.009279  d :     0.034923
      dxz     :     0.011688
      dyz     :     0.002900
      dx2y2   :     0.005426
      dxy     :     0.005630

  2 C s       :     3.228983  s :     3.228983
      pz      :     0.894920  p :     2.708391
      px      :     0.857674
      py      :     0.955797
      dz2     :     0.008646  d :     0.035189
      dxz     :     0.012918
      dyz     :     0.004034
      dx2y2   :     0.004745
      dxy     :     0.004846

  3 C s       :     3.115893  s :     3.115893
      pz      :     1.007822  p :     3.043352
      px      :     0.997742
      py      :     1.037788
      dz2     :     0.010268  d :     0.036869
      dxz     :     0.012305
      dyz     :     0.006361
      dx2y2   :     0.004825
      dxy     :     0.003110

  4 C s       :     3.210564  s :     3.210564
      pz      :     0.864033  p :     2.726990
      px      :     0.905431
      py      :     0.957526
      dz2     :     0.009738  d :     0.035238
      dxz     :     0.011137
      dyz     :     0.002733
      dx2y2   :     0.005558
      dxy     :     0.006072

  5 C s       :     3.159391  s :     3.159391
      pz      :     0.889834  p :     2.776852
      px      :     0.909650
      py      :     0.977369
      dz2     :     0.008593  d :     0.035057
      dxz     :     0.013166
      dyz     :     0.004058
      dx2y2   :     0.004682
      dxy     :     0.004557

  6 P s       :     5.792375  s :     5.792375
      pz      :     3.200217  p :     8.908082
      px      :     2.908924
      py      :     2.798941
      dz2     :     0.024716  d :     0.176557
      dxz     :     0.016797
      dyz     :     0.058832
      dx2y2   :     0.051529
      dxy     :     0.024683

  7 C s       :     3.018748  s :     3.018748
      pz      :     1.002006  p :     2.817802
      px      :     1.039992
      py      :     0.775804
      dz2     :     0.008541  d :     0.057820
      dxz     :     0.007223
      dyz     :     0.015297
      dx2y2   :     0.016420
      dxy     :     0.010340

  8 O s       :     3.735028  s :     3.735028
      pz      :     1.600692  p :     4.563363
      px      :     1.555109
      py      :     1.407562
      dz2     :     0.001676  d :     0.013456
      dxz     :     0.002906
      dyz     :     0.002164
      dx2y2   :     0.004651
      dxy     :     0.002060

  9 C s       :     3.018680  s :     3.018680
      pz      :     0.960718  p :     2.817815
      px      :     1.044309
      py      :     0.812788
      dz2     :     0.010096  d :     0.057821
      dxz     :     0.009342
      dyz     :     0.015035
      dx2y2   :     0.015287
      dxy     :     0.008060

 10 O s       :     3.735033  s :     3.735033
      pz      :     1.531349  p :     4.563365
      px      :     1.560535
      py      :     1.471480
      dz2     :     0.001270  d :     0.013456
      dxz     :     0.002558
      dyz     :     0.003190
      dx2y2   :     0.004072
      dxy     :     0.002367

 11 H s       :     0.986682  s :     0.986682
      pz      :     0.003823  p :     0.022920
      px      :     0.014609
      py      :     0.004488

 12 H s       :     0.987540  s :     0.987540
      pz      :     0.013674  p :     0.022998
      px      :     0.004577
      py      :     0.004747

 13 H s       :     0.987144  s :     0.987144
      pz      :     0.010014  p :     0.023126
      px      :     0.008545
      py      :     0.004567

 14 H s       :     0.989692  s :     0.989692
      pz      :     0.013808  p :     0.023193
      px      :     0.004485
      py      :     0.004900

 15 H s       :     0.989877  s :     0.989877
      pz      :     0.009863  p :     0.022989
      px      :     0.008399
      py      :     0.004727

 16 H s       :     0.944382  s :     0.944382
      pz      :     0.005526  p :     0.021850
      px      :     0.013853
      py      :     0.002471

 17 H s       :     0.977639  s :     0.977639
      pz      :     0.010570  p :     0.021752
      px      :     0.007746
      py      :     0.003436

 18 H s       :     0.765101  s :     0.765101
      pz      :     0.026674  p :     0.068756
      px      :     0.027628
      py      :     0.014454

 19 H s       :     0.944357  s :     0.944357
      pz      :     0.004956  p :     0.021850
      px      :     0.013923
      py      :     0.002970

 20 H s       :     0.977640  s :     0.977640
      pz      :     0.010459  p :     0.021754
      px      :     0.007852
      py      :     0.003442

 21 H s       :     0.765108  s :     0.765108
      pz      :     0.025660  p :     0.068754
      px      :     0.027769
      py      :     0.015325



                     *******************************
                     * LOEWDIN POPULATION ANALYSIS *
                     *******************************

----------------------
LOEWDIN ATOMIC CHARGES
----------------------
   0 C :   -0.009568
   1 C :   -0.021649
   2 C :   -0.025097
   3 C :   -0.212333
   4 C :   -0.020899
   5 C :   -0.019275
   6 P :    0.426398
   7 C :   -0.062634
   8 O :   -0.148457
   9 C :   -0.062641
  10 O :   -0.148456
  11 H :    0.029896
  12 H :    0.029699
  13 H :    0.026880
  14 H :    0.023909
  15 H :    0.029119
  16 H :    0.018745
  17 H :   -0.006905
  18 H :    0.070710
  19 H :    0.018754
  20 H :   -0.006908
  21 H :    0.070709

-------------------------------
LOEWDIN REDUCED ORBITAL CHARGES
-------------------------------
  0 C s       :     2.860967  s :     2.860967
      pz      :     1.068427  p :     3.056900
      px      :     1.042011
      py      :     0.946462
      dz2     :     0.030220  d :     0.091701
      dxz     :     0.031467
      dyz     :     0.013429
      dx2y2   :     0.011775
      dxy     :     0.004811

  1 C s       :     2.860814  s :     2.860814
      pz      :     1.041677  p :     3.070173
      px      :     1.065074
      py      :     0.963422
      dz2     :     0.024949  d :     0.090662
      dxz     :     0.032820
      dyz     :     0.005345
      dx2y2   :     0.015408
      dxy     :     0.012141

  2 C s       :     2.869542  s :     2.869542
      pz      :     1.051249  p :     3.063600
      px      :     1.062087
      py      :     0.950263
      dz2     :     0.023825  d :     0.091956
      dxz     :     0.036706
      dyz     :     0.008486
      dx2y2   :     0.012940
      dxy     :     0.009998

  3 C s       :     2.914980  s :     2.914980
      pz      :     1.089436  p :     3.203590
      px      :     1.106163
      py      :     1.007991
      dz2     :     0.029076  d :     0.093764
      dxz     :     0.033502
      dyz     :     0.013591
      dx2y2   :     0.011894
      dxy     :     0.005701

  4 C s       :     2.864371  s :     2.864371
      pz      :     1.045487  p :     3.063939
      px      :     1.066344
      py      :     0.952108
      dz2     :     0.026298  d :     0.092589
      dxz     :     0.031801
      dyz     :     0.005303
      dx2y2   :     0.016215
      dxy     :     0.012971

  5 C s       :     2.861014  s :     2.861014
      pz      :     1.051244  p :     3.067360
      px      :     1.053991
      py      :     0.962125
      dz2     :     0.024152  d :     0.090901
      dxz     :     0.036183
      dyz     :     0.008206
      dx2y2   :     0.012953
      dxy     :     0.009408

  6 P s       :     5.290252  s :     5.290252
      pz      :     3.241385  p :     9.042032
      px      :     2.979333
      py      :     2.821314
      dz2     :     0.032862  d :     0.241318
      dxz     :     0.022776
      dyz     :     0.080988
      dx2y2   :     0.074430
      dxy     :     0.030262

  7 C s       :     2.894745  s :     2.894745
      pz      :     1.074231  p :     3.040769
      px      :     1.080936
      py      :     0.885603
      dz2     :     0.019457  d :     0.127119
      dxz     :     0.017254
      dyz     :     0.033600
      dx2y2   :     0.037275
      dxy     :     0.019533

  8 O s       :     3.459480  s :     3.459480
      pz      :     1.621470  p :     4.664443
      px      :     1.588303
      py      :     1.454669
      dz2     :     0.002613  d :     0.024535
      dxz     :     0.006701
      dyz     :     0.003449
      dx2y2   :     0.008616
      dxy     :     0.003156

  9 C s       :     2.894742  s :     2.894742
      pz      :     1.027176  p :     3.040781
      px      :     1.085375
      py      :     0.928231
      dz2     :     0.022232  d :     0.127118
      dxz     :     0.022018
      dyz     :     0.032867
      dx2y2   :     0.035402
      dxy     :     0.014599

 10 O s       :     3.459480  s :     3.459480
      pz      :     1.556754  p :     4.664440
      px      :     1.594676
      py      :     1.513010
      dz2     :     0.001923  d :     0.024535
      dxz     :     0.006146
      dyz     :     0.005799
      dx2y2   :     0.007156
      dxy     :     0.003511

 11 H s       :     0.902624  s :     0.902624
      pz      :     0.012442  p :     0.067480
      px      :     0.041348
      py      :     0.013689

 12 H s       :     0.902618  s :     0.902618
      pz      :     0.038817  p :     0.067682
      px      :     0.014405
      py      :     0.014460

 13 H s       :     0.904302  s :     0.904302
      pz      :     0.029853  p :     0.068818
      px      :     0.024896
      py      :     0.014069

 14 H s       :     0.907216  s :     0.907216
      pz      :     0.039978  p :     0.068875
      px      :     0.014345
      py      :     0.014553

 15 H s       :     0.903170  s :     0.903170
      pz      :     0.028604  p :     0.067711
      px      :     0.024706
      py      :     0.014402

 16 H s       :     0.914393  s :     0.914393
      pz      :     0.016466  p :     0.066862
      px      :     0.040679
      py      :     0.009717

 17 H s       :     0.936590  s :     0.936590
      pz      :     0.035955  p :     0.070315
      px      :     0.021712
      py      :     0.012648

 18 H s       :     0.750281  s :     0.750281
      pz      :     0.070094  p :     0.179009
      px      :     0.073697
      py      :     0.035219

 19 H s       :     0.914383  s :     0.914383
      pz      :     0.015079  p :     0.066862
      px      :     0.040855
      py      :     0.010928

 20 H s       :     0.936592  s :     0.936592
      pz      :     0.036143  p :     0.070316
      px      :     0.021945
      py      :     0.012227

 21 H s       :     0.750283  s :     0.750283
      pz      :     0.065213  p :     0.179008
      px      :     0.074473
      py      :     0.039322



                      *****************************
                      * MAYER POPULATION ANALYSIS *
                      *****************************

  NA   - Mulliken gross atomic population
  ZA   - Total nuclear charge
  QA   - Mulliken gross atomic charge
  VA   - Mayer's total valence
  BVA  - Mayer's bonded valence
  FA   - Mayer's free valence

  ATOM       NA         ZA         QA         VA         BVA        FA
  0 C      5.9679     6.0000     0.0321     3.8298     3.8298     0.0000
  1 C      5.9748     6.0000     0.0252     3.8440     3.8440     0.0000
  2 C      5.9726     6.0000     0.0274     3.8539     3.8539     0.0000
  3 C      6.1961     6.0000    -0.1961     3.7052     3.7052     0.0000
  4 C      5.9728     6.0000     0.0272     3.8553     3.8553     0.0000
  5 C      5.9713     6.0000     0.0287     3.8588     3.8588    -0.0000
  6 P     14.8770    15.0000     0.1230     3.0302     3.0302    -0.0000
  7 C      5.8944     6.0000     0.1056     3.8990     3.8990    -0.0000
  8 O      8.3118     8.0000    -0.3118     2.0902     2.0902    -0.0000
  9 C      5.8943     6.0000     0.1057     3.8990     3.8990    -0.0000
 10 O      8.3119     8.0000    -0.3119     2.0902     2.0902    -0.0000
 11 H      1.0096     1.0000    -0.0096     0.9779     0.9779     0.0000
 12 H      1.0105     1.0000    -0.0105     0.9781     0.9781    -0.0000
 13 H      1.0103     1.0000    -0.0103     0.9966     0.9966     0.0000
 14 H      1.0129     1.0000    -0.0129     0.9881     0.9881     0.0000
 15 H      1.0129     1.0000    -0.0129     0.9778     0.9778     0.0000
 16 H      0.9662     1.0000     0.0338     0.9783     0.9783    -0.0000
 17 H      0.9994     1.0000     0.0006     0.9843     0.9843    -0.0000
 18 H      0.8339     1.0000     0.1661     1.0211     1.0211    -0.0000
 19 H      0.9662     1.0000     0.0338     0.9783     0.9783     0.0000
 20 H      0.9994     1.0000     0.0006     0.9843     0.9843    -0.0000
 21 H      0.8339     1.0000     0.1661     1.0211     1.0211    -0.0000

  Mayer bond orders larger than 0.100000
B(  0-C ,  1-C ) :   1.3875 B(  0-C ,  5-C ) :   1.3729 B(  0-C , 11-H ) :   0.9868 
B(  1-C ,  2-C ) :   1.3862 B(  1-C , 12-H ) :   0.9882 B(  2-C ,  3-C ) :   1.3669 
B(  2-C , 13-H ) :   0.9911 B(  3-C ,  4-C ) :   1.3281 B(  3-C ,  6-P ) :   0.9127 
B(  4-C ,  5-C ) :   1.4127 B(  4-C , 14-H ) :   0.9859 B(  5-C , 15-H ) :   0.9853 
B(  6-P ,  7-C ) :   0.9597 B(  6-P ,  9-C ) :   0.9598 B(  7-C ,  8-O ) :   1.0305 
B(  7-C , 16-H ) :   0.9509 B(  7-C , 17-H ) :   0.9169 B(  8-O , 18-H ) :   0.9808 
B(  9-C , 10-O ) :   1.0305 B(  9-C , 19-H ) :   0.9509 B(  9-C , 20-H ) :   0.9168 
B( 10-O , 21-H ) :   0.9808 

-------
TIMINGS
-------

Total SCF time: 0 days 0 hours 0 min 9 sec 

Total time                  ....       9.919 sec
Sum of individual times     ....       9.867 sec  ( 99.5%)

SCF preparation             ....       0.081 sec  (  0.8%)
Fock matrix formation       ....       9.448 sec  ( 95.3%)
  Startup                   ....       0.024 sec  (  0.3% of F)
  Exchange formation        ....       6.505 sec  ( 68.9% of F)
  Split-RI-J                ....       0.848 sec  (  9.0% of F)
  XC integration            ....       1.979 sec  ( 20.9% of F)
    Basis function eval.    ....       0.586 sec  ( 29.6% of XC)
    Density eval.           ....       0.459 sec  ( 23.2% of XC)
    XC-Functional eval.     ....       0.063 sec  (  3.2% of XC)
    XC-Potential eval.      ....       0.466 sec  ( 23.5% of XC)
Diagonalization             ....       0.000 sec  (  0.0%)
Density matrix formation    ....       0.047 sec  (  0.5%)
Total Energy calculation    ....       0.021 sec  (  0.2%)
Population analysis         ....       0.035 sec  (  0.4%)
Orbital Transformation      ....       0.029 sec  (  0.3%)
Orbital Orthonormalization  ....       0.000 sec  (  0.0%)
DIIS solution               ....       0.142 sec  (  1.4%)
SOSCF solution              ....       0.064 sec  (  0.6%)
Finished LeanSCF after   9.9 sec

Maximum memory used throughout the entire LEANSCF-calculation: 20.2 MB


-------------------------------------------------------------------------------
                          DFT DISPERSION CORRECTION                            
                                                                               
                              DFTD3 V3.1  Rev 1                                
                          USING Becke-Johnson damping                          
-------------------------------------------------------------------------------
The B3LYP functional is recognized
Active option DFTDOPT                   ...         4   

molecular C6(AA) [au] = 5822.330717 


            DFT-D V3
 parameters
 s6 scaling factor         :     1.0000 
 a1 scaling factor         :     0.3981 
 s8 scaling factor         :     1.9889 
 a2 scaling factor         :     4.4211 
 ad hoc parameters k1-k3   :    16.0000     1.3333    -4.0000 

 Edisp/kcal,au: -28.074464813135  -0.044739502715 
 E6   /kcal   : -12.761479580 
 E8   /kcal   : -15.312985233 
 % E8         :  54.544175053 

-------------------------   ----------------
Dispersion correction           -0.044739503
-------------------------   ----------------


-------------------------   --------------------
FINAL SINGLE POINT ENERGY      -802.514134674117
-------------------------   --------------------



           ************************************************************
           *        Program running with 6 parallel MPI-processes     *
           *              working on a common directory               *
           ************************************************************
------------------------------------------------------------------------------
                         ORCA SCF GRADIENT CALCULATION
------------------------------------------------------------------------------

Nuc. rep. gradient        (SHARK) ... done (  0.0 sec)
HCore & Overlap gradient  (SHARK) ... done (  0.1 sec)
Split-RIJ-J gradient      (SHARK) ... done (  0.3 sec)
O(N)X-gradient            (SHARK) ... done (  3.2 sec)
XC gradient                       ... done (  1.6 sec)
Dispersion correction             ... done (  0.1 sec)

-------------------
DISPERSION GRADIENT
-------------------

   1   C   :    0.000254555    0.000003680    0.000075086
   2   C   :    0.000361223    0.000039262    0.000380445
   3   C   :    0.000144805    0.000017781    0.000168944
   4   C   :    0.000390605    0.000037493    0.000371458
   5   C   :    0.000637591    0.000004758    0.000152195
   6   C   :    0.000571666   -0.000031388   -0.000150415
   7   P   :   -0.000798854    0.000047164    0.000236764
   8   C   :   -0.000474107    0.000566435   -0.000280485
   9   O   :   -0.000221497    0.000560332   -0.000150450
  10   C   :   -0.000499931   -0.000596561   -0.000135945
  11   O   :   -0.000246594   -0.000569878   -0.000009984
  12   H   :    0.000279239    0.000000759    0.000056004
  13   H   :    0.000109559    0.000031194    0.000270561
  14   H   :   -0.000010740    0.000046064    0.000368712
  15   H   :    0.000335030   -0.000052452   -0.000362175
  16   H   :    0.000221934   -0.000030309   -0.000204213
  17   H   :   -0.000220770    0.000210518   -0.000139172
  18   H   :   -0.000153521    0.000254512   -0.000322509
  19   H   :   -0.000130997    0.000486496   -0.000054448
  20   H   :   -0.000230514   -0.000228312   -0.000084632
  21   H   :   -0.000166250   -0.000318721   -0.000251266
  22   H   :   -0.000152432   -0.000478827    0.000065524

Difference to translation invariance:
           :   -0.0000000000    0.0000000000    0.0000000000

Difference to rotation invariance:
           :    0.0000000000   -0.0000000000   -0.0000000000

Norm of the Dispersion gradient    ...    0.0024397112
RMS gradient                       ...    0.0003003077
MAX gradient                       ...    0.0007988543

------------------
CARTESIAN GRADIENT
------------------

   1   C   :   -0.000821884   -0.000147340   -0.001368914
   2   C   :    0.002256133   -0.000003837    0.000379925
   3   C   :   -0.003851808   -0.000314023   -0.003161052
   4   C   :   -0.006553652    0.000414640    0.002031501
   5   C   :   -0.009757096    0.000229313    0.000313578
   6   C   :    0.004493426    0.000270990    0.002978013
   7   P   :    0.021109917   -0.003571182   -0.024704864
   8   C   :   -0.005128748   -0.018487309    0.012643847
   9   O   :   -0.003253591    0.010047660   -0.015082586
  10   C   :   -0.004264353    0.021202017    0.007608296
  11   O   :   -0.003790509   -0.013274296   -0.012202588
  12   H   :   -0.004154507    0.000005692   -0.000698304
  13   H   :   -0.000925711   -0.000455420   -0.003839326
  14   H   :    0.004603965   -0.000105111   -0.000069493
  15   H   :    0.003815216    0.000363098    0.003600367
  16   H   :   -0.002219148    0.000456829    0.003304350
  17   H   :    0.006127528    0.002941163    0.000307472
  18   H   :   -0.003832801    0.008589392    0.008843309
  19   H   :    0.001961181   -0.006229958    0.004491371
  20   H   :    0.005988191   -0.003054657    0.001064934
  21   H   :   -0.004070756   -0.005922887    0.010693725
  22   H   :    0.002269006    0.007045226    0.002866439

Difference to translation invariance:
           :   -0.0000000000    0.0000000000    0.0000000000

Difference to rotation invariance:
           :    0.0002168422   -0.0000662973    0.0001257103

Norm of the Cartesian gradient     ...    0.0604551368
RMS gradient                       ...    0.0074415129
MAX gradient                       ...    0.0247048642

-------
TIMINGS
-------

Total SCF gradient time     ....        5.273 sec

Densities                   ....       0.001 sec  (  0.0%)
One electron gradient       ....       0.092 sec  (  1.7%)
Two electron gradient       ....       3.157 sec  ( 59.9%)
RI-J Coulomb gradient       ....       0.331 sec  (  6.3%)
XC gradient                 ....       1.633 sec  ( 31.0%)

Maximum memory used throughout the entire SCFGRAD-calculation: 31.2 MB
------------------------------------------------------------------------------
                         ORCA GEOMETRY RELAXATION STEP
------------------------------------------------------------------------------

Reading the OPT-File                    .... done
Getting information on internals        .... done
Copying old internal coords+grads       .... done
Making the new internal coordinates     .... (2022 redundants) done
Validating the new internal coordinates .... (2022 redundants) done
Calculating the B-matrix                .... done
Calculating the G,G- and P matrices     .... done
Transforming gradient to internals      .... done
Projecting the internal gradient        .... done
Number of atoms                         ....  22
Number of internal coordinates          .... 101
Current Energy                          ....  -802.514134674 Eh
Current gradient norm                   ....     0.060455137 Eh/bohr
Maximum allowed component of the step   ....  0.300
Current trust radius                    ....  0.300
Evaluating the initial hessian          ....  (Almloef) done
Projecting the Hessian                  .... done
Forming the augmented Hessian           .... done
Diagonalizing the augmented Hessian     .... done
Last element of RFO vector              ....  0.973695320
Lowest eigenvalues of augmented Hessian:
 -0.006605405  0.003673513  0.003836518  0.003882745  0.018115461
Length of the computed step             ....  0.234009497
The final length of the internal step   ....  0.234009497
Converting the step to Cartesian space:
 Initial RMS(Int)=    0.0232848152
Transforming coordinates:
 Iter   0:  RMS(Cart)=    0.0487173935 RMS(Int)=    1.9771479316
 Iter   5:  RMS(Cart)=    0.0000000100 RMS(Int)=    0.0000000080
done
Storing new coordinates                 .... done

                                .--------------------.
          ----------------------|Geometry convergence|-------------------------
          Item                value                   Tolerance       Converged
          ---------------------------------------------------------------------
          RMS gradient        0.0044123663            0.0001000000      NO
          MAX gradient        0.0124750199            0.0003000000      NO
          RMS step            0.0232848152            0.0020000000      NO
          MAX step            0.0764733100            0.0040000000      NO
          ........................................................
          Max(Bonds)      0.0164      Max(Angles)    2.18
          Max(Dihed)        4.38      Max(Improp)    0.00
          ---------------------------------------------------------------------

The optimization has not yet converged - more geometry cycles are needed


    ---------------------------------------------------------------------------
                         Redundant Internal Coordinates
                            (Angstroem and degrees)

        Definition                    Value    dE/dq     Step     New-Value
    ----------------------------------------------------------------------------
     1. B(C   1,C   0)                1.3917 -0.005722  0.0049    1.3966   
     2. B(C   2,C   1)                1.3971 -0.001947  0.0017    1.3987   
     3. B(C   3,C   2)                1.4033 -0.002579  0.0022    1.4056   
     4. B(C   4,C   3)                1.4010 -0.006165  0.0053    1.4063   
     5. B(C   5,C   4)                1.3979  0.000748 -0.0007    1.3973   
     6. B(C   5,C   0)                1.3922 -0.006709  0.0057    1.3980   
     7. B(P   6,C   3)                1.8173 -0.012475  0.0149    1.8322   
     8. B(C   7,P   6)                1.8409 -0.009798  0.0127    1.8536   
     9. B(O   8,C   7)                1.4219  0.000614 -0.0006    1.4212   
    10. B(C   9,P   6)                1.8409 -0.009831  0.0128    1.8537   
    11. B(O  10,C   9)                1.4219  0.000614 -0.0006    1.4212   
    12. B(H  11,C   0)                1.0870 -0.004211  0.0060    1.0930   
    13. B(H  12,C   1)                1.0872 -0.003958  0.0057    1.0928   
    14. B(H  13,C   2)                1.0891 -0.002996  0.0043    1.0934   
    15. B(H  14,C   4)                1.0870 -0.004567  0.0065    1.0935   
    16. B(H  15,C   5)                1.0874 -0.003973  0.0057    1.0931   
    17. B(H  16,C   7)                1.0946 -0.005946  0.0087    1.1033   
    18. B(H  17,C   7)                1.0942 -0.011182  0.0164    1.1106   
    19. B(H  18,O   8)                0.9732  0.004939 -0.0052    0.9680   
    20. B(H  19,C   9)                1.0946 -0.005943  0.0087    1.1033   
    21. B(H  20,C   9)                1.0942 -0.011172  0.0164    1.1106   
    22. B(H  21,O  10)                0.9732  0.004967 -0.0052    0.9680   
    23. A(C   1,C   0,C   5)          119.78 -0.000114    0.03    119.81   
    24. A(C   5,C   0,H  11)          120.13  0.000173   -0.04    120.09   
    25. A(C   1,C   0,H  11)          120.10 -0.000060    0.00    120.10   
    26. A(C   0,C   1,H  12)          120.05 -0.000521    0.07    120.12   
    27. A(C   0,C   1,C   2)          120.03  0.000277   -0.03    120.01   
    28. A(C   2,C   1,H  12)          119.92  0.000245   -0.05    119.87   
    29. A(C   3,C   2,H  13)          120.63  0.003528   -0.56    120.06   
    30. A(C   1,C   2,H  13)          118.47 -0.003673    0.59    119.06   
    31. A(C   1,C   2,C   3)          120.90  0.000145   -0.03    120.87   
    32. A(C   2,C   3,P   6)          118.05  0.001237   -0.15    117.90   
    33. A(C   2,C   3,C   4)          118.36 -0.000572    0.06    118.42   
    34. A(C   4,C   3,P   6)          123.59 -0.000665    0.10    123.69   
    35. A(C   3,C   4,H  14)          121.34  0.002956   -0.46    120.88   
    36. A(C   3,C   4,C   5)          120.74 -0.000562    0.07    120.81   
    37. A(C   5,C   4,H  14)          117.92 -0.002394    0.39    118.31   
    38. A(C   0,C   5,C   4)          120.19  0.000826   -0.11    120.09   
    39. A(C   4,C   5,H  15)          119.93  0.000114   -0.03    119.90   
    40. A(C   0,C   5,H  15)          119.88 -0.000940    0.14    120.01   
    41. A(C   7,P   6,C   9)           98.95  0.001272   -1.16     97.79   
    42. A(C   3,P   6,C   9)          102.60  0.005259   -1.83    100.76   
    43. A(C   3,P   6,C   7)          102.60  0.005392   -1.86    100.73   
    44. A(H  16,C   7,H  17)          106.73  0.001872   -0.04    106.68   
    45. A(P   6,C   7,H  17)          111.23  0.000525    0.05    111.29   
    46. A(O   8,C   7,H  16)          106.98 -0.005171    0.47    107.45   
    47. A(P   6,C   7,H  16)          108.79  0.002380   -0.93    107.86   
    48. A(O   8,C   7,H  17)          107.29 -0.010805    2.18    109.47   
    49. A(P   6,C   7,O   8)          115.41  0.010440   -1.60    113.81   
    50. A(C   7,O   8,H  18)          105.34 -0.010663    1.70    107.04   
    51. A(O  10,C   9,H  19)          106.98 -0.005194    0.47    107.45   
    52. A(P   6,C   9,H  19)          108.79  0.002429   -0.94    107.85   
    53. A(P   6,C   9,O  10)          115.41  0.010422   -1.60    113.81   
    54. A(H  19,C   9,H  20)          106.73  0.001946   -0.07    106.66   
    55. A(O  10,C   9,H  20)          107.29 -0.010777    2.18    109.47   
    56. A(P   6,C   9,H  20)          111.23  0.000425    0.08    111.31   
    57. A(C   9,O  10,H  21)          105.34 -0.010645    1.69    107.04   
    58. D(H  12,C   1,C   0,C   5)   -180.00  0.000001   -0.00   -180.00   
    59. D(C   2,C   1,C   0,C   5)      0.00  0.000002   -0.00     -0.00   
    60. D(H  12,C   1,C   0,H  11)     -0.00  0.000003   -0.01     -0.01   
    61. D(C   2,C   1,C   0,H  11)   -180.00  0.000004   -0.01   -180.01   
    62. D(H  13,C   2,C   1,C   0)    180.00  0.000001   -0.00    180.00   
    63. D(C   3,C   2,C   1,C   0)     -0.00 -0.000007    0.01      0.01   
[...]

 21 H s       :     0.758918  s :     0.758918
      pz      :     0.019126  p :     0.068302
      px      :     0.033522
      py      :     0.015654



                     *******************************
                     * LOEWDIN POPULATION ANALYSIS *
                     *******************************

----------------------
LOEWDIN ATOMIC CHARGES
----------------------
   0 C :   -0.014778
   1 C :   -0.020549
   2 C :   -0.023764
   3 C :   -0.200461
   4 C :   -0.043128
   5 C :   -0.023321
   6 P :    0.425561
   7 C :   -0.064628
   8 O :   -0.136807
   9 C :   -0.064159
  10 O :   -0.136868
  11 H :    0.030609
  12 H :    0.031086
  13 H :    0.028773
  14 H :    0.023800
  15 H :    0.030051
  16 H :    0.019116
  17 H :   -0.009652
  18 H :    0.069653
  19 H :    0.018864
  20 H :   -0.009466
  21 H :    0.070067

-------------------------------
LOEWDIN REDUCED ORBITAL CHARGES
-------------------------------
  0 C s       :     2.865082  s :     2.865082
      pz      :     1.066135  p :     3.059937
      px      :     1.040466
      py      :     0.953336
      dz2     :     0.029886  d :     0.089759
      dxz     :     0.030888
      dyz     :     0.013065
      dx2y2   :     0.011378
      dxy     :     0.004542

  1 C s       :     2.864481  s :     2.864481
      pz      :     1.041163  p :     3.066419
      px      :     1.064891
      py      :     0.960365
      dz2     :     0.024582  d :     0.089649
      dxz     :     0.032765
      dyz     :     0.005227
      dx2y2   :     0.015097
      dxy     :     0.011977

  2 C s       :     2.871373  s :     2.871373
      pz      :     1.054291  p :     3.061099
      px      :     1.059431
      py      :     0.947377
      dz2     :     0.023729  d :     0.091291
      dxz     :     0.036713
      dyz     :     0.008086
      dx2y2   :     0.012991
      dxy     :     0.009772

  3 C s       :     2.925216  s :     2.925216
      pz      :     1.089031  p :     3.183989
      px      :     1.104327
      py      :     0.990632
      dz2     :     0.028154  d :     0.091256
      dxz     :     0.033054
      dyz     :     0.013341
      dx2y2   :     0.010922
      dxy     :     0.005784

  4 C s       :     2.869294  s :     2.869294
      pz      :     1.045525  p :     3.081935
      px      :     1.066992
      py      :     0.969418
      dz2     :     0.025670  d :     0.091898
      dxz     :     0.032396
      dyz     :     0.005066
      dx2y2   :     0.015803
      dxy     :     0.012963

  5 C s       :     2.864250  s :     2.864250
      pz      :     1.050109  p :     3.068831
      px      :     1.054441
      py      :     0.964281
      dz2     :     0.023954  d :     0.090241
      dxz     :     0.035662
      dyz     :     0.007949
      dx2y2   :     0.012951
      dxy     :     0.009725

  6 P s       :     5.361876  s :     5.361876
      pz      :     3.199552  p :     9.001225
      px      :     2.982091
      py      :     2.819582
      dz2     :     0.030482  d :     0.211337
      dxz     :     0.016530
      dyz     :     0.073796
      dx2y2   :     0.067949
      dxy     :     0.022579

  7 C s       :     2.905331  s :     2.905331
      pz      :     1.065347  p :     3.030378
      px      :     1.047567
      py      :     0.917464
      dz2     :     0.020631  d :     0.128919
      dxz     :     0.012999
      dyz     :     0.039701
      dx2y2   :     0.033412
      dxy     :     0.022176

  8 O s       :     3.443485  s :     3.443485
      pz      :     1.785660  p :     4.667944
      px      :     1.365957
      py      :     1.516327
      dz2     :     0.003290  d :     0.025378
      dxz     :     0.002145
      dyz     :     0.003651
      dx2y2   :     0.010741
      dxy     :     0.005550

  9 C s       :     2.905470  s :     2.905470
      pz      :     1.019715  p :     3.029706
      px      :     1.056038
      py      :     0.953954
      dz2     :     0.028984  d :     0.128982
      dxz     :     0.016562
      dyz     :     0.033266
      dx2y2   :     0.033329
      dxy     :     0.016841

 10 O s       :     3.443673  s :     3.443673
      pz      :     1.717406  p :     4.667804
      px      :     1.376032
      py      :     1.574365
      dz2     :     0.003640  d :     0.025391
      dxz     :     0.001929
      dyz     :     0.005309
      dx2y2   :     0.009714
      dxy     :     0.004800

 11 H s       :     0.902746  s :     0.902746
      pz      :     0.011892  p :     0.066645
      px      :     0.041172
      py      :     0.013580

 12 H s       :     0.902176  s :     0.902176
      pz      :     0.038491  p :     0.066738
      px      :     0.014297
      py      :     0.013950

 13 H s       :     0.903416  s :     0.903416
      pz      :     0.029156  p :     0.067811
      px      :     0.025043
      py      :     0.013612

 14 H s       :     0.908035  s :     0.908035
      pz      :     0.039037  p :     0.068165
      px      :     0.014577
      py      :     0.014551

 15 H s       :     0.903158  s :     0.903158
      pz      :     0.028827  p :     0.066792
      px      :     0.023895
      py      :     0.014070

 16 H s       :     0.915585  s :     0.915585
      pz      :     0.014566  p :     0.065299
      px      :     0.039884
      py      :     0.010848

 17 H s       :     0.941459  s :     0.941459
      pz      :     0.036773  p :     0.068194
      px      :     0.016467
      py      :     0.014953

 18 H s       :     0.749388  s :     0.749388
      pz      :     0.054283  p :     0.180959
      px      :     0.087514
      py      :     0.039162

 19 H s       :     0.915856  s :     0.915856
      pz      :     0.012481  p :     0.065279
      px      :     0.040537
      py      :     0.012261

 20 H s       :     0.941347  s :     0.941347
      pz      :     0.039116  p :     0.068120
      px      :     0.016967
      py      :     0.012037

 21 H s       :     0.749114  s :     0.749114
      pz      :     0.049818  p :     0.180819
      px      :     0.088826
      py      :     0.042175



                      *****************************
                      * MAYER POPULATION ANALYSIS *
                      *****************************

  NA   - Mulliken gross atomic population
  ZA   - Total nuclear charge
  QA   - Mulliken gross atomic charge
  VA   - Mayer's total valence
  BVA  - Mayer's bonded valence
  FA   - Mayer's free valence

  ATOM       NA         ZA         QA         VA         BVA        FA
  0 C      5.9765     6.0000     0.0235     3.8289     3.8289    -0.0000
  1 C      5.9758     6.0000     0.0242     3.8371     3.8371    -0.0000
  2 C      5.9599     6.0000     0.0401     3.8636     3.8636    -0.0000
  3 C      6.2384     6.0000    -0.2384     3.7488     3.7488    -0.0000
  4 C      6.0115     6.0000    -0.0115     3.8598     3.8598    -0.0000
  5 C      5.9647     6.0000     0.0353     3.8436     3.8436    -0.0000
  6 P     14.8148    15.0000     0.1852     2.9667     2.9667    -0.0000
  7 C      5.9146     6.0000     0.0854     3.8843     3.8843    -0.0000
  8 O      8.3078     8.0000    -0.3078     2.1027     2.1027    -0.0000
  9 C      5.9132     6.0000     0.0868     3.8830     3.8830    -0.0000
 10 O      8.3080     8.0000    -0.3080     2.1026     2.1026    -0.0000
 11 H      1.0065     1.0000    -0.0065     0.9783     0.9783    -0.0000
 12 H      1.0067     1.0000    -0.0067     0.9786     0.9786    -0.0000
 13 H      1.0066     1.0000    -0.0066     0.9952     0.9952     0.0000
 14 H      1.0134     1.0000    -0.0134     0.9878     0.9878    -0.0000
 15 H      1.0100     1.0000    -0.0100     0.9780     0.9780    -0.0000
 16 H      0.9609     1.0000     0.0391     0.9757     0.9757    -0.0000
 17 H      0.9976     1.0000     0.0024     0.9811     0.9811    -0.0000
 18 H      0.8275     1.0000     0.1725     1.0248     1.0248    -0.0000
 19 H      0.9609     1.0000     0.0391     0.9757     0.9757    -0.0000
 20 H      0.9976     1.0000     0.0024     0.9818     0.9818    -0.0000
 21 H      0.8272     1.0000     0.1728     1.0238     1.0238    -0.0000

  Mayer bond orders larger than 0.100000
B(  0-C ,  1-C ) :   1.3856 B(  0-C ,  5-C ) :   1.3737 B(  0-C , 11-H ) :   0.9851 
B(  1-C ,  2-C ) :   1.3841 B(  1-C , 12-H ) :   0.9869 B(  2-C ,  3-C ) :   1.3916 
B(  2-C , 13-H ) :   0.9867 B(  3-C ,  4-C ) :   1.3271 B(  3-C ,  6-P ) :   0.9035 
B(  4-C ,  5-C ) :   1.4039 B(  4-C , 14-H ) :   0.9854 B(  5-C , 15-H ) :   0.9847 
B(  6-P ,  7-C ) :   0.9395 B(  6-P ,  9-C ) :   0.9391 B(  7-C ,  8-O ) :   1.0271 
B(  7-C , 16-H ) :   0.9523 B(  7-C , 17-H ) :   0.9163 B(  8-O , 18-H ) :   0.9757 
B(  9-C , 10-O ) :   1.0272 B(  9-C , 19-H ) :   0.9526 B(  9-C , 20-H ) :   0.9168 
B( 10-O , 21-H ) :   0.9759 

-------
TIMINGS
-------

Total SCF time: 0 days 0 hours 0 min 4 sec 

Total time                  ....       4.243 sec
Sum of individual times     ....       4.200 sec  ( 99.0%)

SCF preparation             ....       0.093 sec  (  2.2%)
Fock matrix formation       ....       3.953 sec  ( 93.2%)
  Startup                   ....       0.011 sec  (  0.3% of F)
  Exchange formation        ....       2.744 sec  ( 69.4% of F)
  Split-RI-J                ....       0.362 sec  (  9.2% of F)
  XC integration            ....       0.797 sec  ( 20.2% of F)
    Basis function eval.    ....       0.224 sec  ( 28.1% of XC)
    Density eval.           ....       0.183 sec  ( 23.0% of XC)
    XC-Functional eval.     ....       0.025 sec  (  3.1% of XC)
    XC-Potential eval.      ....       0.208 sec  ( 26.1% of XC)
Diagonalization             ....       0.000 sec  (  0.0%)
Density matrix formation    ....       0.016 sec  (  0.4%)
Total Energy calculation    ....       0.008 sec  (  0.2%)
Population analysis         ....       0.050 sec  (  1.2%)
Orbital Transformation      ....       0.013 sec  (  0.3%)
Orbital Orthonormalization  ....       0.000 sec  (  0.0%)
DIIS solution               ....       0.018 sec  (  0.4%)
SOSCF solution              ....       0.049 sec  (  1.2%)
Finished LeanSCF after   4.3 sec

Maximum memory used throughout the entire LEANSCF-calculation: 21.2 MB


-------------------------------------------------------------------------------
                          DFT DISPERSION CORRECTION                            
                                                                               
                              DFTD3 V3.1  Rev 1                                
                          USING Becke-Johnson damping                          
-------------------------------------------------------------------------------
The B3LYP functional is recognized
Active option DFTDOPT                   ...         4   

molecular C6(AA) [au] = 5830.103419 


            DFT-D V3
 parameters
 s6 scaling factor         :     1.0000 
 a1 scaling factor         :     0.3981 
 s8 scaling factor         :     1.9889 
 a2 scaling factor         :     4.4211 
 ad hoc parameters k1-k3   :    16.0000     1.3333    -4.0000 

 Edisp/kcal,au: -28.578902310256  -0.045543374950 
 E6   /kcal   : -13.000921388 
 E8   /kcal   : -15.577980923 
 % E8         :  54.508674803 

-------------------------   ----------------
Dispersion correction           -0.045543375
-------------------------   ----------------


-------------------------   --------------------
FINAL SINGLE POINT ENERGY      -802.523429188283
-------------------------   --------------------

                                *** OPTIMIZATION RUN DONE ***



           ************************************************************
           *        Program running with 6 parallel MPI-processes     *
           *              working on a common directory               *
           ************************************************************

------------------------------------------------------------------------------
                              ORCA PROPERTY CALCULATIONS
------------------------------------------------------------------------------

GBWName                                 ... data/geom_opt/201037/201037.gbw
Number of atoms                         ...     22
Number of basis functions               ...    213
Max core memory                         ...   1024 MB

Electric properties:
Dipole moment                           ... YES
Quadrupole moment                       ...  NO
Static polarizability (Dipole/Dipole)   ...  NO
Static polarizability (Dipole/Quad.)    ...  NO
Static polarizability (Quad./Quad.)     ...  NO
Static polarizability (Velocity)        ...  NO

Atomic electric properties:
Dipole moment                           ...  NO
Quadrupole moment                       ...  NO
Static polarizability                   ...  NO

Choice of electric origin               ... Center of mass
Position of electric origin             ...    -0.489102     0.051934     0.285656

General magnetic properties:
Magnetizability                         ...  NO

EPR properties:
g-Tensor (aka g-matrix)                 ...  NO
Zero-Field splitting spin-orbit         ...  NO
Zero-field splitting spin-spin          ...  NO
Hyperfine couplings                     ...  NO (   0 nuclei)
Quadrupole couplings                    ...  NO (   0 nuclei)
Contact density                         ...  NO (   0 nuclei)

NMR properties:
Chemical shifts                         ...  NO (   0 nuclei)
Spin-rotation constants                 ...  NO (   0 nuclei)
Spin-spin couplings                     ...  NO (   0 nuclei,    0 pairs)

Choice of magnetic origin               ... GIAO
Position of magnetic origin             ...     0.000000     0.000000     0.000000

Properties with geometric perturbations:
SCF Hessian                             ...  NO
IR spectrum                             ...  NO
VCD spectrum                            ...  NO
X-ray spectroscopy properties:
SCF XES/XAS/RIXS spectra                ...  NO


-------------
DIPOLE MOMENT
-------------

Method             : SCF
Type of density    : Electron Density
Multiplicity       :   1
Irrep              :   0
Energy             :  -802.4778858133331596 Eh
Relativity type    : 
Basis              : AO
                                X                 Y                 Z
Electronic contribution:     -2.789003709       0.540501739       3.445308596
Nuclear contribution   :      3.914493312      -0.609255868      -3.716313921
                        -----------------------------------------
Total Dipole Moment    :      1.125489604      -0.068754130      -0.271005324
                        -----------------------------------------
Magnitude (a.u.)       :      1.159697316
Magnitude (Debye)      :      2.947716318



--------------------
Rotational spectrum 
--------------------
 
Rotational constants in cm-1:             0.041914             0.024896             0.019742 
Rotational constants in MHz :          1256.550686           746.351508           591.847029 

Dipole components along the rotational axes: 
x,y,z [a.u.] :     0.952375     0.011544     0.661625 
x,y,z [Debye]:     2.420744     0.029342     1.681716 

 

Dipole moment calculation done in   0.0 sec 

Maximum memory used throughout the entire PROP-calculation: 10.4 MB

--------------------------------
SUGGESTED CITATIONS FOR THIS RUN
--------------------------------

Below you find a list of papers that are relevant to this ORCA run
We neither can nor want to force you to cite these papers, but we appreciate if you do
You receive ORCA, which is the product of decades of hard work by many enthusiastic individuals, for free
The only thing we kindly ask in return is that you cite our papers,
We deeply appreciate it, if you show your appreciation for ORCA by not just citing the generic ORCA reference.

Please note that relegating all ORCA citations to the supporting information does *not* help us.
SI sections are not indexed - citations you put there will not count into any citation statistics
But we need these citations in order to attract the funding resources that allow us to do what we are doing

Therefore, if you are a happy ORCA user, please consider citing a few of the papers listed below in the main body of your paper

In addition to the list printed below, the program has created the file data/geom_opt/201037/201037.bibtex that contains the list in bibtex format
You can import this file easily into all common literature databanks and citation aid programs


List of essential papers. We consider these as the minimum necessary citations

  1. Neese,F.
     Software update: the ORCA program system, version 5.0
     WIRES Comput. Molec. Sci., 2022 12(1)e1606
     doi.org/10.1002/wcms.1606

List of papers to cite with high priority. The work reported in these papers was absolutely
necessary for this run to complete.
Our perspective: the developers of density functionals and basis sets usually get cited in chemistry papers
Good! But without the algorithms to do something with them, the functionals or basis sets would not do anything.
Hence, in our opinion, the algorithm design and method developments papers are equally worthy of getting cited

  1. Neese,F.
     An improvement of the resolution of the identity approximation for the formation of the Coulomb matrix
     J. Comp. Chem., 2003 24(14)1740-1747
     doi.org/10.1002/jcc.10318
  2. Neese,F.
     The SHARK Integral Generation and Digestion System
     J. Comp. Chem., 2022  1-16
     doi.org/10.1002/jcc.26942
  3. Grimme,S.; Antony,J.; Ehrlich,S.; Krieg,H.
     A consistent and accurate ab initio parametrization of density functional dispersion correction (DFT-D) for the 94 elements H-Pu
     J. Chem. Phys., 2010 132 154104-XXXX
     doi.org/10.1063/1.3382344
  4. Grimme,S.; Ehrlich,S.; Goerigk,L.
     Effect of the damping function in dispersion corrected density functional theory
     J. Comput. Chem., 2011 32(7)1456-1465
     doi.org/10.1002/jcc.21759

List of suggested additional citations. These are papers that are important in the 'surrounding' of 
of this run, or papers that preceded the highly important papers. If you like your results we are grateful for a citation.

  1. Neese,F.
     The ORCA program system
     WIRES Comput. Molec. Sci., 2012 2(1)73-78
     doi.org/10.1002/wcms.81
  2. Neese,F.
     Software update: the ORCA program system, version 4.0
     WIRES Comput. Molec. Sci., 2018 8(1)1-6
     doi.org/10.1002/wcms.1327
  3. Neese,F.; Wennmohs,F.; Becker,U.; Riplinger,C.
     The ORCA quantum chemistry program package
     J. Chem. Phys., 2020 152 Art. No. L224108
     doi.org/10.1063/5.0004608

List of optional additional citations

  1. Neese,F.
     Approximate second-order SCF convergence for spin unrestricted wavefunctions
     Chem. Phys. Lett., 2000 325(1-3)93-98
     doi.org/10.1016/s0009-2614(00)00662-x

Timings for individual modules:

Sum of individual times          ...      144.444 sec (=   2.407 min)
Startup calculation              ...        7.333 sec (=   0.122 min)   5.1 %
SCF iterations                   ...       87.445 sec (=   1.457 min)  60.5 %
Property calculations            ...        0.139 sec (=   0.002 min)   0.1 %
SCF Gradient evaluation          ...       49.451 sec (=   0.824 min)  34.2 %
Geometry relaxation              ...        0.076 sec (=   0.001 min)   0.1 %
                             ****ORCA TERMINATED NORMALLY****
TOTAL RUN TIME: 0 days 0 hours 2 minutes 26 seconds 234 msec
