
                                 *****************
                                 * O   R   C   A *
                                 *****************

                                            #,                                       
                                            ###                                      
                                            ####                                     
                                            #####                                    
                                            ######                                   
                                           ########,                                 
                                     ,,################,,,,,                         
                               ,,#################################,,                 
                          ,,##########################################,,             
                       ,#########################################, ''#####,          
                    ,#############################################,,   '####,        
                  ,##################################################,,,,####,       
                ,###########''''           ''''###############################       
              ,#####''   ,,,,##########,,,,          '''####'''          '####       
            ,##' ,,,,###########################,,,                        '##       
           ' ,,###''''                  '''############,,,                           
         ,,##''                                '''############,,,,        ,,,,,,###''
      ,#''                                            '''#######################'''  
     '                                                          ''''####''''         
             ,#######,   #######,   ,#######,      ##                                
            ,#'     '#,  ##    ##  ,#'     '#,    #''#        ,####,   ,####,        
            ##       ##  ##   ,#'  ##            #'  '#       #'       #'  '#        
            ##       ##  #######   ##           ,######,      #####,   #    #        
            '#,     ,#'  ##    ##  '#,     ,#' ,#      #,     #,   #   #,  ,#        
             '#######'   ##     ##  '#######'  #'      '#     '####' # '####'        



                #########################################################
                #                        -***-                          #
                #          Department of theory and spectroscopy        #
                #                                                       #
                #                      Frank Neese                      #
                #                                                       #
                #     Directorship, Architecture, Infrastructure        #
                #                    SHARK, DRIVERS                     #
                #        Core code/Algorithms in most modules           #
                #                                                       #
                #        Max Planck Institute fuer Kohlenforschung      #
                #                Kaiser Wilhelm Platz 1                 #
                #                 D-45470 Muelheim/Ruhr                 #
                #                      Germany                          #
                #                                                       #
                #                  All rights reserved                  #
                #                        -***-                          #
                #########################################################


                         Program Version 6.0.0  -   RELEASE   -


 With contributions from (in alphabetic order):
   Daniel Aravena         : Magnetic Suceptibility
   Michael Atanasov       : Ab Initio Ligand Field Theory (pilot matlab implementation)
   Alexander A. Auer      : GIAO ZORA, VPT2 properties, NMR spectrum
   Ute Becker             : All parallelization in ORCA, NUMFREQ, NUMCALC
   Giovanni Bistoni       : ED, misc. LED, open-shell LED, HFLD
   Martin Brehm           : Molecular dynamics
   Dmytro Bykov           : pre 5.0 version of the SCF Hessian
   Marcos Casanova-Páez   : Triplet and SCS-CIS(D). UHF-(DLPNO)-IP/EA/STEOM-CCSD. UHF-CVS-IP/STEOM-CCSD
   Vijay G. Chilkuri      : MRCI spin determinant printing, contributions to CSF-ICE
   Pauline Colinet        : FMM embedding
   Dipayan Datta          : RHF DLPNO-CCSD density
   Achintya Kumar Dutta   : EOM-CC, STEOM-CC
   Nicolas Foglia         : Exact transition moments, OPA infrastructure, MCD improvements
   Dmitry Ganyushin       : Spin-Orbit,Spin-Spin,Magnetic field MRCI
   Miquel Garcia          : C-PCM and meta-GGA Hessian, CCSD/C-PCM, Gaussian charge scheme
   Tiago L. C. Gouveia    : GS-ROHF, GS-ROCIS
   Yang Guo               : DLPNO-NEVPT2, F12-NEVPT2, CIM, IAO-localization
   Andreas Hansen         : Spin unrestricted coupled pair/coupled cluster methods
   Ingolf Harden          : AUTO-CI MPn and infrastructure 
   Benjamin Helmich-Paris : MC-RPA, TRAH-(SCF,CASSCF), AVAS, COSX integrals, SCF dyn. polar.
   Lee Huntington         : MR-EOM, pCC
   Robert Izsak           : Overlap fitted RIJCOSX, COSX-SCS-MP3, EOM
   Riya Kayal             : Wick's Theorem for AUTO-CI, AUTO-CI UHF-CCSDT
   Emily Kempfer          : AUTO-CI, RHF CISDT and CCSDT
   Christian Kollmar      : KDIIS, OOCD, Brueckner-CCSD(T), CCSD density, CASPT2, CASPT2-K, improved NEVPT2
   Axel Koslowski         : Symmetry handling
   Simone Kossmann        : Meta GGA functionals, TD-DFT gradient, OOMP2, (MP2 Hessian; deprecated post 5.0)
   Lucas Lang             : DCDCAS
   Marvin Lechner         : AUTO-CI (C++ implementation), FIC-MRCC
   Spencer Leger          : CASSCF response
   Dagmar Lenk            : GEPOL surface, SMD, ORCA-2-JSON
   Dimitrios Liakos       : Extrapolation schemes; Compound Job, initial MDCI parallelization
   Dimitrios Manganas     : Further ROCIS development; embedding schemes. LFT, Crystal Embedding
   Dimitrios Pantazis     : SARC Basis sets
   Anastasios Papadopoulos: AUTO-CI, single reference methods and gradients
   Taras Petrenko         : pre 6.0 DFT Hessian and TD-DFT gradient, (ASA, deprecated), ECA, 1-Electron XAS/XES, NRVS
   Peter Pinski           : DLPNO-MP2, DLPNO-MP2 Gradient
   Christoph Reimann      : Effective Core Potentials
   Marius Retegan         : Local ZFS, SOC
   Christoph Riplinger    : Optimizer, TS searches, QM/MM, DLPNO-CCSD(T), (RO)-DLPNO pert. Triples
   Michael Roemelt        : Original ROCIS implementation
   Masaaki Saitow         : Open-shell DLPNO-CCSD energy and density
   Barbara Sandhoefer     : DKH picture change effects
   Kantharuban Sivalingam : CASSCF convergence/infrastructure, NEVPT2 and variants, FIC-MRCI
   Bernardo de Souza      : ESD, SOC TD-DFT
   Georgi Stoychev        : AutoAux, RI-MP2 NMR, DLPNO-MP2 response, X2C
   Van Anh Tran           : RI-MP2 g-tensors
   Willem Van den Heuvel  : Paramagnetic NMR
   Zikuan Wang            : NOTCH, Electric field optimization 
   Frank Wennmohs         : Technical directorship and infrastructure
   Hang Xu                : AUTO-CI-Response properties 


 We gratefully acknowledge several colleagues who have allowed us to
 interface, adapt or use parts of their codes:
   Stefan Grimme, W. Hujo, H. Kruse, P. Pracht,  : VdW corrections, initial TS optimization,
                  C. Bannwarth, S. Ehlert,         DFT functionals, gCP, sTDA/sTD-DF
                  L. Wittmann, M. Mueller
   Ed Valeev, F. Pavosevic, A. Kumar             : LibInt (2-el integral package), F12 methods
   Garnet Chan, S. Sharma, J. Yang, R. Olivares  : DMRG
   Ulf Ekstrom                                   : XCFun DFT Library
   Mihaly Kallay                                 : mrcc  (arbitrary order and MRCC methods)
   Frank Weinhold                                : gennbo (NPA and NBO analysis)
   Simon Mueller                                 : openCOSMO-RS
   Christopher J. Cramer and Donald G. Truhlar   : smd solvation model
   Lars Goerigk                                  : TD-DFT with DH, B97 family of functionals
   V. Asgeirsson, H. Jonsson                     : NEB implementation
   FAccTs GmbH                                   : IRC, NEB, NEB-TS, DLPNO-Multilevel, CI-OPT
                                                   MM, QMMM, 2- and 3-layer-ONIOM, Crystal-QMMM,
                                                   LR-CPCM, SF, NACMEs, symmetry and pop. for TD-DFT,
                                                   nearIR, NL-DFT gradient (VV10), updates on ESD,
                                                   ML-optimized integration grids, MBIS, APM,
                                                   GOAT, DOCKER, SOLVATOR, interface openCOSMO-RS
   S Lehtola, MJT Oliveira, MAL Marques          : LibXC Library
   Liviu Ungur et al                             : ANISO software


 Your calculation uses the libint2 library for the computation of 2-el integrals
 For citations please refer to: http://libint.valeyev.net

 Your ORCA version has been built with support for libXC version: 6.2.2
 For citations please refer to: https://libxc.gitlab.io

 This ORCA versions uses:
   CBLAS   interface :  Fast vector & matrix operations
   LAPACKE interface :  Fast linear algebra routines
   Shared memory     :  Shared parallel matrices


Your calculation utilizes the atom-pairwise dispersion correction
with the Becke-Johnson damping scheme (D3BJ)


Warning: RI is on but no J-basis has been assigned. Assigning Def2/J (nothing to worry about!)
================================================================================

----- Orbital basis set information -----
Your calculation utilizes the basis: def2-SVP
   F. Weigend and R. Ahlrichs, Phys. Chem. Chem. Phys. 7, 3297 (2005).

----- AuxJ basis set information -----
Your calculation utilizes the auxiliary basis: def2/J
   F. Weigend, Phys. Chem. Chem. Phys. 8, 1057 (2006).

================================================================================
                                        WARNINGS
                       Please study these warnings very carefully!
================================================================================


WARNING: Geometry Optimization
  ===> : Switching off AutoStart
         For restart on a previous wavefunction, please use MOREAD

================================================================================
                                       INPUT FILE
================================================================================
NAME = data/geom_opt_P_BP86/80757/80757.inp
|  1> ! RI BP86 def2-SVP D3BJ TIGHTSCF Opt
|  2> %pal
|  3> nprocs 6
|  4> end
|  5> 
|  6> * xyz 0 1
|  7> C      5.231090    1.138130    0.106683
|  8> C      3.829150    1.644308    0.406653
|  9> C      2.768097    0.827426   -0.332714
| 10> C      1.361819    1.343425   -0.023235
| 11> P      0.055063    0.416204   -0.949928
| 12> C     -1.449865    1.223578   -0.236173
| 13> C     -2.744878    0.592442   -0.750235
| 14> C     -3.970290    1.311869   -0.184034
| 15> C     -5.263290    0.690826   -0.688109
| 16> C      0.061664   -1.205659   -0.124254
| 17> C     -0.036638   -1.366173    1.264113
| 18> C     -0.025958   -2.639983    1.840048
| 19> C      0.083216   -3.770707    1.034892
| 20> C      0.181763   -3.628653   -0.346314
| 21> C      0.171000   -2.355026   -0.921042
| 22> H      5.973156    1.735931    0.645072
| 23> H      5.346008    0.094494    0.416461
| 24> H      5.451944    1.205568   -0.963360
| 25> H      3.652186    1.592934    1.487296
| 26> H      3.757712    2.698662    0.115253
| 27> H      2.860026   -0.226813   -0.043237
| 28> H      2.958549    0.877544   -1.412560
| 29> H      1.175888    1.306304    1.055372
| 30> H      1.292973    2.397062   -0.318777
| 31> H     -1.425731    1.195406    0.858344
| 32> H     -1.426767    2.281135   -0.524747
| 33> H     -2.789751   -0.467627   -0.471119
| 34> H     -2.774375    0.633185   -1.846739
| 35> H     -3.945320    2.370332   -0.468130
| 36> H     -3.954092    1.268725    0.911238
| 37> H     -6.125748    1.220237   -0.271237
| 38> H     -5.325674    0.746198   -1.779603
| 39> H     -5.334757   -0.360755   -0.392452
| 40> H     -0.123106   -0.505621    1.921507
| 41> H     -0.103085   -2.747235    2.918817
| 42> H      0.091496   -4.760702    1.482766
| 43> H      0.267207   -4.507327   -0.980007
| 44> H      0.249315   -2.269642   -2.003205
| 45> **                         ****END OF INPUT****
================================================================================

                       *****************************
                       * Geometry Optimization Run *
                       *****************************

Geometry optimization settings:
Update method            Update   .... BFGS
Choice of coordinates    CoordSys .... (2022) Redundant Internals
Initial Hessian          InHess   .... Almloef's Model
Max. no of cycles        MaxIter  .... 114

Convergence Tolerances:
Energy Change            TolE     ....  5.0000e-06 Eh
Max. Gradient            TolMAXG  ....  3.0000e-04 Eh/bohr
RMS Gradient             TolRMSG  ....  1.0000e-04 Eh/bohr
Max. Displacement        TolMAXD  ....  4.0000e-03 bohr
RMS Displacement         TolRMSD  ....  2.0000e-03 bohr
Strict Convergence                .... False

------------------------------------------------------------------------------
                        ORCA OPTIMIZATION COORDINATE SETUP
------------------------------------------------------------------------------

The optimization will be done in redundant internal coordinates (2022)
Making redundant internal coordinates   ...  (2022 redundants) done
Evaluating the initial hessian          ...  (Almloef) done
Evaluating the coordinates              ...  done
Calculating the B-matrix                .... done
Calculating the G-matrix                .... done
Diagonalizing the G-matrix              .... done
Small eigenvalue found = 3.253e-03
Small eigenvalue found = 5.186e-03
Small eigenvalue found = 1.073e-02
Small eigenvalue found = 1.625e-02
Small eigenvalue found = 1.665e-02
Small eigenvalue found = 2.564e-02
The first mode is                       ....   73
The number of degrees of freedom        ....  108

    -----------------------------------------------------------------
                    Redundant Internal Coordinates


    -----------------------------------------------------------------
         Definition                    Initial Value    Approx d2E/dq
    -----------------------------------------------------------------
      1. B(C   1,C   0)                  1.5204         0.386976   
      2. B(C   2,C   1)                  1.5296         0.374071   
      3. B(C   3,C   2)                  1.5296         0.374136   
      4. B(P   4,C   3)                  1.8510         0.386167   
      5. B(C   5,P   4)                  1.8510         0.386168   
      6. B(C   6,C   5)                  1.5296         0.374135   
      7. B(C   7,C   6)                  1.5296         0.374071   
      8. B(C   8,C   7)                  1.5204         0.386976   
      9. B(C   9,P   4)                  1.8200         0.432786   
     10. B(C  10,C   9)                  1.4011         0.599902   
     11. B(C  11,C  10)                  1.3980         0.606699   
     12. B(C  12,C  11)                  1.3924         0.619349   
     13. B(C  13,C  12)                  1.3920         0.620258   
     14. B(C  14,C  13)                  1.3973         0.608178   
     15. B(C  14,C   9)                  1.4028         0.596080   
     16. B(H  15,C   0)                  1.0945         0.354220   
     17. B(H  16,C   0)                  1.0947         0.353950   
     18. B(H  17,C   0)                  1.0947         0.353967   
     19. B(H  18,C   1)                  1.0962         0.351938   
     20. B(H  19,C   1)                  1.0962         0.351976   
     21. B(H  20,C   2)                  1.0971         0.350806   
     22. B(H  21,C   2)                  1.0977         0.350112   
     23. B(H  22,C   3)                  1.0951         0.353358   
     24. B(H  23,C   3)                  1.0965         0.351648   
     25. B(H  24,C   5)                  1.0951         0.353357   
     26. B(H  25,C   5)                  1.0965         0.351649   
     27. B(H  26,C   6)                  1.0971         0.350807   
     28. B(H  27,C   6)                  1.0977         0.350112   
     29. B(H  28,C   7)                  1.0962         0.351977   
     30. B(H  29,C   7)                  1.0962         0.351938   
     31. B(H  30,C   8)                  1.0945         0.354219   
     32. B(H  31,C   8)                  1.0947         0.353966   
     33. B(H  32,C   8)                  1.0947         0.353951   
     34. B(H  33,C  10)                  1.0864         0.364938   
     35. B(H  34,C  11)                  1.0868         0.364321   
     36. B(H  35,C  12)                  1.0866         0.364595   
     37. B(H  36,C  13)                  1.0867         0.364481   
     38. B(H  37,C  14)                  1.0883         0.362293   
     39. A(C   1,C   0,H  17)          111.0007         0.325283   
     40. A(H  16,C   0,H  17)          108.3106         0.289274   
     41. A(C   1,C   0,H  16)          110.9997         0.325280   
     42. A(H  15,C   0,H  16)          108.0800         0.289306   
     43. A(H  15,C   0,H  17)          108.0836         0.289308   
     44. A(C   1,C   0,H  15)          110.2603         0.325321   
     45. A(C   0,C   1,C   2)          111.4972         0.365632   
     46. A(C   2,C   1,H  18)          109.8452         0.323171   
     47. A(H  18,C   1,H  19)          107.2533         0.288760   
     48. A(C   0,C   1,H  19)          109.1386         0.324982   
     49. A(C   0,C   1,H  18)          109.1315         0.324976   
     50. A(C   2,C   1,H  19)          109.8739         0.323177   
     51. A(C   3,C   2,H  20)          110.3535         0.323010   
     52. A(C   3,C   2,H  21)          110.0696         0.322905   
     53. A(C   1,C   2,H  21)          109.3160         0.322896   
     54. A(C   1,C   2,H  20)          109.1174         0.323001   
     55. A(H  20,C   2,H  21)          106.7925         0.288375   
     56. A(C   1,C   2,C   3)          111.0873         0.363527   
     57. A(C   2,C   3,P   4)          112.2583         0.389005   
     58. A(P   4,C   3,H  23)          107.5835         0.344856   
     59. A(H  22,C   3,H  23)          106.7013         0.288900   
     60. A(C   2,C   3,H  23)          109.1086         0.323137   
     61. A(P   4,C   3,H  22)          110.8702         0.345137   
     62. A(C   2,C   3,H  22)          110.1164         0.323394   
     63. A(C   5,P   4,C   9)          102.5164         0.425402   
     64. A(C   3,P   4,C   9)          102.5163         0.425401   
     65. A(C   3,P   4,C   5)           99.3484         0.416835   
     66. A(H  24,C   5,H  25)          106.7013         0.288900   
     67. A(P   4,C   5,C   6)          112.2583         0.389005   
     68. A(C   6,C   5,H  25)          109.1086         0.323137   
     69. A(P   4,C   5,H  25)          107.5835         0.344856   
     70. A(C   6,C   5,H  24)          110.1164         0.323394   
     71. A(P   4,C   5,H  24)          110.8701         0.345137   
     72. A(C   5,C   6,C   7)          111.0872         0.363527   
     73. A(C   7,C   6,H  27)          109.3161         0.322896   
     74. A(H  26,C   6,H  27)          106.7925         0.288375   
     75. A(C   5,C   6,H  27)          110.0696         0.322905   
     76. A(C   7,C   6,H  26)          109.1175         0.323001   
     77. A(C   5,C   6,H  26)          110.3535         0.323010   
     78. A(C   8,C   7,H  29)          109.1315         0.324976   
     79. A(H  28,C   7,H  29)          107.2533         0.288760   
     80. A(C   6,C   7,H  29)          109.8451         0.323171   
     81. A(C   8,C   7,H  28)          109.1386         0.324982   
     82. A(C   6,C   7,H  28)          109.8739         0.323177   
     83. A(C   6,C   7,C   8)          111.4972         0.365632   
     84. A(H  31,C   8,H  32)          108.3106         0.289274   
     85. A(H  30,C   8,H  32)          108.0800         0.289306   
     86. A(H  30,C   8,H  31)          108.0835         0.289308   
     87. A(C   7,C   8,H  32)          110.9997         0.325281   
     88. A(C   7,C   8,H  31)          111.0007         0.325283   
     89. A(C   7,C   8,H  30)          110.2602         0.325321   
     90. A(C  10,C   9,C  14)          118.3234         0.428465   
     91. A(P   4,C   9,C  14)          118.2130         0.431069   
     92. A(P   4,C   9,C  10)          123.4637         0.431565   
     93. A(C   9,C  10,H  33)          120.9626         0.351740   
     94. A(C  11,C  10,H  33)          118.2344         0.352411   
     95. A(C   9,C  10,C  11)          120.8030         0.429825   
     96. A(C  12,C  11,H  34)          119.9600         0.353543   
     97. A(C  10,C  11,H  34)          119.8870         0.352310   
     98. A(C  10,C  11,C  12)          120.1530         0.432295   
     99. A(C  11,C  12,C  13)          119.7659         0.434017   
    100. A(C  13,C  12,H  35)          120.0937         0.353676   
    101. A(C  11,C  12,H  35)          120.1404         0.353588   
    102. A(C  14,C  13,H  36)          119.8507         0.352482   
    103. A(C  12,C  13,H  36)          120.1103         0.353657   
    104. A(C  12,C  13,C  14)          120.0389         0.432598   
    105. A(C  13,C  14,H  37)          118.6800         0.352123   
    106. A(C   9,C  14,H  37)          120.4042         0.350929   
    107. A(C   9,C  14,C  13)          120.9158         0.429520   
    108. D(H  18,C   1,C   0,H  16)     61.2578         0.011914   
    109. D(C   2,C   1,C   0,H  15)    179.9982         0.011914   
    110. D(H  18,C   1,C   0,H  15)    -58.4804         0.011914   
    111. D(C   2,C   1,C   0,H  17)     60.2548         0.011914   
    112. D(H  18,C   1,C   0,H  17)   -178.2238         0.011914   
    113. D(C   2,C   1,C   0,H  16)    -60.2636         0.011914   
    114. D(C   3,C   2,C   1,C   0)    179.9397         0.011172   
    115. D(H  20,C   2,C   1,H  19)    179.1908         0.011172   
    116. D(H  20,C   2,C   1,H  18)    -63.0502         0.011172   
    117. D(C   3,C   2,C   1,H  19)    -58.9256         0.011172   
    118. D(H  20,C   2,C   1,C   0)     58.0561         0.011172   
    119. D(C   3,C   2,C   1,H  18)     58.8334         0.011172   
    120. D(P   4,C   3,C   2,H  21)     56.7089         0.011175   
    121. D(P   4,C   3,C   2,H  20)    -60.9109         0.011175   
    122. D(P   4,C   3,C   2,C   1)    177.9285         0.011175   
    123. D(H  22,C   3,C   2,C   1)    -58.0260         0.011175   
    124. D(H  22,C   3,C   2,H  21)   -179.2456         0.011175   
    125. D(H  22,C   3,C   2,H  20)     63.1346         0.011175   
    126. D(C   9,P   4,C   3,C   2)     70.9926         0.003515   
    127. D(C   5,P   4,C   3,H  23)    -63.7968         0.003515   
    128. D(C   5,P   4,C   3,H  22)     52.5281         0.003515   
    129. D(C   9,P   4,C   3,H  22)    -52.6327         0.003515   
    130. D(C   5,P   4,C   3,C   2)    176.1533         0.003515   
    131. D(H  25,C   5,P   4,C   3)     63.7964         0.003515   
    132. D(H  24,C   5,P   4,C   9)     52.6323         0.003515   
    133. D(H  24,C   5,P   4,C   3)    -52.5284         0.003515   
    134. D(C   6,C   5,P   4,C   9)    -70.9929         0.003515   
    135. D(C   6,C   5,P   4,C   3)   -176.1536         0.003515   
    136. D(C   7,C   6,C   5,H  25)    -58.7684         0.011175   
    137. D(C   7,C   6,C   5,H  24)     58.0263         0.011175   
    138. D(C   7,C   6,C   5,P   4)   -177.9283         0.011175   
    139. D(H  26,C   6,C   5,H  25)   -179.9290         0.011175   
    140. D(H  26,C   6,C   5,H  24)    -63.1343         0.011175   
    141. D(H  26,C   6,C   5,P   4)     60.9111         0.011175   
    142. D(H  28,C   7,C   6,H  27)    -62.7354         0.011172   
    143. D(H  28,C   7,C   6,H  26)   -179.1910         0.011172   
    144. D(H  28,C   7,C   6,C   5)     58.9254         0.011172   
    145. D(C   8,C   7,C   6,H  26)    -58.0562         0.011172   
    146. D(C   8,C   7,C   6,C   5)   -179.9398         0.011172   
    147. D(C   8,C   7,C   6,H  27)     58.3994         0.011172   
    148. D(H  31,C   8,C   7,H  29)    178.2236         0.011914   
    149. D(H  31,C   8,C   7,H  28)     61.3072         0.011914   
    150. D(H  31,C   8,C   7,C   6)    -60.2551         0.011914   
    151. D(H  30,C   8,C   7,H  29)     58.4804         0.011914   
    152. D(H  30,C   8,C   7,H  28)    -58.4360         0.011914   
    153. D(H  30,C   8,C   7,C   6)   -179.9983         0.011914   
    154. D(C  14,C   9,P   4,C   5)    128.6537         0.003833   
    155. D(C  14,C   9,P   4,C   3)   -128.6535         0.003833   
    156. D(C  10,C   9,P   4,C   5)    -51.3465         0.003833   
    157. D(C  10,C   9,P   4,C   3)     51.3463         0.003833   
    158. D(H  33,C  10,C   9,C  14)    180.0000         0.024809   
    159. D(H  33,C  10,C   9,P   4)      0.0001         0.024809   
    160. D(C  11,C  10,C   9,C  14)     -0.0001         0.024809   
    161. D(C  11,C  10,C   9,P   4)   -179.9999         0.024809   
    162. D(H  34,C  11,C  10,H  33)      0.0000         0.025406   
    163. D(H  34,C  11,C  10,C   9)   -179.9999         0.025406   
    164. D(C  12,C  11,C  10,H  33)    180.0000         0.025406   
    165. D(C  12,C  11,C  10,C   9)      0.0000         0.025406   
    166. D(H  35,C  12,C  11,H  34)     -0.0000         0.026540   
    167. D(H  35,C  12,C  11,C  10)   -180.0000         0.026540   
    168. D(C  13,C  12,C  11,H  34)    179.9999         0.026540   
    169. D(C  13,C  12,C  11,C  10)      0.0000         0.026540   
    170. D(C  14,C  13,C  12,C  11)      0.0000         0.026623   
    171. D(H  36,C  13,C  12,H  35)      0.0000         0.026623   
    172. D(H  36,C  13,C  12,C  11)   -179.9999         0.026623   
    173. D(C  14,C  13,C  12,H  35)    180.0000         0.026623   
    174. D(H  37,C  14,C  13,H  36)     -0.0000         0.025537   
    175. D(H  37,C  14,C  13,C  12)   -180.0000         0.025537   
    176. D(C   9,C  14,C  13,H  36)    179.9999         0.025537   
    177. D(C   9,C  14,C  13,C  12)     -0.0001         0.025537   
    178. D(H  37,C  14,C   9,C  10)    180.0000         0.024477   
    179. D(H  37,C  14,C   9,P   4)     -0.0001         0.024477   
    180. D(C  13,C  14,C   9,C  10)      0.0001         0.024477   
    181. D(C  13,C  14,C   9,P   4)    180.0000         0.024477   
    -----------------------------------------------------------------

Number of atoms                         .... 38
Number of degrees of freedom            .... 181


         *************************************************************
         *                GEOMETRY OPTIMIZATION CYCLE   1            *
         *************************************************************
---------------------------------
CARTESIAN COORDINATES (ANGSTROEM)
---------------------------------
  C      5.231090    1.138130    0.106683
  C      3.829150    1.644308    0.406653
  C      2.768097    0.827426   -0.332714
  C      1.361819    1.343425   -0.023235
  P      0.055063    0.416204   -0.949928
  C     -1.449865    1.223578   -0.236173
  C     -2.744878    0.592442   -0.750235
  C     -3.970290    1.311869   -0.184034
  C     -5.263290    0.690826   -0.688109
  C      0.061664   -1.205659   -0.124254
  C     -0.036638   -1.366173    1.264113
  C     -0.025958   -2.639983    1.840048
  C      0.083216   -3.770707    1.034892
  C      0.181763   -3.628653   -0.346314
  C      0.171000   -2.355026   -0.921042
  H      5.973156    1.735931    0.645072
  H      5.346008    0.094494    0.416461
  H      5.451944    1.205568   -0.963360
  H      3.652186    1.592934    1.487296
  H      3.757712    2.698662    0.115253
  H      2.860026   -0.226813   -0.043237
  H      2.958549    0.877544   -1.412560
  H      1.175888    1.306304    1.055372
  H      1.292973    2.397062   -0.318777
  H     -1.425731    1.195406    0.858344
  H     -1.426767    2.281135   -0.524747
  H     -2.789751   -0.467627   -0.471119
  H     -2.774375    0.633185   -1.846739
  H     -3.945320    2.370332   -0.468130
  H     -3.954092    1.268725    0.911238
  H     -6.125748    1.220237   -0.271237
  H     -5.325674    0.746198   -1.779603
  H     -5.334757   -0.360755   -0.392452
  H     -0.123106   -0.505621    1.921507
  H     -0.103085   -2.747235    2.918817
  H      0.091496   -4.760702    1.482766
  H      0.267207   -4.507327   -0.980007
  H      0.249315   -2.269642   -2.003205

----------------------------
CARTESIAN COORDINATES (A.U.)
----------------------------
  NO LB      ZA    FRAG     MASS         X           Y           Z
   0 C     6.0000    0    12.011    9.885327    2.150754    0.201602
   1 C     6.0000    0    12.011    7.236045    3.107292    0.768463
   2 C     6.0000    0    12.011    5.230945    1.563609   -0.628738
   3 C     6.0000    0    12.011    2.573465    2.538705   -0.043908
   4 P    15.0000    0    30.974    0.104054    0.786512   -1.795104
   5 C     6.0000    0    12.011   -2.739848    2.312227   -0.446302
   6 C     6.0000    0    12.011   -5.187068    1.119553   -1.417739
   7 C     6.0000    0    12.011   -7.502761    2.479073   -0.347774
   8 C     6.0000    0    12.011   -9.946177    1.305472   -1.300338
   9 C     6.0000    0    12.011    0.116528   -2.278365   -0.234806
  10 C     6.0000    0    12.011   -0.069236   -2.581693    2.388827
  11 C     6.0000    0    12.011   -0.049054   -4.988845    3.477187
  12 C     6.0000    0    12.011    0.157255   -7.125604    1.955662
  13 C     6.0000    0    12.011    0.343482   -6.857160   -0.654439
  14 C     6.0000    0    12.011    0.323143   -4.450354   -1.740517
  15 H     1.0000    0     1.008   11.287629    3.280434    1.219009
  16 H     1.0000    0     1.008   10.102491    0.178568    0.786997
  17 H     1.0000    0     1.008   10.302681    2.278193   -1.820487
  18 H     1.0000    0     1.008    6.901631    3.010209    2.810582
  19 H     1.0000    0     1.008    7.101047    5.099732    0.217797
  20 H     1.0000    0     1.008    5.404666   -0.428614   -0.081706
  21 H     1.0000    0     1.008    5.590847    1.658318   -2.669352
  22 H     1.0000    0     1.008    2.222106    2.468557    1.994364
  23 H     1.0000    0     1.008    2.443365    4.529791   -0.602401
  24 H     1.0000    0     1.008   -2.694241    2.258990    1.622035
  25 H     1.0000    0     1.008   -2.696199    4.310720   -0.991628
  26 H     1.0000    0     1.008   -5.271865   -0.883687   -0.890286
  27 H     1.0000    0     1.008   -5.242809    1.196546   -3.489831
  28 H     1.0000    0     1.008   -7.455574    4.479278   -0.884637
  29 H     1.0000    0     1.008   -7.472151    2.397543    1.721990
  30 H     1.0000    0     1.008  -11.575986    2.305914   -0.512564
  31 H     1.0000    0     1.008  -10.064065    1.410110   -3.362962
  32 H     1.0000    0     1.008  -10.081230   -0.681728   -0.741627
  33 H     1.0000    0     1.008   -0.232637   -0.955485    3.631122
  34 H     1.0000    0     1.008   -0.194802   -5.191522    5.515765
  35 H     1.0000    0     1.008    0.172902   -8.996423    2.802022
  36 H     1.0000    0     1.008    0.504948   -8.517614   -1.851945
  37 H     1.0000    0     1.008    0.471137   -4.289002   -3.785509

--------------------------------
INTERNAL COORDINATES (ANGSTROEM)
--------------------------------
 C      0   0   0     0.000000000000     0.00000000     0.00000000
 C      1   0   0     1.520405844564     0.00000000     0.00000000
 C      2   1   0     1.529638268161   111.49724005     0.00000000
 C      3   2   1     1.529591459418   111.08725227   179.93967077
 P      4   3   2     1.850975403031   112.25834007   177.92853784
 C      5   4   3     1.850974678672    99.34839378   176.15328184
 C      6   5   4     1.529591795385   112.25832490   183.84643071
 C      7   6   5     1.529638307076   111.08722420   182.07173047
 C      8   7   6     1.520406200156   111.49717641   180.06020223
 C      5   4   3     1.819950746104   102.51631630    70.99256358
 C     10   5   4     1.401067790683   123.46366765    51.34634371
 C     11  10   5     1.398001109701   120.80300259   180.00006262
 C     12  11  10     1.392383535808   120.15303467     0.00000000
 C     13  12  11     1.391984505862   119.76587273     0.00000000
 C     14  13  12     1.397338130619   120.03893301     0.00000000
 H      1   2   3     1.094481931910   110.26025162   179.99817324
 H      1   2   3     1.094689296789   110.99970629   299.73635279
 H      1   2   3     1.094676388258   111.00068860    60.25482147
 H      2   1   3     1.096241231947   109.13145604   121.52142154
 H      2   1   3     1.096211523913   109.13862918   238.43769943
 H      3   2   1     1.097117926064   109.11743773    58.05607553
 H      3   2   1     1.097657124035   109.31600409   301.60053055
 H      4   3   2     1.095144449765   110.11639188   301.97402915
 H      4   3   2     1.096465126326   109.10856036    58.76867566
 H      6   5   4     1.095145458297   110.87013814   307.47163023
 H      6   5   4     1.096464901093   107.58352371    63.79644633
 H      7   6   5     1.097116954725   110.35348317    60.91112457
 H      7   6   5     1.097657089930   110.06956122   303.29141583
 H      8   7   6     1.096210728138   109.87392631    58.92544108
 H      8   7   6     1.096241092974   109.84512619   301.16636041
 H      9   8   7     1.094482559509   110.26018682   180.00170403
 H      9   8   7     1.094676652659   111.00066832   299.74488882
 H      9   8   7     1.094688628469   110.99974888    60.26345662
 H     11  10   5     1.086367033265   120.96256815     0.00000000
 H     12  11  10     1.086827548875   119.88696942   180.00007248
 H     13  12  11     1.086623107752   120.14040189   180.00003506
 H     14  13  12     1.086708559670   120.11031810   180.00005797
 H     15  14  13     1.088347566382   118.68002766   180.00001894

---------------------------
INTERNAL COORDINATES (A.U.)
---------------------------
 C      0   0   0     0.000000000000     0.00000000     0.00000000
 C      1   0   0     2.873150658639     0.00000000     0.00000000
 C      2   1   0     2.890597410790   111.49724005     0.00000000
 C      3   2   1     2.890508955086   111.08725227   179.93967077
 P      4   3   2     3.497836592353   112.25834007   177.92853784
 C      5   4   3     3.497835223513    99.34839378   176.15328184
 C      6   5   4     2.890509589970   112.25832490   183.84643071
 C      7   6   5     2.890597484328   111.08722420   182.07173047
 C      8   7   6     2.873151330611   111.49717641   180.06020223
 C      5   4   3     3.439208487363   102.51631630    70.99256358
 C     10   5   4     2.647634419449   123.46366765    51.34634371
 C     11  10   5     2.641839232253   120.80300259   180.00006262
 C     12  11  10     2.631223556057   120.15303467     0.00000000
 C     13  12  11     2.630469498742   119.76587273     0.00000000
 C     14  13  12     2.640586383356   120.03893301     0.00000000
 H      1   2   3     2.068271109835   110.26025162   179.99817324
 H      1   2   3     2.068662972666   110.99970629   299.73635279
 H      1   2   3     2.068638579077   111.00068860    60.25482147
 H      2   1   3     2.071595705093   109.13145604   121.52142154
 H      2   1   3     2.071539565044   109.13862918   238.43769943
 H      3   2   1     2.073252416877   109.11743773    58.05607553
 H      3   2   1     2.074271353373   109.31600409   301.60053055
 H      4   3   2     2.069523087140   110.11639188   301.97402915
 H      4   3   2     2.072018804151   109.10856036    58.76867566
 H      6   5   4     2.069524992989   110.87013814   307.47163023
 H      6   5   4     2.072018378523   107.58352371    63.79644633
 H      7   6   5     2.073250581313   110.35348317    60.91112457
 H      7   6   5     2.074271288925   110.06956122   303.29141583
 H      8   7   6     2.071538061247   109.87392631    58.92544108
 H      8   7   6     2.071595442471   109.84512619   301.16636041
 H      9   8   7     2.068272295825   110.26018682   180.00170403
 H      9   8   7     2.068639078723   111.00066832   299.74488882
 H      9   8   7     2.068661709724   110.99974888    60.26345662
 H     11  10   5     2.052936173791   120.96256815     0.00000000
 H     12  11  10     2.053806422175   119.88696942   180.00007248
 H     13  12  11     2.053420084442   120.14040189   180.00003506
 H     14  13  12     2.053581565165   120.11031810   180.00005797
 H     15  14  13     2.056678838982   118.68002766   180.00001894

---------------------
BASIS SET INFORMATION
---------------------
There are 3 groups of distinct atoms

 Group   1 Type C   : 7s4p1d contracted to 3s2p1d pattern {511/31/1}
 Group   2 Type P   : 10s7p1d contracted to 4s3p1d pattern {5311/511/1}
 Group   3 Type H   : 4s1p contracted to 2s1p pattern {31/1}

Atom   0C    basis set group =>   1
Atom   1C    basis set group =>   1
Atom   2C    basis set group =>   1
Atom   3C    basis set group =>   1
Atom   4P    basis set group =>   2
Atom   5C    basis set group =>   1
Atom   6C    basis set group =>   1
Atom   7C    basis set group =>   1
Atom   8C    basis set group =>   1
Atom   9C    basis set group =>   1
Atom  10C    basis set group =>   1
Atom  11C    basis set group =>   1
Atom  12C    basis set group =>   1
Atom  13C    basis set group =>   1
Atom  14C    basis set group =>   1
Atom  15H    basis set group =>   3
Atom  16H    basis set group =>   3
Atom  17H    basis set group =>   3
Atom  18H    basis set group =>   3
Atom  19H    basis set group =>   3
Atom  20H    basis set group =>   3
Atom  21H    basis set group =>   3
Atom  22H    basis set group =>   3
Atom  23H    basis set group =>   3
Atom  24H    basis set group =>   3
Atom  25H    basis set group =>   3
Atom  26H    basis set group =>   3
Atom  27H    basis set group =>   3
Atom  28H    basis set group =>   3
Atom  29H    basis set group =>   3
Atom  30H    basis set group =>   3
Atom  31H    basis set group =>   3
Atom  32H    basis set group =>   3
Atom  33H    basis set group =>   3
Atom  34H    basis set group =>   3
Atom  35H    basis set group =>   3
Atom  36H    basis set group =>   3
Atom  37H    basis set group =>   3
---------------------------------
AUXILIARY/J BASIS SET INFORMATION
---------------------------------
There are 3 groups of distinct atoms

 Group   1 Type C   : 12s5p4d2f1g contracted to 6s4p3d1f1g pattern {711111/2111/211/2/1}
 Group   2 Type P   : 14s5p5d2f1g contracted to 8s4p3d1f1g pattern {71111111/2111/311/2/1}
 Group   3 Type H   : 5s2p1d contracted to 3s1p1d pattern {311/2/1}

Atom   0C    basis set group =>   1
Atom   1C    basis set group =>   1
Atom   2C    basis set group =>   1
Atom   3C    basis set group =>   1
Atom   4P    basis set group =>   2
Atom   5C    basis set group =>   1
Atom   6C    basis set group =>   1
Atom   7C    basis set group =>   1
Atom   8C    basis set group =>   1
Atom   9C    basis set group =>   1
Atom  10C    basis set group =>   1
Atom  11C    basis set group =>   1
Atom  12C    basis set group =>   1
Atom  13C    basis set group =>   1
Atom  14C    basis set group =>   1
Atom  15H    basis set group =>   3
Atom  16H    basis set group =>   3
Atom  17H    basis set group =>   3
Atom  18H    basis set group =>   3
Atom  19H    basis set group =>   3
Atom  20H    basis set group =>   3
Atom  21H    basis set group =>   3
Atom  22H    basis set group =>   3
Atom  23H    basis set group =>   3
Atom  24H    basis set group =>   3
Atom  25H    basis set group =>   3
Atom  26H    basis set group =>   3
Atom  27H    basis set group =>   3
Atom  28H    basis set group =>   3
Atom  29H    basis set group =>   3
Atom  30H    basis set group =>   3
Atom  31H    basis set group =>   3
Atom  32H    basis set group =>   3
Atom  33H    basis set group =>   3
Atom  34H    basis set group =>   3
Atom  35H    basis set group =>   3
Atom  36H    basis set group =>   3
Atom  37H    basis set group =>   3


           ************************************************************
           *        Program running with 6 parallel MPI-processes     *
           *              working on a common directory               *
           ************************************************************
------------------------------------------------------------------------------
                             ORCA STARTUP CALCULATIONS
                           -- RI-GTO INTEGRALS CHOSEN --
------------------------------------------------------------------------------
------------------------------------------------------------------------------
                   ___                                                        
                  /   \      - P O W E R E D   B Y -                         
                 /     \                                                     
                 |  |  |   _    _      __       _____    __    __             
                 |  |  |  | |  | |    /  \     |  _  \  |  |  /  |          
                  \  \/   | |  | |   /    \    | | | |  |  | /  /          
                 / \  \   | |__| |  /  /\  \   | |_| |  |  |/  /          
                |  |  |   |  __  | /  /__\  \  |    /   |      \           
                |  |  |   | |  | | |   __   |  |    \   |  |\   \          
                \     /   | |  | | |  |  |  |  | |\  \  |  | \   \       
                 \___/    |_|  |_| |__|  |__|  |_| \__\ |__|  \__/        
                                                                              
                      - O R C A' S   B I G   F R I E N D -                    
                                      &                                       
                       - I N T E G R A L  F E E D E R -                       
                                                                              
 v1 FN, 2020, v2 2021, v3 2022-2024                                           
------------------------------------------------------------------------------


----------------------
SHARK INTEGRAL PACKAGE
----------------------

Number of atoms                             ...     38
Number of basis functions                   ...    329
Number of shells                            ...    161
Maximum angular momentum                    ...      2
Integral batch strategy                     ... SHARK/LIBINT Hybrid
RI-J (if used) integral strategy            ... SPLIT-RIJ (Revised 2003 algorithm where possible)
Printlevel                                  ...      1
Contraction scheme used                     ... SEGMENTED contraction
Prescreening option                         ... SCHWARTZ
   Thresh                                   ... 2.500e-11
   Tcut                                     ... 2.500e-12
   Tpresel                                  ... 2.500e-12 
Coulomb Range Separation                    ... NOT USED
Exchange Range Separation                   ... NOT USED
Multipole approximations                    ... NOT USED
Finite Nucleus Model                        ... NOT USED
CABS basis                                  ... NOT available
Auxiliary Coulomb fitting basis             ... AVAILABLE
   # of basis functions in Aux-J            ...    990
   # of shells in Aux-J                     ...    342
   Maximum angular momentum in Aux-J        ...      4
Auxiliary J/K fitting basis                 ... NOT available
Auxiliary Correlation fitting basis         ... NOT available
Auxiliary 'external' fitting basis          ... NOT available

Checking pre-screening integrals            ... done (  0.0 sec) Dimension = 161
Check shell pair data                       ... done (  0.0 sec)
Shell pair information
Shell pair cut-off parameter TPreSel        ...   2.5e-12
Total number of shell pairs                 ...     13041
Shell pairs after pre-screening             ...      9985
Total number of primitive shell pairs       ...     45725
Primitive shell pairs kept                  ...     23250
          la=0 lb=0:   3440 shell pairs
          la=1 lb=0:   3842 shell pairs
          la=1 lb=1:   1073 shell pairs
          la=2 lb=0:   1005 shell pairs
          la=2 lb=1:    550 shell pairs
          la=2 lb=2:     75 shell pairs

Calculating one electron integrals          ... done (  0.0 sec)
Calculating RI/J V-Matrix + Cholesky decomp.... done (  0.1 sec)
Calculating Nuclear repulsion               ... done (  0.0 sec) ENN=   1083.967535955318 Eh

Diagonalization of the overlap matrix:
Smallest eigenvalue                        ... 2.871e-04
Time for diagonalization                   ...    0.021 sec
Threshold for overlap eigenvalues          ... 1.000e-07
Number of eigenvalues below threshold      ... 0
Time for construction of square roots      ...    0.011 sec
Total time needed                          ...    0.036 sec

-------------------
DFT GRID GENERATION
-------------------

General Integration Accuracy     IntAcc      ... 4.388
Radial Grid Type                 RadialGrid  ... OptM3 with GC (2021)
Angular Grid (max. ang.)         AngularGrid ... 4 (Lebedev-302)
Angular grid pruning method      GridPruning ... 4 (adaptive)
Weight generation scheme         WeightScheme... mBecke (2022)
Basis function cutoff            BFCut       ... 1.0000e-11
Integration weight cutoff        WCut        ... 1.0000e-14
Partially contracted basis set               ... off
Rotationally invariant grid construction     ... off
Angular grids for H and He will be reduced by one unit

Total number of grid points                  ...   164048
Total number of batches                      ...     2580
Average number of points per batch           ...       63
Average number of grid points per atom       ...     4317
Initializing property integral containers    ... done (  0.0 sec)

SHARK setup successfully completed in   1.1 seconds

Maximum memory used throughout the entire STARTUP-calculation: 43.9 MB


           ************************************************************
           *        Program running with 6 parallel MPI-processes     *
           *              working on a common directory               *
           ************************************************************
-------------------------------------------------------------------------------
                                 ORCA GUESS
                   Start orbitals & Density for SCF / CASSCF
-------------------------------------------------------------------------------

------------
SCF SETTINGS
------------
Hamiltonian:
 Density Functional     Method          .... DFT(GTOs)
 Exchange Functional    Exchange        .... B88
   X-Alpha parameter    XAlpha          ....  0.666667
   Becke's b parameter  XBeta           ....  0.004200
 Correlation Functional Correlation     .... P86
 LDA part of GGA corr.  LDAOpt          .... PW91-LDA
 Gradients option       PostSCFGGA      .... off
   NL short-range parameter             ....  4.400000
 RI-approximation to the Coulomb term is turned on
   Number of AuxJ basis functions       .... 990


General Settings:
 Integral files         IntName         .... data/geom_opt_P_BP86/80757/80757
 Hartree-Fock type      HFTyp           .... RHF
 Total Charge           Charge          ....    0
 Multiplicity           Mult            ....    1
 Number of Electrons    NEL             ....  122
 Basis Dimension        Dim             ....  329
 Nuclear Repulsion      ENuc            ....   1083.9675359553 Eh

Convergence Acceleration:
 AO-DIIS                CNVDIIS         .... on
   Start iteration      DIISMaxIt       ....    12
   Startup error        DIISStart       ....  0.200000
   # of expansion vecs  DIISMaxEq       ....     5
   Bias factor          DIISBfac        ....   1.050
   Max. coefficient     DIISMaxC        ....  10.000
 MO-DIIS                CNVKDIIS        .... off
 Trust-Rad. Augm. Hess. CNVTRAH         .... auto
   Auto Start mean grad. ratio tolernc. ....  1.125000
   Auto Start start iteration           ....    50
   Auto Start num. interpolation iter.  ....    10
   Max. Number of Micro iterations      ....    24
   Max. Number of Macro iterations      .... Maxiter - #DIIS iter
   Number of Davidson start vectors     ....     2
   Converg. threshold    (grad. norm)   ....   1.000e-05
   Grad. Scal. Fac. for Micro threshold ....   0.100
   Minimum threshold for Micro iter.    ....   1.000e-02
   NR start threshold (gradient norm)   ....   1.000e-04
   Initial trust radius                 ....   0.400
   Minimum AH scaling param. (alpha)    ....   1.000
   Maximum AH scaling param. (alpha)    .... 1000.000
   Quad. conv. algorithm                .... NR
   White noise on init. David. guess    .... on
   Maximum white noise                  ....   0.010
   Pseudo random numbers                .... off
   Inactive MOs                         .... canonical
   Orbital update algorithm             .... Taylor
   Preconditioner                       .... Diag
   Full preconditioner red. dimension   ....   250
 SOSCF                  CNVSOSCF        .... on
   Start iteration      SOSCFMaxIt      ....   150
   Startup grad/error   SOSCFStart      ....  0.003300
   Hessian update       SOSCFHessUp     .... L-BFGS
 Level Shifting         CNVShift        .... on
   Level shift para.    LevelShift      ....    0.2500
   Turn off err/grad.   ShiftErr        ....    0.0010
 Zerner damping         CNVZerner       .... off
 Static damping         CNVDamp         .... on
   Fraction old density DampFac         ....    0.7000
   Max. Damping (<1)    DampMax         ....    0.9800
   Min. Damping (>=0)   DampMin         ....    0.0000
   Turn off err/grad.   DampErr         ....    0.1000

SCF Procedure:
 Maximum # iterations   MaxIter         ....   125
 SCF integral mode      SCFMode         .... Direct
   Integral package                     .... SHARK and LIBINT hybrid scheme
 Reset frequency        DirectResetFreq ....    20
 Integral Threshold     Thresh          ....  2.500e-11 Eh
 Primitive CutOff       TCut            ....  2.500e-12 Eh

Convergence Tolerance:
 Convergence Check Mode ConvCheckMode   .... Total+1el-Energy
 Convergence forced     ConvForced      .... 0
 Energy Change          TolE            ....  1.000e-08 Eh
 1-El. energy change                    ....  1.000e-05 Eh
 Orbital Gradient       TolG            ....  1.000e-05
 Orbital Rotation angle TolX            ....  1.000e-05
 DIIS Error             TolErr          ....  5.000e-07

------------------------------
INITIAL GUESS: MODEL POTENTIAL
------------------------------
Loading Hartree-Fock densities                     ... done
Calculating cut-offs                               ... done
Initializing the effective Hamiltonian             ... done
Setting up the integral package (SHARK)            ... done
Starting the Coulomb interaction                   ... done (   0.1 sec)
Making the grid                                    ... done (   0.2 sec)
Mapping shells                                     ... done
Starting the XC term evaluation                    ... done (   0.1 sec)
  promolecular density results
     # of electrons  =    121.985509560
     EX              =   -101.470143758
     EC              =     -4.471304829
     EX+EC           =   -105.941448587
Transforming the Hamiltonian                       ... done (   0.0 sec)
Diagonalizing the Hamiltonian                      ... done (   0.0 sec)
Back transforming the eigenvectors                 ... done (   0.0 sec)
Now organizing SCF variables                       ... done
                      ------------------
                      INITIAL GUESS DONE (   0.5 sec)
                      ------------------
             **** ENERGY FILE WAS UPDATED (data/geom_opt_P_BP86/80757/80757.en.tmp) ****
Finished Guess after   0.6 sec
Maximum memory used throughout the entire GUESS-calculation: 23.7 MB


           ************************************************************
           *        Program running with 6 parallel MPI-processes     *
           *              working on a common directory               *
           ************************************************************

-------------------------------------------------------------------------------------------
                                      ORCA LEAN-SCF
                              memory conserving SCF solver
-------------------------------------------------------------------------------------------

----------------------------------------D-I-I-S--------------------------------------------
Iteration    Energy (Eh)           Delta-E    RMSDP     MaxDP     DIISErr   Damp  Time(sec)
-------------------------------------------------------------------------------------------
               ***  Starting incremental Fock matrix formation  ***
    1    -887.8272871537881201     0.00e+00  2.30e-03  7.62e-02  1.61e-01  0.700   0.8
    2    -888.0195019982379563    -1.92e-01  1.65e-03  5.08e-02  7.72e-02  0.700   0.7
                               ***Turning on AO-DIIS***
    3    -888.0879510184245191    -6.84e-02  7.31e-04  4.34e-02  2.18e-02  0.700   0.7
    4    -888.1277456681200420    -3.98e-02  1.32e-03  9.33e-02  8.70e-03  0.000   0.8
    5    -888.2172907678655065    -8.95e-02  2.65e-04  1.27e-02  6.41e-03  0.000   0.7
                              *** Initializing SOSCF ***
---------------------------------------S-O-S-C-F--------------------------------------
Iteration    Energy (Eh)           Delta-E    RMSDP     MaxDP     MaxGrad    Time(sec)
--------------------------------------------------------------------------------------
    6    -888.2181682173093122    -8.77e-04  9.63e-05  2.04e-03  1.57e-03     0.7
               *** Restarting incremental Fock matrix formation ***
    7    -888.2182365902610854    -6.84e-05  7.12e-05  2.53e-03  3.03e-04     0.7
    8    -888.2182374488604637    -8.59e-07  2.17e-05  6.93e-04  3.36e-04     0.7
    9    -888.2182426979338743    -5.25e-06  2.49e-05  1.18e-03  2.35e-04     0.7
   10    -888.2182414005244482     1.30e-06  1.40e-05  6.16e-04  2.78e-04     0.6
   11    -888.2182436326959305    -2.23e-06  5.54e-06  3.45e-04  2.05e-05     0.6
   12    -888.2182436138084540     1.89e-08  2.64e-06  1.87e-04  4.11e-05     0.6
   13    -888.2182436603065980    -4.65e-08  2.44e-06  1.19e-04  2.12e-05     0.6
   14    -888.2182436425368905     1.78e-08  1.64e-06  1.04e-04  2.25e-05     0.6
   15    -888.2182436655100446    -2.30e-08  5.46e-07  1.69e-05  2.38e-06     0.5
                  *** Gradient check signals convergence ***

               *****************************************************
               *                     SUCCESS                       *
               *           SCF CONVERGED AFTER  15 CYCLES          *
               *****************************************************

             **** ENERGY FILE WAS UPDATED (data/geom_opt_P_BP86/80757/80757.en.tmp) ****

----------------
TOTAL SCF ENERGY
----------------

Total Energy       :       -888.21824366551004 Eh          -24169.64717 eV

Components:
Nuclear Repulsion  :       1083.96753595531800 Eh           29496.25621 eV
Electronic Energy  :      -1972.18577962082804 Eh          -53665.90339 eV
One Electron Energy:      -3361.52422435182234 Eh          -91471.72448 eV
Two Electron Energy:       1389.33844473099430 Eh           37805.82109 eV

Virial components:
Potential Energy   :      -1768.71797754111117 Eh          -48129.26301 eV
Kinetic Energy     :        880.49973387560112 Eh           23959.61584 eV
Virial Ratio       :          2.00876605578963

DFT components:
N(Alpha)           :       60.999998183629 electrons
N(Beta)            :       60.999998183629 electrons
N(Total)           :      121.999996367257 electrons
E(X)               :     -103.331883310453 Eh       
E(C)               :       -4.467696928108 Eh       
E(XC)              :     -107.799580238561 Eh       

---------------
SCF CONVERGENCE
---------------

  Last Energy change         ...    2.2973e-08  Tolerance :   1.0000e-08
  Last MAX-Density change    ...    1.6914e-05  Tolerance :   1.0000e-07
  Last RMS-Density change    ...    5.4646e-07  Tolerance :   5.0000e-09
  Last DIIS Error            ...    1.5655e-03  Tolerance :   5.0000e-07
  Last Orbital Gradient      ...    2.3829e-06  Tolerance :   1.0000e-05
  Last Orbital Rotation      ...    7.0026e-06  Tolerance :   1.0000e-05


----------------
ORBITAL ENERGIES
----------------

  NO   OCC          E(Eh)            E(eV) 
   0   2.0000     -76.322560     -2076.8424 
   1   2.0000      -9.920955      -269.9629 
   2   2.0000      -9.919706      -269.9289 
   3   2.0000      -9.919456      -269.9221 
   4   2.0000      -9.918604      -269.8989 
   5   2.0000      -9.918032      -269.8834 
   6   2.0000      -9.917593      -269.8714 
   7   2.0000      -9.907168      -269.5878 
   8   2.0000      -9.907150      -269.5873 
   9   2.0000      -9.904842      -269.5244 
  10   2.0000      -9.904841      -269.5244 
  11   2.0000      -9.903803      -269.4962 
  12   2.0000      -9.903800      -269.4961 
  13   2.0000      -9.897789      -269.3325 
  14   2.0000      -9.897789      -269.3325 
  15   2.0000      -6.293205      -171.2468 
  16   2.0000      -4.514743      -122.8524 
  17   2.0000      -4.514362      -122.8420 
  18   2.0000      -4.510713      -122.7427 
  19   2.0000      -0.777456       -21.1557 
  20   2.0000      -0.726439       -19.7674 
  21   2.0000      -0.718438       -19.5497 
  22   2.0000      -0.687414       -18.7055 
  23   2.0000      -0.672968       -18.3124 
  24   2.0000      -0.659674       -17.9506 
  25   2.0000      -0.648713       -17.6524 
  26   2.0000      -0.588853       -16.0235 
  27   2.0000      -0.551836       -15.0162 
  28   2.0000      -0.548071       -14.9138 
  29   2.0000      -0.541657       -14.7392 
  30   2.0000      -0.517399       -14.0792 
  31   2.0000      -0.512042       -13.9334 
  32   2.0000      -0.491266       -13.3680 
  33   2.0000      -0.453233       -12.3331 
  34   2.0000      -0.427208       -11.6249 
  35   2.0000      -0.423505       -11.5242 
  36   2.0000      -0.408282       -11.1099 
  37   2.0000      -0.400892       -10.9088 
  38   2.0000      -0.386712       -10.5230 
  39   2.0000      -0.385899       -10.5008 
  40   2.0000      -0.383261       -10.4291 
  41   2.0000      -0.375227       -10.2104 
  42   2.0000      -0.368875       -10.0376 
  43   2.0000      -0.358489        -9.7550 
  44   2.0000      -0.357418        -9.7258 
  45   2.0000      -0.338256        -9.2044 
  46   2.0000      -0.336170        -9.1476 
  47   2.0000      -0.323770        -8.8102 
  48   2.0000      -0.314876        -8.5682 
  49   2.0000      -0.307155        -8.3581 
  50   2.0000      -0.307079        -8.3561 
  51   2.0000      -0.304374        -8.2824 
  52   2.0000      -0.298238        -8.1155 
  53   2.0000      -0.294168        -8.0047 
  54   2.0000      -0.285089        -7.7577 
  55   2.0000      -0.283160        -7.7052 
  56   2.0000      -0.275728        -7.5029 
  57   2.0000      -0.259847        -7.0708 
  58   2.0000      -0.234572        -6.3830 
  59   2.0000      -0.230221        -6.2646 
  60   2.0000      -0.188311        -5.1242 
  61   0.0000      -0.055178        -1.5015 
  62   0.0000      -0.044338        -1.2065 
  63   0.0000       0.034378         0.9355 
  64   0.0000       0.036777         1.0007 
  65   0.0000       0.036788         1.0011 
  66   0.0000       0.051330         1.3968 
  67   0.0000       0.052833         1.4377 
  68   0.0000       0.062804         1.7090 
  69   0.0000       0.067259         1.8302 
  70   0.0000       0.077700         2.1143 
  71   0.0000       0.083954         2.2845 
*Only the first 10 virtual orbitals were printed.

                    ********************************
                    * MULLIKEN POPULATION ANALYSIS *
                    ********************************

-----------------------
MULLIKEN ATOMIC CHARGES
-----------------------
   0 C :   -0.019709
   1 C :   -0.058116
   2 C :   -0.005286
   3 C :   -0.134639
   4 P :    0.151059
   5 C :   -0.134721
   6 C :   -0.005397
   7 C :   -0.058107
   8 C :   -0.019694
   9 C :   -0.110049
  10 C :    0.000130
  11 C :    0.010136
  12 C :    0.012364
  13 C :    0.005887
  14 C :    0.014746
  15 H :    0.021509
  16 H :    0.022398
  17 H :    0.021640
  18 H :    0.012566
  19 H :    0.012933
  20 H :    0.023744
  21 H :    0.018502
  22 H :    0.020802
  23 H :    0.038596
  24 H :    0.020776
  25 H :    0.038625
  26 H :    0.023796
  27 H :    0.018548
  28 H :    0.012962
  29 H :    0.012548
  30 H :    0.021495
  31 H :    0.021638
  32 H :    0.022408
  33 H :   -0.010822
  34 H :   -0.007538
  35 H :   -0.003381
  36 H :   -0.003690
  37 H :   -0.008658
Sum of atomic charges:   -0.0000000

--------------------------------
MULLIKEN REDUCED ORBITAL CHARGES
--------------------------------
  0 C s       :     2.989359  s :     2.989359
      pz      :     1.009835  p :     3.003494
      px      :     0.987351
      py      :     1.006308
      dz2     :     0.006981  d :     0.026857
      dxz     :     0.005312
      dyz     :     0.002489
      dx2y2   :     0.006559
      dxy     :     0.005515

  1 C s       :     3.035046  s :     3.035046
      pz      :     1.006352  p :     2.987951
      px      :     0.973449
      py      :     1.008150
      dz2     :     0.010054  d :     0.035118
      dxz     :     0.005989
      dyz     :     0.002809
      dx2y2   :     0.009847
      dxy     :     0.006419

  2 C s       :     3.010504  s :     3.010504
      pz      :     1.008186  p :     2.960372
      px      :     0.936190
      py      :     1.015996
      dz2     :     0.009783  d :     0.034410
      dxz     :     0.005823
      dyz     :     0.002857
      dx2y2   :     0.009546
      dxy     :     0.006402

  3 C s       :     3.064510  s :     3.064510
      pz      :     1.017045  p :     3.041462
      px      :     0.997499
      py      :     1.026918
      dz2     :     0.008574  d :     0.028666
      dxz     :     0.005459
      dyz     :     0.002406
      dx2y2   :     0.007264
      dxy     :     0.004964

  4 P s       :     5.780269  s :     5.780269
      pz      :     3.330634  p :     8.898361
      px      :     2.796018
      py      :     2.771709
      dz2     :     0.016376  d :     0.170311
      dxz     :     0.034266
      dyz     :     0.036313
      dx2y2   :     0.039727
      dxy     :     0.043629

  5 C s       :     3.064429  s :     3.064429
      pz      :     1.018295  p :     3.041624
      px      :     0.995443
      py      :     1.027887
      dz2     :     0.009224  d :     0.028667
      dxz     :     0.004942
      dyz     :     0.002341
      dx2y2   :     0.007446
      dxy     :     0.004714

  6 C s       :     3.010573  s :     3.010573
      pz      :     1.008859  p :     2.960413
      px      :     0.935884
      py      :     1.015670
      dz2     :     0.010174  d :     0.034411
      dxz     :     0.005534
      dyz     :     0.002543
      dx2y2   :     0.009569
      dxy     :     0.006590

  7 C s       :     3.035030  s :     3.035030
      pz      :     1.008468  p :     2.987958
      px      :     0.970025
      py      :     1.009466
      dz2     :     0.010491  d :     0.035119
      dxz     :     0.005618
      dyz     :     0.002516
      dx2y2   :     0.009899
      dxy     :     0.006595

  8 C s       :     2.989335  s :     2.989335
      pz      :     1.009184  p :     3.003501
      px      :     0.988669
      py      :     1.005648
      dz2     :     0.008329  d :     0.026857
      dxz     :     0.004112
      dyz     :     0.002170
      dx2y2   :     0.006931
      dxy     :     0.005315

  9 C s       :     3.076932  s :     3.076932
      pz      :     0.993737  p :     2.997991
      px      :     1.001314
      py      :     1.002940
      dz2     :     0.009482  d :     0.035125
      dxz     :     0.005533
      dyz     :     0.012028
      dx2y2   :     0.004366
      dxy     :     0.003716

 10 C s       :     3.217652  s :     3.217652
      pz      :     0.924021  p :     2.749281
      px      :     0.971906
      py      :     0.853354
      dz2     :     0.007886  d :     0.032937
      dxz     :     0.004711
      dyz     :     0.012886
      dx2y2   :     0.003892
      dxy     :     0.003563

 11 C s       :     3.169024  s :     3.169024
      pz      :     0.836209  p :     2.787932
      px      :     0.986610
      py      :     0.965113
      dz2     :     0.009491  d :     0.032908
      dxz     :     0.002224
      dyz     :     0.009762
      dx2y2   :     0.005337
      dxy     :     0.006094

 12 C s       :     3.167528  s :     3.167528
      pz      :     0.945127  p :     2.786985
      px      :     0.977747
      py      :     0.864111
      dz2     :     0.009090  d :     0.033123
      dxz     :     0.005533
      dyz     :     0.011425
      dx2y2   :     0.004171
      dxy     :     0.002905

 13 C s       :     3.171381  s :     3.171381
      pz      :     0.921293  p :     2.789970
      px      :     0.984192
      py      :     0.884484
      dz2     :     0.008226  d :     0.032762
      dxz     :     0.004762
      dyz     :     0.012302
      dx2y2   :     0.004005
      dxy     :     0.003467

 14 C s       :     3.229849  s :     3.229849
      pz      :     0.836383  p :     2.722613
      px      :     0.963499
      py      :     0.922731
      dz2     :     0.009462  d :     0.032792
      dxz     :     0.002135
      dyz     :     0.009672
      dx2y2   :     0.005363
      dxy     :     0.006160

 15 H s       :     0.955758  s :     0.955758
      pz      :     0.007118  p :     0.022734
      px      :     0.008181
      py      :     0.007434

 16 H s       :     0.954678  s :     0.954678
      pz      :     0.006075  p :     0.022925
      px      :     0.004747
      py      :     0.012103

 17 H s       :     0.955438  s :     0.955438
      pz      :     0.012474  p :     0.022922
      px      :     0.005024
      py      :     0.005424

 18 H s       :     0.965586  s :     0.965586
      pz      :     0.012364  p :     0.021847
      px      :     0.004533
      py      :     0.004951

 19 H s       :     0.965227  s :     0.965227
      pz      :     0.005574  p :     0.021839
      px      :     0.004384
      py      :     0.011881

 20 H s       :     0.954182  s :     0.954182
      pz      :     0.005664  p :     0.022074
      px      :     0.004173
      py      :     0.012237

 21 H s       :     0.959785  s :     0.959785
      pz      :     0.012583  p :     0.021713
      px      :     0.004205
      py      :     0.004925

 22 H s       :     0.956528  s :     0.956528
      pz      :     0.012647  p :     0.022671
      px      :     0.004833
      py      :     0.005191

 23 H s       :     0.938756  s :     0.938756
      pz      :     0.005917  p :     0.022648
      px      :     0.004648
      py      :     0.012083

 24 H s       :     0.956555  s :     0.956555
      pz      :     0.012865  p :     0.022670
      px      :     0.004682
      py      :     0.005122

 25 H s       :     0.938730  s :     0.938730
      pz      :     0.005852  p :     0.022645
      px      :     0.004680
      py      :     0.012113

 26 H s       :     0.954133  s :     0.954133
      pz      :     0.005659  p :     0.022071
      px      :     0.004140
      py      :     0.012272

 27 H s       :     0.959740  s :     0.959740
      pz      :     0.012765  p :     0.021712
      px      :     0.004022
      py      :     0.004926

 28 H s       :     0.965201  s :     0.965201
      pz      :     0.005601  p :     0.021837
      px      :     0.004310
      py      :     0.011926

 29 H s       :     0.965605  s :     0.965605
      pz      :     0.012554  p :     0.021847
      px      :     0.004325
      py      :     0.004967

 30 H s       :     0.955772  s :     0.955772
      pz      :     0.006339  p :     0.022733
      px      :     0.009485
      py      :     0.006909

 31 H s       :     0.955441  s :     0.955441
      pz      :     0.012748  p :     0.022922
      px      :     0.004834
      py      :     0.005339

 32 H s       :     0.954668  s :     0.954668
      pz      :     0.005903  p :     0.022924
      px      :     0.004843
      py      :     0.012178

 33 H s       :     0.988106  s :     0.988106
      pz      :     0.007192  p :     0.022717
      px      :     0.005271
      py      :     0.010253

 34 H s       :     0.985147  s :     0.985147
      pz      :     0.013470  p :     0.022391
      px      :     0.005083
      py      :     0.003838

 35 H s       :     0.981032  s :     0.981032
      pz      :     0.005409  p :     0.022349
      px      :     0.004989
      py      :     0.011952

 36 H s       :     0.981309  s :     0.981309
      pz      :     0.007105  p :     0.022381
      px      :     0.005086
      py      :     0.010190

 37 H s       :     0.986125  s :     0.986125
      pz      :     0.013785  p :     0.022534
      px      :     0.004904
      py      :     0.003844



                     *******************************
                     * LOEWDIN POPULATION ANALYSIS *
                     *******************************

----------------------
LOEWDIN ATOMIC CHARGES
----------------------
   0 C :   -0.068283
   1 C :   -0.046554
   2 C :   -0.052148
   3 C :   -0.179051
   4 P :    0.456595
   5 C :   -0.179080
   6 C :   -0.052159
   7 C :   -0.046558
   8 C :   -0.068285
   9 C :   -0.179396
  10 C :   -0.029522
  11 C :   -0.028758
  12 C :   -0.024307
  13 C :   -0.028693
  14 C :   -0.028543
  15 H :    0.025737
  16 H :    0.024897
  17 H :    0.024728
  18 H :    0.021754
  19 H :    0.021674
  20 H :    0.024313
  21 H :    0.023623
  22 H :    0.013849
  23 H :    0.026719
  24 H :    0.013839
  25 H :    0.026730
  26 H :    0.024327
  27 H :    0.023633
  28 H :    0.021682
  29 H :    0.021751
  30 H :    0.025735
  31 H :    0.024728
  32 H :    0.024899
  33 H :    0.023382
  34 H :    0.029151
  35 H :    0.030118
  36 H :    0.030405
  37 H :    0.027066

-------------------------------
LOEWDIN REDUCED ORBITAL CHARGES
-------------------------------
  0 C s       :     2.839739  s :     2.839739
      pz      :     1.065634  p :     3.158102
      px      :     1.029752
      py      :     1.062716
      dz2     :     0.019033  d :     0.070442
      dxz     :     0.012555
      dyz     :     0.006698
      dx2y2   :     0.018102
      dxy     :     0.014053

  1 C s       :     2.840220  s :     2.840220
      pz      :     1.053356  p :     3.117902
      px      :     1.015810
      py      :     1.048735
      dz2     :     0.025497  d :     0.088433
      dxz     :     0.014297
      dyz     :     0.007411
      dx2y2   :     0.024799
      dxy     :     0.016429

  2 C s       :     2.842924  s :     2.842924
      pz      :     1.058668  p :     3.121557
      px      :     1.008178
      py      :     1.054711
      dz2     :     0.025008  d :     0.087667
      dxz     :     0.013938
      dyz     :     0.007491
      dx2y2   :     0.024889
      dxy     :     0.016341

  3 C s       :     2.895081  s :     2.895081
      pz      :     1.083042  p :     3.210659
      px      :     1.052575
      py      :     1.075041
      dz2     :     0.022474  d :     0.073311
      dxz     :     0.012749
      dyz     :     0.006373
      dx2y2   :     0.019268
      dxy     :     0.012447

  4 P s       :     5.286516  s :     5.286516
      pz      :     3.415767  p :     9.025771
      px      :     2.810715
      py      :     2.799288
      dz2     :     0.022218  d :     0.231118
      dxz     :     0.043770
      dyz     :     0.049280
      dx2y2   :     0.055273
      dxy     :     0.060577

  5 C s       :     2.895074  s :     2.895074
      pz      :     1.079855  p :     3.210694
      px      :     1.057887
      py      :     1.072952
      dz2     :     0.023622  d :     0.073312
      dxz     :     0.012084
      dyz     :     0.005963
      dx2y2   :     0.019280
      dxy     :     0.012364

  6 C s       :     2.842924  s :     2.842924
      pz      :     1.058289  p :     3.121568
      px      :     1.009054
      py      :     1.054226
      dz2     :     0.026176  d :     0.087667
      dxz     :     0.013262
      dyz     :     0.006430
      dx2y2   :     0.024629
      dxy     :     0.017169

  7 C s       :     2.840219  s :     2.840219
      pz      :     1.054591  p :     3.117906
      px      :     1.013989
      py      :     1.049326
      dz2     :     0.026679  d :     0.088433
      dxz     :     0.013549
      dyz     :     0.006370
      dx2y2   :     0.024556
      dxy     :     0.017279

  8 C s       :     2.839738  s :     2.839738
      pz      :     1.063308  p :     3.158105
      px      :     1.033991
      py      :     1.060807
      dz2     :     0.021911  d :     0.070442
      dxz     :     0.010296
      dyz     :     0.005747
      dx2y2   :     0.018334
      dxy     :     0.014153

  9 C s       :     2.914370  s :     2.914370
      pz      :     1.096750  p :     3.172672
      px      :     0.983543
      py      :     1.092378
      dz2     :     0.027877  d :     0.092354
      dxz     :     0.011940
      dyz     :     0.034859
      dx2y2   :     0.010750
      dxy     :     0.006928

 10 C s       :     2.866613  s :     2.866613
      pz      :     1.061815  p :     3.072525
      px      :     0.961545
      py      :     1.049164
      dz2     :     0.024340  d :     0.090383
      dxz     :     0.010112
      dyz     :     0.037724
      dx2y2   :     0.011015
      dxy     :     0.007192

 11 C s       :     2.864309  s :     2.864309
      pz      :     1.039361  p :     3.075210
      px      :     0.968038
      py      :     1.067810
      dz2     :     0.025918  d :     0.089239
      dxz     :     0.003991
      dyz     :     0.030053
      dx2y2   :     0.015900
      dxy     :     0.013378

 12 C s       :     2.863603  s :     2.863603
      pz      :     1.065878  p :     3.070989
      px      :     0.959961
      py      :     1.045150
      dz2     :     0.027393  d :     0.089715
      dxz     :     0.012079
      dyz     :     0.033492
      dx2y2   :     0.011115
      dxy     :     0.005635

 13 C s       :     2.864317  s :     2.864317
      pz      :     1.059016  p :     3.075493
      px      :     0.966464
      py      :     1.050014
      dz2     :     0.025142  d :     0.088882
      dxz     :     0.010166
      dyz     :     0.035346
      dx2y2   :     0.011222
      dxy     :     0.007006

 14 C s       :     2.871603  s :     2.871603
      pz      :     1.044336  p :     3.067276
      px      :     0.954243
      py      :     1.068697
      dz2     :     0.026416  d :     0.089663
      dxz     :     0.003863
      dyz     :     0.029409
      dx2y2   :     0.016453
      dxy     :     0.013523

 15 H s       :     0.908436  s :     0.908436
      pz      :     0.019220  p :     0.065827
      px      :     0.025871
      py      :     0.020736

 16 H s       :     0.909486  s :     0.909486
      pz      :     0.014854  p :     0.065617
      px      :     0.013556
      py      :     0.037206

 17 H s       :     0.909651  s :     0.909651
      pz      :     0.038321  p :     0.065621
      px      :     0.014363
      py      :     0.012936

 18 H s       :     0.912340  s :     0.912340
      pz      :     0.038782  p :     0.065906
      px      :     0.014092
      py      :     0.013032

 19 H s       :     0.912503  s :     0.912503
      pz      :     0.014721  p :     0.065823
      px      :     0.013452
      py      :     0.037651

 20 H s       :     0.908729  s :     0.908729
      pz      :     0.014857  p :     0.066958
      px      :     0.013241
      py      :     0.038860

 21 H s       :     0.909800  s :     0.909800
      pz      :     0.039848  p :     0.066577
      px      :     0.013564
      py      :     0.013166

 22 H s       :     0.914435  s :     0.914435
      pz      :     0.042160  p :     0.071716
      px      :     0.015467
      py      :     0.014090

 23 H s       :     0.903361  s :     0.903361
      pz      :     0.015199  p :     0.069921
      px      :     0.014776
      py      :     0.039945

 24 H s       :     0.914443  s :     0.914443
      pz      :     0.042416  p :     0.071718
      px      :     0.015403
      py      :     0.013899

 25 H s       :     0.903350  s :     0.903350
      pz      :     0.014976  p :     0.069920
      px      :     0.015034
      py      :     0.039911

 26 H s       :     0.908715  s :     0.908715
      pz      :     0.014691  p :     0.066958
      px      :     0.013192
      py      :     0.039076

 27 H s       :     0.909789  s :     0.909789
      pz      :     0.040573  p :     0.066578
      px      :     0.012889
      py      :     0.013115

 28 H s       :     0.912495  s :     0.912495
      pz      :     0.014647  p :     0.065823
      px      :     0.013347
      py      :     0.037829

 29 H s       :     0.912343  s :     0.912343
      pz      :     0.039455  p :     0.065906
      px      :     0.013426
      py      :     0.013025

 30 H s       :     0.908439  s :     0.908439
      pz      :     0.016748  p :     0.065826
      px      :     0.029975
      py      :     0.019103

 31 H s       :     0.909650  s :     0.909650
      pz      :     0.039394  p :     0.065621
[...]
      dxz     :     0.004333
      dyz     :     0.028782
      dx2y2   :     0.015619
      dxy     :     0.013409

 12 C s       :     2.873926  s :     2.873926
      pz      :     1.060011  p :     3.068626
      px      :     0.966670
      py      :     1.041945
      dz2     :     0.025598  d :     0.085716
      dxz     :     0.011660
      dyz     :     0.031688
      dx2y2   :     0.010833
      dxy     :     0.005937

 13 C s       :     2.873487  s :     2.873487
      pz      :     1.055563  p :     3.072254
      px      :     0.969671
      py      :     1.047020
      dz2     :     0.024229  d :     0.085811
      dxz     :     0.010267
      dyz     :     0.033134
      dx2y2   :     0.010911
      dxy     :     0.007270

 14 C s       :     2.879352  s :     2.879352
      pz      :     1.041173  p :     3.068367
      px      :     0.960508
      py      :     1.066686
      dz2     :     0.024725  d :     0.087147
      dxz     :     0.004252
      dyz     :     0.028531
      dx2y2   :     0.016220
      dxy     :     0.013419

 15 H s       :     0.907974  s :     0.907974
      pz      :     0.019169  p :     0.063370
      px      :     0.025746
      py      :     0.018455

 16 H s       :     0.909356  s :     0.909356
      pz      :     0.014368  p :     0.063168
      px      :     0.012137
      py      :     0.036663

 17 H s       :     0.909795  s :     0.909795
      pz      :     0.036939  p :     0.063139
      px      :     0.014040
      py      :     0.012160

 18 H s       :     0.912815  s :     0.912815
      pz      :     0.037334  p :     0.063088
      px      :     0.013498
      py      :     0.012256

 19 H s       :     0.913156  s :     0.913156
      pz      :     0.014167  p :     0.063012
      px      :     0.012104
      py      :     0.036741

 20 H s       :     0.907662  s :     0.907662
      pz      :     0.014292  p :     0.064754
      px      :     0.012146
      py      :     0.038316

 21 H s       :     0.910742  s :     0.910742
      pz      :     0.038400  p :     0.063965
      px      :     0.013085
      py      :     0.012480

 22 H s       :     0.914284  s :     0.914284
      pz      :     0.040637  p :     0.068378
      px      :     0.014811
      py      :     0.012931

 23 H s       :     0.905622  s :     0.905622
      pz      :     0.014721  p :     0.067291
      px      :     0.013750
      py      :     0.038820

 24 H s       :     0.914955  s :     0.914955
      pz      :     0.041408  p :     0.068665
      px      :     0.014124
      py      :     0.013132

 25 H s       :     0.904695  s :     0.904695
      pz      :     0.015006  p :     0.067352
      px      :     0.014142
      py      :     0.038204

 26 H s       :     0.908033  s :     0.908033
      pz      :     0.014672  p :     0.064789
      px      :     0.012283
      py      :     0.037834

 27 H s       :     0.910141  s :     0.910141
      pz      :     0.039415  p :     0.063966
      px      :     0.012046
      py      :     0.012505

 28 H s       :     0.913058  s :     0.913058
      pz      :     0.014524  p :     0.063012
      px      :     0.012216
      py      :     0.036272

 29 H s       :     0.913101  s :     0.913101
      pz      :     0.038383  p :     0.063063
      px      :     0.012377
      py      :     0.012303

 30 H s       :     0.907932  s :     0.907932
      pz      :     0.016390  p :     0.063373
      px      :     0.029759
      py      :     0.017224

 31 H s       :     0.909644  s :     0.909644
      pz      :     0.038385  p :     0.063150
      px      :     0.012565
      py      :     0.012201

 32 H s       :     0.909324  s :     0.909324
      pz      :     0.014754  p :     0.063170
      px      :     0.012110
      py      :     0.036307

 33 H s       :     0.907053  s :     0.907053
      pz      :     0.020508  p :     0.066931
      px      :     0.014694
      py      :     0.031728

 34 H s       :     0.901905  s :     0.901905
      pz      :     0.040413  p :     0.065872
      px      :     0.014339
      py      :     0.011120

 35 H s       :     0.901313  s :     0.901313
      pz      :     0.016600  p :     0.065839
      px      :     0.013724
      py      :     0.035515

 36 H s       :     0.900902  s :     0.900902
      pz      :     0.020365  p :     0.065860
      px      :     0.014474
      py      :     0.031022

 37 H s       :     0.903851  s :     0.903851
      pz      :     0.041860  p :     0.066876
      px      :     0.013999
      py      :     0.011016



                      *****************************
                      * MAYER POPULATION ANALYSIS *
                      *****************************

  NA   - Mulliken gross atomic population
  ZA   - Total nuclear charge
  QA   - Mulliken gross atomic charge
  VA   - Mayer's total valence
  BVA  - Mayer's bonded valence
  FA   - Mayer's free valence

  ATOM       NA         ZA         QA         VA         BVA        FA
  0 C      6.0426     6.0000    -0.0426     4.0176     4.0176    -0.0000
  1 C      6.0579     6.0000    -0.0579     4.1299     4.1299    -0.0000
  2 C      6.0205     6.0000    -0.0205     4.0464     4.0464    -0.0000
  3 C      6.1514     6.0000    -0.1514     3.9265     3.9265    -0.0000
  4 P     14.8274    15.0000     0.1726     3.0195     3.0195    -0.0000
  5 C      6.1561     6.0000    -0.1561     3.9305     3.9305    -0.0000
  6 C      6.0191     6.0000    -0.0191     4.0454     4.0454    -0.0000
  7 C      6.0582     6.0000    -0.0582     4.1293     4.1293    -0.0000
  8 C      6.0425     6.0000    -0.0425     4.0176     4.0176    -0.0000
  9 C      6.1389     6.0000    -0.1389     3.7878     3.7878    -0.0000
 10 C      6.0006     6.0000    -0.0006     3.8775     3.8775    -0.0000
 11 C      5.9973     6.0000     0.0027     3.8579     3.8579    -0.0000
 12 C      5.9987     6.0000     0.0013     3.8316     3.8316    -0.0000
 13 C      6.0002     6.0000    -0.0002     3.8426     3.8426     0.0000
 14 C      5.9887     6.0000     0.0113     3.8703     3.8703    -0.0000
 15 H      0.9711     1.0000     0.0289     0.9821     0.9821     0.0000
 16 H      0.9716     1.0000     0.0284     0.9885     0.9885    -0.0000
 17 H      0.9730     1.0000     0.0270     0.9882     0.9882    -0.0000
 18 H      0.9832     1.0000     0.0168     0.9781     0.9781    -0.0000
 19 H      0.9827     1.0000     0.0173     0.9769     0.9769    -0.0000
 20 H      0.9671     1.0000     0.0329     0.9903     0.9903    -0.0000
 21 H      0.9774     1.0000     0.0226     0.9855     0.9855    -0.0000
 22 H      0.9714     1.0000     0.0286     0.9927     0.9927    -0.0000
 23 H      0.9550     1.0000     0.0450     0.9792     0.9792     0.0000
 24 H      0.9720     1.0000     0.0280     0.9923     0.9923    -0.0000
 25 H      0.9547     1.0000     0.0453     0.9792     0.9792    -0.0000
 26 H      0.9679     1.0000     0.0321     0.9917     0.9917    -0.0000
 27 H      0.9767     1.0000     0.0233     0.9851     0.9851    -0.0000
 28 H      0.9824     1.0000     0.0176     0.9768     0.9768    -0.0000
 29 H      0.9838     1.0000     0.0162     0.9782     0.9782    -0.0000
 30 H      0.9710     1.0000     0.0290     0.9821     0.9821     0.0000
 31 H      0.9727     1.0000     0.0273     0.9883     0.9883    -0.0000
 32 H      0.9716     1.0000     0.0284     0.9886     0.9886     0.0000
 33 H      1.0048     1.0000    -0.0048     0.9888     0.9888    -0.0000
 34 H      0.9989     1.0000     0.0011     0.9784     0.9784    -0.0000
 35 H      0.9948     1.0000     0.0052     0.9786     0.9786    -0.0000
 36 H      0.9954     1.0000     0.0046     0.9788     0.9788     0.0000
 37 H      1.0006     1.0000    -0.0006     0.9960     0.9960     0.0000

  Mayer bond orders larger than 0.100000
B(  0-C ,  1-C ) :   1.1127 B(  0-C , 15-H ) :   0.9620 B(  0-C , 16-H ) :   0.9659 
B(  0-C , 17-H ) :   0.9659 B(  1-C ,  2-C ) :   1.0909 B(  1-C , 18-H ) :   0.9397 
B(  1-C , 19-H ) :   0.9412 B(  2-C ,  3-C ) :   1.0610 B(  2-C , 20-H ) :   0.9355 
B(  2-C , 21-H ) :   0.9335 B(  3-C ,  4-P ) :   0.9642 B(  3-C , 22-H ) :   0.9180 
B(  3-C , 23-H ) :   0.9335 B(  4-P ,  5-C ) :   0.9652 B(  4-P ,  9-C ) :   0.9207 
B(  5-C ,  6-C ) :   1.0615 B(  5-C , 24-H ) :   0.9167 B(  5-C , 25-H ) :   0.9323 
B(  6-C ,  7-C ) :   1.0906 B(  6-C , 26-H ) :   0.9351 B(  6-C , 27-H ) :   0.9334 
B(  7-C ,  8-C ) :   1.1127 B(  7-C , 28-H ) :   0.9412 B(  7-C , 29-H ) :   0.9395 
B(  8-C , 30-H ) :   0.9620 B(  8-C , 31-H ) :   0.9659 B(  8-C , 32-H ) :   0.9659 
B(  9-C , 10-C ) :   1.3476 B(  9-C , 14-C ) :   1.3904 B( 10-C , 11-C ) :   1.4109 
B( 10-C , 33-H ) :   0.9670 B( 11-C , 12-C ) :   1.3707 B( 11-C , 34-H ) :   0.9741 
B( 12-C , 13-C ) :   1.3900 B( 12-C , 35-H ) :   0.9755 B( 13-C , 14-C ) :   1.3786 
B( 13-C , 36-H ) :   0.9768 B( 14-C , 37-H ) :   0.9741 

-------
TIMINGS
-------

Total SCF time: 0 days 0 hours 0 min 4 sec 

Total time                  ....       4.189 sec
Sum of individual times     ....       4.107 sec  ( 98.0%)

SCF preparation             ....       0.125 sec  (  3.0%)
Fock matrix formation       ....       3.589 sec  ( 85.7%)
  Startup                   ....       0.022 sec  (  0.6% of F)
  Split-RI-J                ....       1.159 sec  ( 32.3% of F)
  XC integration            ....       2.333 sec  ( 65.0% of F)
    Basis function eval.    ....       0.718 sec  ( 30.8% of XC)
    Density eval.           ....       0.649 sec  ( 27.8% of XC)
    XC-Functional eval.     ....       0.075 sec  (  3.2% of XC)
    XC-Potential eval.      ....       0.545 sec  ( 23.4% of XC)
Diagonalization             ....       0.000 sec  (  0.0%)
Density matrix formation    ....       0.046 sec  (  1.1%)
Total Energy calculation    ....       0.017 sec  (  0.4%)
Population analysis         ....       0.089 sec  (  2.1%)
Orbital Transformation      ....       0.031 sec  (  0.7%)
Orbital Orthonormalization  ....       0.000 sec  (  0.0%)
DIIS solution               ....       0.040 sec  (  1.0%)
SOSCF solution              ....       0.170 sec  (  4.1%)
Finished LeanSCF after   4.2 sec

Maximum memory used throughout the entire LEANSCF-calculation: 35.1 MB


-------------------------------------------------------------------------------
                          DFT DISPERSION CORRECTION                            
                                                                               
                              DFTD3 V3.1  Rev 1                                
                          USING Becke-Johnson damping                          
-------------------------------------------------------------------------------
The BP86 functional is recognized
Active option DFTDOPT                   ...         4   

molecular C6(AA) [au] = 13635.610149 


            DFT-D V3
 parameters
 s6 scaling factor         :     1.0000 
 a1 scaling factor         :     0.3946 
 s8 scaling factor         :     3.2822 
 a2 scaling factor         :     4.8516 
 ad hoc parameters k1-k3   :    16.0000     1.3333    -4.0000 

 Edisp/kcal,au: -41.949938120425  -0.066851474567 
 E6   /kcal   : -15.961288377 
 E8   /kcal   : -25.988649743 
 % E8         :  61.951580640 

-------------------------   ----------------
Dispersion correction           -0.066851475
-------------------------   ----------------


-------------------------   --------------------
FINAL SINGLE POINT ENERGY      -888.292414066775
-------------------------   --------------------

                                *** OPTIMIZATION RUN DONE ***



           ************************************************************
           *        Program running with 6 parallel MPI-processes     *
           *              working on a common directory               *
           ************************************************************

------------------------------------------------------------------------------
                              ORCA PROPERTY CALCULATIONS
------------------------------------------------------------------------------

GBWName                                 ... data/geom_opt_P_BP86/80757/80757.gbw
Number of atoms                         ...     38
Number of basis functions               ...    329
Max core memory                         ...   1024 MB

Electric properties:
Dipole moment                           ... YES
Quadrupole moment                       ...  NO
Static polarizability (Dipole/Dipole)   ...  NO
Static polarizability (Dipole/Quad.)    ...  NO
Static polarizability (Quad./Quad.)     ...  NO
Static polarizability (Velocity)        ...  NO

Atomic electric properties:
Dipole moment                           ...  NO
Quadrupole moment                       ...  NO
Static polarizability                   ...  NO

Choice of electric origin               ... Center of mass
Position of electric origin             ...     0.034136    -0.402272    -0.207272

General magnetic properties:
Magnetizability                         ...  NO

EPR properties:
g-Tensor (aka g-matrix)                 ...  NO
Zero-Field splitting spin-orbit         ...  NO
Zero-field splitting spin-spin          ...  NO
Hyperfine couplings                     ...  NO (   0 nuclei)
Quadrupole couplings                    ...  NO (   0 nuclei)
Contact density                         ...  NO (   0 nuclei)

NMR properties:
Chemical shifts                         ...  NO (   0 nuclei)
Spin-rotation constants                 ...  NO (   0 nuclei)
Spin-spin couplings                     ...  NO (   0 nuclei,    0 pairs)

Choice of magnetic origin               ... GIAO
Position of magnetic origin             ...     0.000000     0.000000     0.000000

Properties with geometric perturbations:
SCF Hessian                             ...  NO
IR spectrum                             ...  NO
VCD spectrum                            ...  NO
X-ray spectroscopy properties:
SCF XES/XAS/RIXS spectra                ...  NO


-------------
DIPOLE MOMENT
-------------

Method             : SCF
Type of density    : Electron Density
Multiplicity       :   1
Irrep              :   0
Energy             :  -888.2255625922086892 Eh
Relativity type    : 
Basis              : AO
                                X                 Y                 Z
Electronic contribution:      0.646500133      -8.866655169      -3.514286496
Nuclear contribution   :     -0.678936480       8.835795967       3.986956641
                        -----------------------------------------
Total Dipole Moment    :     -0.032436347      -0.030859202       0.472670145
                        -----------------------------------------
Magnitude (a.u.)       :      0.474785713
Magnitude (Debye)      :      1.206809375



--------------------
Rotational spectrum 
--------------------
 
Rotational constants in cm-1:             0.019954             0.009786             0.007353 
Rotational constants in MHz :           598.200890           293.373895           220.423126 

Dipole components along the rotational axes: 
x,y,z [a.u.] :    -0.000637    -0.121282     0.459034 
x,y,z [Debye]:    -0.001618    -0.308274     1.166771 

 

Dipole moment calculation done in   0.0 sec 

Maximum memory used throughout the entire PROP-calculation: 17.4 MB

--------------------------------
SUGGESTED CITATIONS FOR THIS RUN
--------------------------------

Below you find a list of papers that are relevant to this ORCA run
We neither can nor want to force you to cite these papers, but we appreciate if you do
You receive ORCA, which is the product of decades of hard work by many enthusiastic individuals, for free
The only thing we kindly ask in return is that you cite our papers,
We deeply appreciate it, if you show your appreciation for ORCA by not just citing the generic ORCA reference.

Please note that relegating all ORCA citations to the supporting information does *not* help us.
SI sections are not indexed - citations you put there will not count into any citation statistics
But we need these citations in order to attract the funding resources that allow us to do what we are doing

Therefore, if you are a happy ORCA user, please consider citing a few of the papers listed below in the main body of your paper

In addition to the list printed below, the program has created the file data/geom_opt_P_BP86/80757/80757.bibtex that contains the list in bibtex format
You can import this file easily into all common literature databanks and citation aid programs


List of essential papers. We consider these as the minimum necessary citations

  1. Neese,F.
     Software update: the ORCA program system, version 5.0
     WIRES Comput. Molec. Sci., 2022 12(1)e1606
     doi.org/10.1002/wcms.1606

List of papers to cite with high priority. The work reported in these papers was absolutely
necessary for this run to complete.
Our perspective: the developers of density functionals and basis sets usually get cited in chemistry papers
Good! But without the algorithms to do something with them, the functionals or basis sets would not do anything.
Hence, in our opinion, the algorithm design and method developments papers are equally worthy of getting cited

  1. Neese,F.
     An improvement of the resolution of the identity approximation for the formation of the Coulomb matrix
     J. Comp. Chem., 2003 24(14)1740-1747
     doi.org/10.1002/jcc.10318
  2. Neese,F.
     The SHARK Integral Generation and Digestion System
     J. Comp. Chem., 2022  1-16
     doi.org/10.1002/jcc.26942
  3. Grimme,S.; Antony,J.; Ehrlich,S.; Krieg,H.
     A consistent and accurate ab initio parametrization of density functional dispersion correction (DFT-D) for the 94 elements H-Pu
     J. Chem. Phys., 2010 132 154104-XXXX
     doi.org/10.1063/1.3382344
  4. Grimme,S.; Ehrlich,S.; Goerigk,L.
     Effect of the damping function in dispersion corrected density functional theory
     J. Comput. Chem., 2011 32(7)1456-1465
     doi.org/10.1002/jcc.21759

List of suggested additional citations. These are papers that are important in the 'surrounding' of 
of this run, or papers that preceded the highly important papers. If you like your results we are grateful for a citation.

  1. Neese,F.
     The ORCA program system
     WIRES Comput. Molec. Sci., 2012 2(1)73-78
     doi.org/10.1002/wcms.81
  2. Neese,F.
     Software update: the ORCA program system, version 4.0
     WIRES Comput. Molec. Sci., 2018 8(1)1-6
     doi.org/10.1002/wcms.1327
  3. Neese,F.; Wennmohs,F.; Becker,U.; Riplinger,C.
     The ORCA quantum chemistry program package
     J. Chem. Phys., 2020 152 Art. No. L224108
     doi.org/10.1063/5.0004608

List of optional additional citations

  1. Neese,F.
     Approximate second-order SCF convergence for spin unrestricted wavefunctions
     Chem. Phys. Lett., 2000 325(1-3)93-98
     doi.org/10.1016/s0009-2614(00)00662-x

Timings for individual modules:

Sum of individual times          ...      141.835 sec (=   2.364 min)
Startup calculation              ...       14.026 sec (=   0.234 min)   9.9 %
SCF iterations                   ...       75.149 sec (=   1.252 min)  53.0 %
Property calculations            ...        0.176 sec (=   0.003 min)   0.1 %
SCF Gradient evaluation          ...       52.290 sec (=   0.872 min)  36.9 %
Geometry relaxation              ...        0.194 sec (=   0.003 min)   0.1 %
                             ****ORCA TERMINATED NORMALLY****
TOTAL RUN TIME: 0 days 0 hours 2 minutes 24 seconds 86 msec
