
                                 *****************
                                 * O   R   C   A *
                                 *****************

                                            #,                                       
                                            ###                                      
                                            ####                                     
                                            #####                                    
                                            ######                                   
                                           ########,                                 
                                     ,,################,,,,,                         
                               ,,#################################,,                 
                          ,,##########################################,,             
                       ,#########################################, ''#####,          
                    ,#############################################,,   '####,        
                  ,##################################################,,,,####,       
                ,###########''''           ''''###############################       
              ,#####''   ,,,,##########,,,,          '''####'''          '####       
            ,##' ,,,,###########################,,,                        '##       
           ' ,,###''''                  '''############,,,                           
         ,,##''                                '''############,,,,        ,,,,,,###''
      ,#''                                            '''#######################'''  
     '                                                          ''''####''''         
             ,#######,   #######,   ,#######,      ##                                
            ,#'     '#,  ##    ##  ,#'     '#,    #''#        ,####,   ,####,        
            ##       ##  ##   ,#'  ##            #'  '#       #'       #'  '#        
            ##       ##  #######   ##           ,######,      #####,   #    #        
            '#,     ,#'  ##    ##  '#,     ,#' ,#      #,     #,   #   #,  ,#        
             '#######'   ##     ##  '#######'  #'      '#     '####' # '####'        



                #########################################################
                #                        -***-                          #
                #          Department of theory and spectroscopy        #
                #                                                       #
                #                      Frank Neese                      #
                #                                                       #
                #     Directorship, Architecture, Infrastructure        #
                #                    SHARK, DRIVERS                     #
                #        Core code/Algorithms in most modules           #
                #                                                       #
                #        Max Planck Institute fuer Kohlenforschung      #
                #                Kaiser Wilhelm Platz 1                 #
                #                 D-45470 Muelheim/Ruhr                 #
                #                      Germany                          #
                #                                                       #
                #                  All rights reserved                  #
                #                        -***-                          #
                #########################################################


                         Program Version 6.0.0  -   RELEASE   -


 With contributions from (in alphabetic order):
   Daniel Aravena         : Magnetic Suceptibility
   Michael Atanasov       : Ab Initio Ligand Field Theory (pilot matlab implementation)
   Alexander A. Auer      : GIAO ZORA, VPT2 properties, NMR spectrum
   Ute Becker             : All parallelization in ORCA, NUMFREQ, NUMCALC
   Giovanni Bistoni       : ED, misc. LED, open-shell LED, HFLD
   Martin Brehm           : Molecular dynamics
   Dmytro Bykov           : pre 5.0 version of the SCF Hessian
   Marcos Casanova-Páez   : Triplet and SCS-CIS(D). UHF-(DLPNO)-IP/EA/STEOM-CCSD. UHF-CVS-IP/STEOM-CCSD
   Vijay G. Chilkuri      : MRCI spin determinant printing, contributions to CSF-ICE
   Pauline Colinet        : FMM embedding
   Dipayan Datta          : RHF DLPNO-CCSD density
   Achintya Kumar Dutta   : EOM-CC, STEOM-CC
   Nicolas Foglia         : Exact transition moments, OPA infrastructure, MCD improvements
   Dmitry Ganyushin       : Spin-Orbit,Spin-Spin,Magnetic field MRCI
   Miquel Garcia          : C-PCM and meta-GGA Hessian, CCSD/C-PCM, Gaussian charge scheme
   Tiago L. C. Gouveia    : GS-ROHF, GS-ROCIS
   Yang Guo               : DLPNO-NEVPT2, F12-NEVPT2, CIM, IAO-localization
   Andreas Hansen         : Spin unrestricted coupled pair/coupled cluster methods
   Ingolf Harden          : AUTO-CI MPn and infrastructure 
   Benjamin Helmich-Paris : MC-RPA, TRAH-(SCF,CASSCF), AVAS, COSX integrals, SCF dyn. polar.
   Lee Huntington         : MR-EOM, pCC
   Robert Izsak           : Overlap fitted RIJCOSX, COSX-SCS-MP3, EOM
   Riya Kayal             : Wick's Theorem for AUTO-CI, AUTO-CI UHF-CCSDT
   Emily Kempfer          : AUTO-CI, RHF CISDT and CCSDT
   Christian Kollmar      : KDIIS, OOCD, Brueckner-CCSD(T), CCSD density, CASPT2, CASPT2-K, improved NEVPT2
   Axel Koslowski         : Symmetry handling
   Simone Kossmann        : Meta GGA functionals, TD-DFT gradient, OOMP2, (MP2 Hessian; deprecated post 5.0)
   Lucas Lang             : DCDCAS
   Marvin Lechner         : AUTO-CI (C++ implementation), FIC-MRCC
   Spencer Leger          : CASSCF response
   Dagmar Lenk            : GEPOL surface, SMD, ORCA-2-JSON
   Dimitrios Liakos       : Extrapolation schemes; Compound Job, initial MDCI parallelization
   Dimitrios Manganas     : Further ROCIS development; embedding schemes. LFT, Crystal Embedding
   Dimitrios Pantazis     : SARC Basis sets
   Anastasios Papadopoulos: AUTO-CI, single reference methods and gradients
   Taras Petrenko         : pre 6.0 DFT Hessian and TD-DFT gradient, (ASA, deprecated), ECA, 1-Electron XAS/XES, NRVS
   Peter Pinski           : DLPNO-MP2, DLPNO-MP2 Gradient
   Christoph Reimann      : Effective Core Potentials
   Marius Retegan         : Local ZFS, SOC
   Christoph Riplinger    : Optimizer, TS searches, QM/MM, DLPNO-CCSD(T), (RO)-DLPNO pert. Triples
   Michael Roemelt        : Original ROCIS implementation
   Masaaki Saitow         : Open-shell DLPNO-CCSD energy and density
   Barbara Sandhoefer     : DKH picture change effects
   Kantharuban Sivalingam : CASSCF convergence/infrastructure, NEVPT2 and variants, FIC-MRCI
   Bernardo de Souza      : ESD, SOC TD-DFT
   Georgi Stoychev        : AutoAux, RI-MP2 NMR, DLPNO-MP2 response, X2C
   Van Anh Tran           : RI-MP2 g-tensors
   Willem Van den Heuvel  : Paramagnetic NMR
   Zikuan Wang            : NOTCH, Electric field optimization 
   Frank Wennmohs         : Technical directorship and infrastructure
   Hang Xu                : AUTO-CI-Response properties 


 We gratefully acknowledge several colleagues who have allowed us to
 interface, adapt or use parts of their codes:
   Stefan Grimme, W. Hujo, H. Kruse, P. Pracht,  : VdW corrections, initial TS optimization,
                  C. Bannwarth, S. Ehlert,         DFT functionals, gCP, sTDA/sTD-DF
                  L. Wittmann, M. Mueller
   Ed Valeev, F. Pavosevic, A. Kumar             : LibInt (2-el integral package), F12 methods
   Garnet Chan, S. Sharma, J. Yang, R. Olivares  : DMRG
   Ulf Ekstrom                                   : XCFun DFT Library
   Mihaly Kallay                                 : mrcc  (arbitrary order and MRCC methods)
   Frank Weinhold                                : gennbo (NPA and NBO analysis)
   Simon Mueller                                 : openCOSMO-RS
   Christopher J. Cramer and Donald G. Truhlar   : smd solvation model
   Lars Goerigk                                  : TD-DFT with DH, B97 family of functionals
   V. Asgeirsson, H. Jonsson                     : NEB implementation
   FAccTs GmbH                                   : IRC, NEB, NEB-TS, DLPNO-Multilevel, CI-OPT
                                                   MM, QMMM, 2- and 3-layer-ONIOM, Crystal-QMMM,
                                                   LR-CPCM, SF, NACMEs, symmetry and pop. for TD-DFT,
                                                   nearIR, NL-DFT gradient (VV10), updates on ESD,
                                                   ML-optimized integration grids, MBIS, APM,
                                                   GOAT, DOCKER, SOLVATOR, interface openCOSMO-RS
   S Lehtola, MJT Oliveira, MAL Marques          : LibXC Library
   Liviu Ungur et al                             : ANISO software


 Your calculation uses the libint2 library for the computation of 2-el integrals
 For citations please refer to: http://libint.valeyev.net

 Your ORCA version has been built with support for libXC version: 6.2.2
 For citations please refer to: https://libxc.gitlab.io

 This ORCA versions uses:
   CBLAS   interface :  Fast vector & matrix operations
   LAPACKE interface :  Fast linear algebra routines
   Shared memory     :  Shared parallel matrices


Your calculation utilizes the atom-pairwise dispersion correction
with the Becke-Johnson damping scheme (D3BJ)


Warning: RI is on but no J-basis has been assigned. Assigning Def2/J (nothing to worry about!)
================================================================================

----- Orbital basis set information -----
Your calculation utilizes the basis: def2-SVP
   F. Weigend and R. Ahlrichs, Phys. Chem. Chem. Phys. 7, 3297 (2005).

----- AuxJ basis set information -----
Your calculation utilizes the auxiliary basis: def2/J
   F. Weigend, Phys. Chem. Chem. Phys. 8, 1057 (2006).

================================================================================
                                        WARNINGS
                       Please study these warnings very carefully!
================================================================================


WARNING: Geometry Optimization
  ===> : Switching off AutoStart
         For restart on a previous wavefunction, please use MOREAD

================================================================================
                                       INPUT FILE
================================================================================
NAME = data/geom_opt/80271/80271.inp
|  1> ! RIJONX B3LYP def2-SVP D3BJ TIGHTSCF Opt
|  2> %pal
|  3> nprocs 6
|  4> end
|  5> 
|  6> * xyz 0 1
|  7> C      2.751471   -0.306212   -2.160390
|  8> C      2.511913   -1.108467   -0.905035
|  9> C      3.562409   -1.921220   -0.436806
| 10> C      3.417036   -2.691537    0.713652
| 11> C      2.219730   -2.660629    1.414135
| 12> C      1.168192   -1.857404    0.965856
| 13> C      1.285779   -1.063595   -0.192297
| 14> P     -0.099163   -0.010187   -0.775348
| 15> C      0.260629    1.656532   -0.096911
| 16> C      1.228108    1.847154    0.909532
| 17> C      1.505325    3.113834    1.429656
| 18> C      0.821940    4.224058    0.954722
| 19> C     -0.137102    4.068414   -0.042317
| 20> C     -0.426969    2.799675   -0.580487
| 21> C     -1.479168    2.718694   -1.659021
| 22> C     -1.562183   -0.594566    0.165798
| 23> C     -1.984508    0.052509    1.344024
| 24> C     -3.097270   -0.388767    2.064365
| 25> C     -3.817967   -1.489296    1.623223
| 26> C     -3.427736   -2.147432    0.460187
| 27> C     -2.310800   -1.714391   -0.280270
| 28> C     -1.956487   -2.482713   -1.529694
| 29> H      2.714149    0.766118   -1.944923
| 30> H      2.012880   -0.559819   -2.927489
| 31> H      3.738424   -0.515553   -2.587667
| 32> H      4.507953   -1.958767   -0.974181
| 33> H      4.236926   -3.314818    1.059911
| 34> H      2.096976   -3.260073    2.312342
| 35> H      0.253599   -1.863878    1.553310
| 36> H      1.786369    1.009376    1.319528
| 37> H      2.256800    3.226392    2.206697
| 38> H      1.034868    5.210493    1.357465
| 39> H     -0.662375    4.950322   -0.403653
| 40> H     -1.063922    2.278602   -2.571251
| 41> H     -1.854999    3.712164   -1.927788
| 42> H     -2.336728    2.131146   -1.316842
| 43> H     -1.450605    0.914977    1.734816
| 44> H     -3.395835    0.132007    2.970362
| 45> H     -4.683592   -1.835280    2.181418
| 46> H     -4.005400   -3.007939    0.128423
| 47> H     -1.959608   -1.822514   -2.402850
| 48> H     -0.976755   -2.958803   -1.423989
| 49> H     -2.682302   -3.278609   -1.730213
| 50> **                         ****END OF INPUT****
================================================================================

                       *****************************
                       * Geometry Optimization Run *
                       *****************************

Geometry optimization settings:
Update method            Update   .... BFGS
Choice of coordinates    CoordSys .... (2022) Redundant Internals
Initial Hessian          InHess   .... Almloef's Model
Max. no of cycles        MaxIter  .... 129

Convergence Tolerances:
Energy Change            TolE     ....  5.0000e-06 Eh
Max. Gradient            TolMAXG  ....  3.0000e-04 Eh/bohr
RMS Gradient             TolRMSG  ....  1.0000e-04 Eh/bohr
Max. Displacement        TolMAXD  ....  4.0000e-03 bohr
RMS Displacement         TolRMSD  ....  2.0000e-03 bohr
Strict Convergence                .... False

------------------------------------------------------------------------------
                        ORCA OPTIMIZATION COORDINATE SETUP
------------------------------------------------------------------------------

The optimization will be done in redundant internal coordinates (2022)
Making redundant internal coordinates   ...  (2022 redundants) done
Evaluating the initial hessian          ...  (Almloef) done
Evaluating the coordinates              ...  done
Calculating the B-matrix                .... done
Calculating the G-matrix                .... done
Diagonalizing the G-matrix              .... done
Small eigenvalue found = 4.621e-03
Small eigenvalue found = 4.623e-03
Small eigenvalue found = 7.300e-03
Small eigenvalue found = 1.390e-02
Small eigenvalue found = 1.401e-02
Small eigenvalue found = 1.862e-02
Small eigenvalue found = 2.333e-02
The first mode is                       ....   96
The number of degrees of freedom        ....  123

    -----------------------------------------------------------------
                    Redundant Internal Coordinates


    -----------------------------------------------------------------
         Definition                    Initial Value    Approx d2E/dq
    -----------------------------------------------------------------
      1. B(C   1,C   0)                  1.5089         0.403616   
      2. B(C   2,C   1)                  1.4083         0.584144   
      3. B(C   3,C   2)                  1.3921         0.619886   
      4. B(C   4,C   3)                  1.3875         0.630547   
      5. B(C   5,C   4)                  1.3971         0.608736   
      6. B(C   6,C   5)                  1.4090         0.582676   
      7. B(C   6,C   1)                  1.4189         0.561764   
      8. B(P   7,C   6)                  1.8351         0.409322   
      9. B(C   8,P   7)                  1.8351         0.409323   
     10. B(C   9,C   8)                  1.4090         0.582674   
     11. B(C  10,C   9)                  1.3971         0.608736   
     12. B(C  11,C  10)                  1.3875         0.630546   
     13. B(C  12,C  11)                  1.3921         0.619888   
     14. B(C  13,C  12)                  1.4083         0.584144   
     15. B(C  13,C   8)                  1.4189         0.561764   
     16. B(C  14,C  13)                  1.5089         0.403616   
     17. B(C  15,P   7)                  1.8351         0.409322   
     18. B(C  16,C  15)                  1.4090         0.582674   
     19. B(C  17,C  16)                  1.3971         0.608738   
     20. B(C  18,C  17)                  1.3875         0.630546   
     21. B(C  19,C  18)                  1.3921         0.619886   
     22. B(C  20,C  19)                  1.4083         0.584145   
     23. B(C  20,C  15)                  1.4189         0.561765   
     24. B(C  21,C  20)                  1.5089         0.403616   
     25. B(H  22,C   0)                  1.0944         0.354327   
     26. B(H  23,C   0)                  1.0947         0.353992   
     27. B(H  24,C   0)                  1.0957         0.352693   
     28. B(H  25,C   2)                  1.0882         0.362455   
     29. B(H  26,C   3)                  1.0866         0.364691   
     30. B(H  27,C   4)                  1.0868         0.364332   
     31. B(H  28,C   5)                  1.0870         0.364056   
     32. B(H  29,C   9)                  1.0870         0.364057   
     33. B(H  30,C  10)                  1.0868         0.364332   
     34. B(H  31,C  11)                  1.0866         0.364691   
     35. B(H  32,C  12)                  1.0882         0.362454   
     36. B(H  33,C  14)                  1.0947         0.353992   
     37. B(H  34,C  14)                  1.0957         0.352692   
     38. B(H  35,C  14)                  1.0944         0.354328   
     39. B(H  36,C  16)                  1.0870         0.364058   
     40. B(H  37,C  17)                  1.0868         0.364332   
     41. B(H  38,C  18)                  1.0866         0.364692   
     42. B(H  39,C  19)                  1.0882         0.362455   
     43. B(H  40,C  21)                  1.0947         0.353992   
     44. B(H  41,C  21)                  1.0944         0.354327   
     45. B(H  42,C  21)                  1.0957         0.352693   
     46. A(C   1,C   0,H  23)          110.6528         0.327549   
     47. A(C   1,C   0,H  24)          111.4605         0.327351   
     48. A(C   1,C   0,H  22)          110.5936         0.327600   
     49. A(H  22,C   0,H  24)          107.1401         0.289159   
     50. A(H  22,C   0,H  23)          109.9965         0.289325   
     51. A(H  23,C   0,H  24)          106.8721         0.289116   
     52. A(C   0,C   1,C   6)          122.5651         0.395205   
     53. A(C   0,C   1,C   2)          117.7107         0.397924   
     54. A(C   2,C   1,C   6)          119.7233         0.421928   
     55. A(C   3,C   2,H  25)          118.6671         0.353288   
     56. A(C   1,C   2,H  25)          120.2555         0.349759   
     57. A(C   1,C   2,C   3)          121.0773         0.429430   
     58. A(C   4,C   3,H  26)          120.2010         0.354679   
     59. A(C   2,C   3,C   4)          119.6689         0.435372   
     60. A(C   2,C   3,H  26)          120.1300         0.353656   
     61. A(C   5,C   4,H  27)          119.8199         0.352512   
     62. A(C   3,C   4,H  27)          120.1599         0.354620   
     63. A(C   3,C   4,C   5)          120.0202         0.433951   
     64. A(C   6,C   5,H  28)          121.1836         0.349871   
     65. A(C   4,C   5,H  28)          117.1578         0.352467   
     66. A(C   4,C   5,C   6)          121.6571         0.427842   
     67. A(C   5,C   6,P   7)          121.4376         0.425046   
     68. A(C   1,C   6,P   7)          120.7103         0.422278   
     69. A(C   1,C   6,C   5)          117.8509         0.421739   
     70. A(C   8,P   7,C  15)          104.8283         0.425591   
     71. A(C   6,P   7,C  15)          104.8284         0.425591   
     72. A(C   6,P   7,C   8)          104.8285         0.425591   
     73. A(P   7,C   8,C   9)          121.4375         0.425046   
     74. A(C   9,C   8,C  13)          117.8510         0.421739   
     75. A(P   7,C   8,C  13)          120.7104         0.422278   
     76. A(C  10,C   9,H  29)          117.1579         0.352467   
     77. A(C   8,C   9,C  10)          121.6571         0.427842   
     78. A(C   8,C   9,H  29)          121.1836         0.349870   
     79. A(C  11,C  10,H  30)          120.1599         0.354620   
     80. A(C   9,C  10,H  30)          119.8199         0.352512   
     81. A(C   9,C  10,C  11)          120.0202         0.433951   
     82. A(C  10,C  11,C  12)          119.6689         0.435372   
     83. A(C  12,C  11,H  31)          120.1300         0.353656   
     84. A(C  10,C  11,H  31)          120.2011         0.354679   
     85. A(C  13,C  12,H  32)          120.2554         0.349759   
     86. A(C  11,C  12,H  32)          118.6671         0.353288   
     87. A(C  11,C  12,C  13)          121.0774         0.429431   
     88. A(C  12,C  13,C  14)          117.7108         0.397924   
     89. A(C   8,C  13,C  14)          122.5651         0.395205   
     90. A(C   8,C  13,C  12)          119.7233         0.421928   
     91. A(H  33,C  14,H  35)          109.9965         0.289325   
     92. A(H  33,C  14,H  34)          106.8722         0.289116   
     93. A(C  13,C  14,H  34)          111.4605         0.327351   
     94. A(C  13,C  14,H  33)          110.6528         0.327549   
     95. A(C  13,C  14,H  35)          110.5935         0.327600   
     96. A(H  34,C  14,H  35)          107.1400         0.289159   
     97. A(C  16,C  15,C  20)          117.8510         0.421738   
     98. A(P   7,C  15,C  20)          120.7103         0.422278   
     99. A(P   7,C  15,C  16)          121.4375         0.425046   
    100. A(C  17,C  16,H  36)          117.1580         0.352467   
    101. A(C  15,C  16,H  36)          121.1835         0.349871   
    102. A(C  15,C  16,C  17)          121.6570         0.427842   
    103. A(C  16,C  17,C  18)          120.0203         0.433952   
    104. A(C  18,C  17,H  37)          120.1599         0.354620   
    105. A(C  16,C  17,H  37)          119.8199         0.352512   
    106. A(C  17,C  18,C  19)          119.6689         0.435371   
    107. A(C  19,C  18,H  38)          120.1300         0.353656   
    108. A(C  17,C  18,H  38)          120.2011         0.354679   
    109. A(C  18,C  19,C  20)          121.0773         0.429430   
    110. A(C  20,C  19,H  39)          120.2555         0.349759   
    111. A(C  18,C  19,H  39)          118.6671         0.353288   
    112. A(C  15,C  20,C  19)          119.7233         0.421928   
    113. A(C  19,C  20,C  21)          117.7108         0.397924   
    114. A(C  15,C  20,C  21)          122.5651         0.395205   
    115. A(H  41,C  21,H  42)          107.1401         0.289159   
    116. A(H  40,C  21,H  42)          106.8721         0.289116   
    117. A(C  20,C  21,H  42)          111.4605         0.327351   
    118. A(H  40,C  21,H  41)          109.9965         0.289325   
    119. A(C  20,C  21,H  41)          110.5935         0.327600   
    120. A(C  20,C  21,H  40)          110.6529         0.327549   
    121. D(C   6,C   1,C   0,H  23)    -58.3712         0.012080   
    122. D(C   2,C   1,C   0,H  24)      3.1851         0.012080   
    123. D(C   2,C   1,C   0,H  22)   -115.8923         0.012080   
    124. D(C   6,C   1,C   0,H  22)     63.7711         0.012080   
    125. D(C   2,C   1,C   0,H  23)    121.9654         0.012080   
    126. D(C   3,C   2,C   1,C   0)   -179.9384         0.023459   
    127. D(H  25,C   2,C   1,C   0)     -0.0546         0.023459   
    128. D(H  25,C   2,C   1,C   6)   -179.7280         0.023459   
    129. D(C   3,C   2,C   1,C   6)      0.3882         0.023459   
    130. D(H  26,C   3,C   2,H  25)     -0.0191         0.026589   
    131. D(C   4,C   3,C   2,H  25)   -179.9248         0.026589   
    132. D(H  26,C   3,C   2,C   1)    179.8665         0.026589   
    133. D(C   4,C   3,C   2,C   1)     -0.0392         0.026589   
    134. D(C   5,C   4,C   3,C   2)     -0.1228         0.027570   
    135. D(C   5,C   4,C   3,H  26)    179.9716         0.027570   
    136. D(H  27,C   4,C   3,C   2)    179.8980         0.027570   
    137. D(H  27,C   4,C   3,H  26)     -0.0077         0.027570   
    138. D(H  28,C   5,C   4,H  27)      0.3449         0.025586   
    139. D(C   6,C   5,C   4,C   3)     -0.0681         0.025586   
    140. D(C   6,C   5,C   4,H  27)    179.9112         0.025586   
    141. D(H  28,C   5,C   4,C   3)   -179.6344         0.025586   
    142. D(P   7,C   6,C   5,H  28)     -0.4263         0.023336   
    143. D(P   7,C   6,C   5,C   4)   -179.9752         0.023336   
    144. D(C   1,C   6,C   5,H  28)    179.9568         0.023336   
    145. D(C   1,C   6,C   5,C   4)      0.4078         0.023336   
    146. D(P   7,C   6,C   1,C   2)    179.8207         0.021622   
    147. D(P   7,C   6,C   1,C   0)      0.1638         0.021622   
    148. D(C   5,C   6,C   1,C   2)     -0.5595         0.021622   
    149. D(C   5,C   6,C   1,C   0)    179.7837         0.021622   
    150. D(C   8,P   7,C   6,C   5)     96.3123         0.003580   
    151. D(C   8,P   7,C   6,C   1)    -84.0816         0.003580   
    152. D(C  15,P   7,C   6,C   5)    -13.8054         0.003580   
    153. D(C  15,P   7,C   6,C   1)    165.8007         0.003580   
    154. D(C  13,C   8,P   7,C  15)    -84.0815         0.003580   
    155. D(C  13,C   8,P   7,C   6)    165.8008         0.003580   
    156. D(C   9,C   8,P   7,C  15)     96.3124         0.003580   
    157. D(C   9,C   8,P   7,C   6)    -13.8054         0.003580   
    158. D(H  29,C   9,C   8,C  13)    179.9565         0.023336   
    159. D(H  29,C   9,C   8,P   7)     -0.4265         0.023336   
    160. D(C  10,C   9,C   8,C  13)      0.4076         0.023336   
    161. D(C  10,C   9,C   8,P   7)   -179.9753         0.023336   
    162. D(H  30,C  10,C   9,H  29)      0.3449         0.025586   
    163. D(H  30,C  10,C   9,C   8)    179.9111         0.025586   
    164. D(C  11,C  10,C   9,H  29)   -179.6344         0.025586   
    165. D(C  11,C  10,C   9,C   8)     -0.0682         0.025586   
    166. D(H  31,C  11,C  10,H  30)     -0.0075         0.027570   
    167. D(H  31,C  11,C  10,C   9)    179.9717         0.027570   
    168. D(C  12,C  11,C  10,C   9)     -0.1226         0.027570   
    169. D(C  12,C  11,C  10,H  30)    179.8981         0.027570   
    170. D(H  32,C  12,C  11,H  31)     -0.0192         0.026589   
    171. D(H  32,C  12,C  11,C  10)   -179.9249         0.026589   
    172. D(C  13,C  12,C  11,H  31)    179.8665         0.026589   
    173. D(C  13,C  12,C  11,C  10)     -0.0392         0.026589   
    174. D(C  14,C  13,C  12,H  32)     -0.0547         0.023459   
    175. D(C  14,C  13,C  12,C  11)   -179.9386         0.023459   
    176. D(C   8,C  13,C  12,H  32)   -179.7281         0.023459   
    177. D(C   8,C  13,C  12,C  11)      0.3880         0.023459   
    178. D(C  14,C  13,C   8,C   9)    179.7839         0.021622   
    179. D(C  14,C  13,C   8,P   7)      0.1640         0.021622   
    180. D(C  12,C  13,C   8,C   9)     -0.5592         0.021622   
    181. D(C  12,C  13,C   8,P   7)    179.8209         0.021622   
    182. D(H  33,C  14,C  13,C  12)    121.9646         0.012080   
    183. D(H  33,C  14,C  13,C   8)    -58.3720         0.012080   
    184. D(H  35,C  14,C  13,C   8)     63.7704         0.012080   
    185. D(H  34,C  14,C  13,C  12)      3.1842         0.012080   
    186. D(H  34,C  14,C  13,C   8)   -177.1523         0.012080   
    187. D(C  20,C  15,P   7,C   8)    165.7990         0.003580   
    188. D(C  20,C  15,P   7,C   6)    -84.0832         0.003580   
    189. D(C  16,C  15,P   7,C   8)    -13.8072         0.003580   
    190. D(C  16,C  15,P   7,C   6)     96.3106         0.003580   
    191. D(H  36,C  16,C  15,C  20)    179.9567         0.023336   
    192. D(H  36,C  16,C  15,P   7)     -0.4263         0.023336   
    193. D(C  17,C  16,C  15,C  20)      0.4079         0.023336   
    194. D(C  17,C  16,C  15,P   7)   -179.9750         0.023336   
    195. D(H  37,C  17,C  16,H  36)      0.3450         0.025587   
    196. D(H  37,C  17,C  16,C  15)    179.9111         0.025587   
    197. D(C  18,C  17,C  16,H  36)   -179.6344         0.025587   
    198. D(C  18,C  17,C  16,C  15)     -0.0683         0.025587   
    199. D(H  38,C  18,C  17,H  37)     -0.0076         0.027570   
    200. D(H  38,C  18,C  17,C  16)    179.9717         0.027570   
    201. D(C  19,C  18,C  17,H  37)    179.8980         0.027570   
    202. D(C  19,C  18,C  17,C  16)     -0.1227         0.027570   
    203. D(H  39,C  19,C  18,H  38)     -0.0191         0.026589   
    204. D(H  39,C  19,C  18,C  17)   -179.9248         0.026589   
    205. D(C  20,C  19,C  18,H  38)    179.8666         0.026589   
    206. D(C  20,C  19,C  18,C  17)     -0.0391         0.026589   
    207. D(C  21,C  20,C  19,H  39)     -0.0549         0.023459   
    208. D(C  21,C  20,C  19,C  18)   -179.9388         0.023459   
    209. D(C  15,C  20,C  19,H  39)   -179.7281         0.023459   
    210. D(C  15,C  20,C  19,C  18)      0.3880         0.023459   
    211. D(C  21,C  20,C  15,C  16)    179.7839         0.021622   
    212. D(C  21,C  20,C  15,P   7)      0.1639         0.021622   
    213. D(C  19,C  20,C  15,C  16)     -0.5594         0.021622   
    214. D(C  19,C  20,C  15,P   7)    179.8206         0.021622   
    215. D(H  42,C  21,C  20,C  15)   -177.1518         0.012080   
    216. D(H  41,C  21,C  20,C  19)   -115.8925         0.012080   
    217. D(H  41,C  21,C  20,C  15)     63.7708         0.012080   
    218. D(H  40,C  21,C  20,C  19)    121.9652         0.012080   
    219. D(H  40,C  21,C  20,C  15)    -58.3716         0.012080   
    -----------------------------------------------------------------

Number of atoms                         .... 43
Number of degrees of freedom            .... 219


         *************************************************************
         *                GEOMETRY OPTIMIZATION CYCLE   1            *
         *************************************************************
---------------------------------
CARTESIAN COORDINATES (ANGSTROEM)
---------------------------------
  C      2.751471   -0.306212   -2.160390
  C      2.511913   -1.108467   -0.905035
  C      3.562409   -1.921220   -0.436806
  C      3.417036   -2.691537    0.713652
  C      2.219730   -2.660629    1.414135
  C      1.168192   -1.857404    0.965856
  C      1.285779   -1.063595   -0.192297
  P     -0.099163   -0.010187   -0.775348
  C      0.260629    1.656532   -0.096911
  C      1.228108    1.847154    0.909532
  C      1.505325    3.113834    1.429656
  C      0.821940    4.224058    0.954722
  C     -0.137102    4.068414   -0.042317
  C     -0.426969    2.799675   -0.580487
  C     -1.479168    2.718694   -1.659021
  C     -1.562183   -0.594566    0.165798
  C     -1.984508    0.052509    1.344024
  C     -3.097270   -0.388767    2.064365
  C     -3.817967   -1.489296    1.623223
  C     -3.427736   -2.147432    0.460187
  C     -2.310800   -1.714391   -0.280270
  C     -1.956487   -2.482713   -1.529694
  H      2.714149    0.766118   -1.944923
  H      2.012880   -0.559819   -2.927489
  H      3.738424   -0.515553   -2.587667
  H      4.507953   -1.958767   -0.974181
  H      4.236926   -3.314818    1.059911
  H      2.096976   -3.260073    2.312342
  H      0.253599   -1.863878    1.553310
  H      1.786369    1.009376    1.319528
  H      2.256800    3.226392    2.206697
  H      1.034868    5.210493    1.357465
  H     -0.662375    4.950322   -0.403653
  H     -1.063922    2.278602   -2.571251
  H     -1.854999    3.712164   -1.927788
  H     -2.336728    2.131146   -1.316842
  H     -1.450605    0.914977    1.734816
  H     -3.395835    0.132007    2.970362
  H     -4.683592   -1.835280    2.181418
  H     -4.005400   -3.007939    0.128423
  H     -1.959608   -1.822514   -2.402850
  H     -0.976755   -2.958803   -1.423989
  H     -2.682302   -3.278609   -1.730213

----------------------------
CARTESIAN COORDINATES (A.U.)
----------------------------
  NO LB      ZA    FRAG     MASS         X           Y           Z
   0 C     6.0000    0    12.011    5.199527   -0.578657   -4.082545
   1 C     6.0000    0    12.011    4.746828   -2.094699   -1.710268
   2 C     6.0000    0    12.011    6.731977   -3.630580   -0.825444
   3 C     6.0000    0    12.011    6.457262   -5.086268    1.348607
   4 C     6.0000    0    12.011    4.194682   -5.027860    2.672328
   5 C     6.0000    0    12.011    2.207563   -3.509985    1.825203
   6 C     6.0000    0    12.011    2.429770   -2.009903   -0.363389
   7 P    15.0000    0    30.974   -0.187391   -0.019251   -1.465195
   8 C     6.0000    0    12.011    0.492517    3.130392   -0.183135
   9 C     6.0000    0    12.011    2.320788    3.490615    1.718766
  10 C     6.0000    0    12.011    2.844652    5.884293    2.701658
  11 C     6.0000    0    12.011    1.553241    7.982313    1.804163
  12 C     6.0000    0    12.011   -0.259085    7.688188   -0.079968
  13 C     6.0000    0    12.011   -0.806854    5.290619   -1.096961
  14 C     6.0000    0    12.011   -2.795222    5.137587   -3.135095
  15 C     6.0000    0    12.011   -2.952098   -1.123567    0.313313
  16 C     6.0000    0    12.011   -3.750177    0.099228    2.539837
  17 C     6.0000    0    12.011   -5.852992   -0.734663    3.901084
  18 C     6.0000    0    12.011   -7.214912   -2.814362    3.067447
  19 C     6.0000    0    12.011   -6.477482   -4.058058    0.869627
  20 C     6.0000    0    12.011   -4.366779   -3.239729   -0.529634
  21 C     6.0000    0    12.011   -3.697225   -4.691648   -2.890703
  22 H     1.0000    0     1.008    5.128998    1.447753   -3.675372
  23 H     1.0000    0     1.008    3.803792   -1.057905   -5.532152
  24 H     1.0000    0     1.008    7.064598   -0.974254   -4.889982
  25 H     1.0000    0     1.008    8.518797   -3.701533   -1.840935
  26 H     1.0000    0     1.008    8.006630   -6.264098    2.002942
  27 H     1.0000    0     1.008    3.962710   -6.160645    4.369693
  28 H     1.0000    0     1.008    0.479233   -3.522219    2.935331
  29 H     1.0000    0     1.008    3.375748    1.907444    2.493547
  30 H     1.0000    0     1.008    4.264734    6.096997    4.170053
  31 H     1.0000    0     1.008    1.955617    9.846405    2.565237
  32 H     1.0000    0     1.008   -1.251707    9.354753   -0.762794
  33 H     1.0000    0     1.008   -2.010521    4.305934   -4.858960
  34 H     1.0000    0     1.008   -3.505440    7.014973   -3.642991
  35 H     1.0000    0     1.008   -4.415776    4.027282   -2.488471
  36 H     1.0000    0     1.008   -2.741246    1.729056    3.278327
  37 H     1.0000    0     1.008   -6.417198    0.249457    5.613171
  38 H     1.0000    0     1.008   -8.850706   -3.468177    4.122283
  39 H     1.0000    0     1.008   -7.569109   -5.684181    0.242684
  40 H     1.0000    0     1.008   -3.703122   -3.444052   -4.540728
  41 H     1.0000    0     1.008   -1.845799   -5.591327   -2.690949
  42 H     1.0000    0     1.008   -5.068816   -6.195673   -3.269629

--------------------------------
INTERNAL COORDINATES (ANGSTROEM)
--------------------------------
 C      0   0   0     0.000000000000     0.00000000     0.00000000
 C      1   0   0     1.508945756618     0.00000000     0.00000000
 C      2   1   0     1.408313772377   117.71073754     0.00000000
 C      3   2   1     1.392147693092   121.07734710   180.06155401
 C      4   3   2     1.387506178505   119.66888267   359.96077462
 C      5   4   3     1.397088625646   120.02022278   359.87723257
 C      6   5   4     1.408998865315   121.65713464   359.93187497
 P      7   6   5     1.835124308168   121.43758447   180.02477655
 C      8   7   6     1.835123775442   104.82852826    96.31233848
 C      9   8   7     1.408999600629   121.43749435   346.19463966
 C     10   9   8     1.397088566579   121.65705464   180.02466690
 C     11  10   9     1.387506646023   120.02024746   359.93183365
 C     12  11  10     1.392147039655   119.66887521   359.87736630
 C     13  12  11     1.408314054716   121.07739810   359.96078730
 C     14  13  12     1.508945408926   117.71080269   180.06137270
 C      8   7   6     1.835124554181   104.82837240   346.19462362
 C     16   8   7     1.408999988760   121.43754474    96.31064225
 C     17  16   8     1.397088019096   121.65703069   180.02497616
 C     18  17  16     1.387506580098   120.02028167   359.93169016
 C     19  18  17     1.392147968124   119.66887332   359.87732236
 C     20  19  18     1.408313567579   121.07733955   359.96087442
 C     21  20  19     1.508945568743   117.71076731   180.06124382
 H      1   2   3     1.094399647603   110.59355330   244.10770989
 H      1   2   3     1.094657047450   110.65279157   121.96536098
 H      1   2   3     1.095657571150   111.46052005     3.18514891
 H      3   2   1     1.088225676857   120.25547946   359.94536784
 H      4   3   2     1.086551476987   120.13000612   179.86650227
 H      5   4   3     1.086819887792   120.15985225   179.89800424
 H      6   5   4     1.087025515083   117.15778330   180.36559534
 H     10   9   8     1.087025317746   121.18359519   359.57352224
 H     11  10   9     1.086819531785   119.81989205   179.91113470
 H     12  11  10     1.086551547999   120.20105778   179.97168293
 H     13  12  11     1.088226607784   118.66708015   180.07505347
 H     15  14  13     1.094656924283   110.65280033   121.96458166
 H     15  14  13     1.095658378214   111.46047941     3.18423488
 H     15  14  13     1.094398590069   110.59352602   244.10694085
 H     17  16   8     1.087024310536   121.18351769   359.57371727
 H     18  17  16     1.086819756128   119.81986414   179.91110450
 H     19  18  17     1.086551069626   120.20106707   179.97169602
 H     20  19  18     1.088225778798   118.66710235   180.07517306
 H     22  21  20     1.094656960229   110.65287518   121.96516256
 H     22  21  20     1.094399390967   110.59349048   244.10750932
 H     22  21  20     1.095657668436   111.46052184     3.18491939

---------------------------
INTERNAL COORDINATES (A.U.)
---------------------------
 C      0   0   0     0.000000000000     0.00000000     0.00000000
 C      1   0   0     2.851494230950     0.00000000     0.00000000
 C      2   1   0     2.661327340422   117.71073754     0.00000000
 C      3   2   1     2.630777877915   121.07734710   180.06155401
 C      4   3   2     2.622006686498   119.66888267   359.96077462
 C      5   4   3     2.640114887288   120.02022278   359.87723257
 C      6   5   4     2.662621978451   121.65713464   359.93187497
 P      7   6   5     3.467882364139   121.43758447   180.02477655
 C      8   7   6     3.467881357434   104.82852826    96.31233848
 C      9   8   7     2.662623367994   121.43749435   346.19463966
 C     10   9   8     2.640114775666   121.65705464   180.02466690
 C     11  10   9     2.622007569978   120.02024746   359.93183365
 C     12  11  10     2.630776643098   119.66887521   359.87736630
 C     13  12  11     2.661327873965   121.07739810   359.96078730
 C     14  13  12     2.851493573907   117.71080269   180.06137270
 C      8   7   6     3.467882829036   104.82837240   346.19462362
 C     16   8   7     2.662624101455   121.43754474    96.31064225
 C     17  16   8     2.640113741074   121.65703069   180.02497616
 C     18  17  16     2.622007445398   120.02028167   359.93169016
 C     19  18  17     2.630778397650   119.66887332   359.87732236
 C     20  19  18     2.661326953409   121.07733955   359.96087442
 C     21  20  19     2.851493875918   117.71076731   180.06124382
 H      1   2   3     2.068115615029   110.59355330   244.10770989
 H      1   2   3     2.068602030247   110.65279157   121.96536098
 H      1   2   3     2.070492746031   111.46052005     3.18514891
 H      3   2   1     2.056448501160   120.25547946   359.94536784
 H      4   3   2     2.053284721913   120.13000612   179.86650227
 H      5   4   3     2.053791944827   120.15985225   179.89800424
 H      6   5   4     2.054180524091   117.15778330   180.36559534
 H     10   9   8     2.054180151179   121.18359519   359.57352224
 H     11  10   9     2.053791272071   119.81989205   179.91113470
 H     12  11  10     2.053284856105   120.20105778   179.97168293
 H     13  12  11     2.056450260358   118.66708015   180.07505347
 H     15  14  13     2.068601797495   110.65280033   121.96458166
 H     15  14  13     2.070494271160   111.46047941     3.18423488
 H     15  14  13     2.068113616580   110.59352602   244.10694085
 H     17  16   8     2.054178247828   121.18351769   359.57371727
 H     18  17  16     2.053791696017   119.81986414   179.91110450
 H     19  18  17     2.053283952113   120.20106707   179.97169602
 H     20  19  18     2.056448693802   118.66710235   180.07517306
 H     22  21  20     2.068601865424   110.65287518   121.96516256
 H     22  21  20     2.068115130058   110.59349048   244.10750932
 H     22  21  20     2.070492929874   111.46052184     3.18491939

---------------------
BASIS SET INFORMATION
---------------------
There are 3 groups of distinct atoms

 Group   1 Type C   : 7s4p1d contracted to 3s2p1d pattern {511/31/1}
 Group   2 Type P   : 10s7p1d contracted to 4s3p1d pattern {5311/511/1}
 Group   3 Type H   : 4s1p contracted to 2s1p pattern {31/1}

Atom   0C    basis set group =>   1
Atom   1C    basis set group =>   1
Atom   2C    basis set group =>   1
Atom   3C    basis set group =>   1
Atom   4C    basis set group =>   1
Atom   5C    basis set group =>   1
Atom   6C    basis set group =>   1
Atom   7P    basis set group =>   2
Atom   8C    basis set group =>   1
Atom   9C    basis set group =>   1
Atom  10C    basis set group =>   1
Atom  11C    basis set group =>   1
Atom  12C    basis set group =>   1
Atom  13C    basis set group =>   1
Atom  14C    basis set group =>   1
Atom  15C    basis set group =>   1
Atom  16C    basis set group =>   1
Atom  17C    basis set group =>   1
Atom  18C    basis set group =>   1
Atom  19C    basis set group =>   1
Atom  20C    basis set group =>   1
Atom  21C    basis set group =>   1
Atom  22H    basis set group =>   3
Atom  23H    basis set group =>   3
Atom  24H    basis set group =>   3
Atom  25H    basis set group =>   3
Atom  26H    basis set group =>   3
Atom  27H    basis set group =>   3
Atom  28H    basis set group =>   3
Atom  29H    basis set group =>   3
Atom  30H    basis set group =>   3
Atom  31H    basis set group =>   3
Atom  32H    basis set group =>   3
Atom  33H    basis set group =>   3
Atom  34H    basis set group =>   3
Atom  35H    basis set group =>   3
Atom  36H    basis set group =>   3
Atom  37H    basis set group =>   3
Atom  38H    basis set group =>   3
Atom  39H    basis set group =>   3
Atom  40H    basis set group =>   3
Atom  41H    basis set group =>   3
Atom  42H    basis set group =>   3
---------------------------------
AUXILIARY/J BASIS SET INFORMATION
---------------------------------
There are 3 groups of distinct atoms

 Group   1 Type C   : 12s5p4d2f1g contracted to 6s4p3d1f1g pattern {711111/2111/211/2/1}
 Group   2 Type P   : 14s5p5d2f1g contracted to 8s4p3d1f1g pattern {71111111/2111/311/2/1}
 Group   3 Type H   : 5s2p1d contracted to 3s1p1d pattern {311/2/1}

Atom   0C    basis set group =>   1
Atom   1C    basis set group =>   1
Atom   2C    basis set group =>   1
Atom   3C    basis set group =>   1
Atom   4C    basis set group =>   1
Atom   5C    basis set group =>   1
Atom   6C    basis set group =>   1
Atom   7P    basis set group =>   2
Atom   8C    basis set group =>   1
Atom   9C    basis set group =>   1
Atom  10C    basis set group =>   1
Atom  11C    basis set group =>   1
Atom  12C    basis set group =>   1
Atom  13C    basis set group =>   1
Atom  14C    basis set group =>   1
Atom  15C    basis set group =>   1
Atom  16C    basis set group =>   1
Atom  17C    basis set group =>   1
Atom  18C    basis set group =>   1
Atom  19C    basis set group =>   1
Atom  20C    basis set group =>   1
Atom  21C    basis set group =>   1
Atom  22H    basis set group =>   3
Atom  23H    basis set group =>   3
Atom  24H    basis set group =>   3
Atom  25H    basis set group =>   3
Atom  26H    basis set group =>   3
Atom  27H    basis set group =>   3
Atom  28H    basis set group =>   3
Atom  29H    basis set group =>   3
Atom  30H    basis set group =>   3
Atom  31H    basis set group =>   3
Atom  32H    basis set group =>   3
Atom  33H    basis set group =>   3
Atom  34H    basis set group =>   3
Atom  35H    basis set group =>   3
Atom  36H    basis set group =>   3
Atom  37H    basis set group =>   3
Atom  38H    basis set group =>   3
Atom  39H    basis set group =>   3
Atom  40H    basis set group =>   3
Atom  41H    basis set group =>   3
Atom  42H    basis set group =>   3


           ************************************************************
           *        Program running with 6 parallel MPI-processes     *
           *              working on a common directory               *
           ************************************************************
------------------------------------------------------------------------------
                             ORCA STARTUP CALCULATIONS
                           -- RI-GTO INTEGRALS CHOSEN --
------------------------------------------------------------------------------
------------------------------------------------------------------------------
                   ___                                                        
                  /   \      - P O W E R E D   B Y -                         
                 /     \                                                     
                 |  |  |   _    _      __       _____    __    __             
                 |  |  |  | |  | |    /  \     |  _  \  |  |  /  |          
                  \  \/   | |  | |   /    \    | | | |  |  | /  /          
                 / \  \   | |__| |  /  /\  \   | |_| |  |  |/  /          
                |  |  |   |  __  | /  /__\  \  |    /   |      \           
                |  |  |   | |  | | |   __   |  |    \   |  |\   \          
                \     /   | |  | | |  |  |  |  | |\  \  |  | \   \       
                 \___/    |_|  |_| |__|  |__|  |_| \__\ |__|  \__/        
                                                                              
                      - O R C A' S   B I G   F R I E N D -                    
                                      &                                       
                       - I N T E G R A L  F E E D E R -                       
                                                                              
 v1 FN, 2020, v2 2021, v3 2022-2024                                           
------------------------------------------------------------------------------


----------------------
SHARK INTEGRAL PACKAGE
----------------------

Number of atoms                             ...     43
Number of basis functions                   ...    417
Number of shells                            ...    197
Maximum angular momentum                    ...      2
Integral batch strategy                     ... SHARK/LIBINT Hybrid
RI-J (if used) integral strategy            ... SPLIT-RIJ (Revised 2003 algorithm where possible)
Printlevel                                  ...      1
Contraction scheme used                     ... SEGMENTED contraction
Prescreening option                         ... SCHWARTZ
   Thresh                                   ... 2.500e-11
   Tcut                                     ... 2.500e-12
   Tpresel                                  ... 2.500e-12 
Coulomb Range Separation                    ... NOT USED
Exchange Range Separation                   ... NOT USED
Multipole approximations                    ... NOT USED
Finite Nucleus Model                        ... NOT USED
CABS basis                                  ... NOT available
Auxiliary Coulomb fitting basis             ... AVAILABLE
   # of basis functions in Aux-J            ...   1311
   # of shells in Aux-J                     ...    437
   Maximum angular momentum in Aux-J        ...      4
Auxiliary J/K fitting basis                 ... NOT available
Auxiliary Correlation fitting basis         ... NOT available
Auxiliary 'external' fitting basis          ... NOT available

Checking pre-screening integrals            ... done (  0.0 sec) Dimension = 197
Check shell pair data                       ... done (  0.0 sec)
Shell pair information
Shell pair cut-off parameter TPreSel        ...   2.5e-12
Total number of shell pairs                 ...     19503
Shell pairs after pre-screening             ...     15042
Total number of primitive shell pairs       ...     70859
Primitive shell pairs kept                  ...     34659
          la=0 lb=0:   4801 shell pairs
          la=1 lb=0:   5635 shell pairs
          la=1 lb=1:   1716 shell pairs
          la=2 lb=0:   1722 shell pairs
          la=2 lb=1:   1023 shell pairs
          la=2 lb=2:    145 shell pairs

Calculating one electron integrals          ... done (  0.0 sec)
Calculating RI/J V-Matrix + Cholesky decomp.... done (  0.1 sec)
Calculating Nuclear repulsion               ... done (  0.0 sec) ENN=   1858.363665861320 Eh

Diagonalization of the overlap matrix:
Smallest eigenvalue                        ... 2.551e-04
Time for diagonalization                   ...    0.023 sec
Threshold for overlap eigenvalues          ... 1.000e-07
Number of eigenvalues below threshold      ... 0
Time for construction of square roots      ...    0.012 sec
Total time needed                          ...    0.036 sec

-------------------
DFT GRID GENERATION
-------------------

General Integration Accuracy     IntAcc      ... 4.388
Radial Grid Type                 RadialGrid  ... OptM3 with GC (2021)
Angular Grid (max. ang.)         AngularGrid ... 4 (Lebedev-302)
Angular grid pruning method      GridPruning ... 4 (adaptive)
Weight generation scheme         WeightScheme... mBecke (2022)
Basis function cutoff            BFCut       ... 1.0000e-11
Integration weight cutoff        WCut        ... 1.0000e-14
Partially contracted basis set               ... off
Rotationally invariant grid construction     ... off
Angular grids for H and He will be reduced by one unit

Total number of grid points                  ...   199133
Total number of batches                      ...     3136
Average number of points per batch           ...       63
Average number of grid points per atom       ...     4631
Initializing property integral containers    ... done (  0.0 sec)

SHARK setup successfully completed in   1.4 seconds

Maximum memory used throughout the entire STARTUP-calculation: 54.1 MB


           ************************************************************
           *        Program running with 6 parallel MPI-processes     *
           *              working on a common directory               *
           ************************************************************
-------------------------------------------------------------------------------
                                 ORCA GUESS
                   Start orbitals & Density for SCF / CASSCF
-------------------------------------------------------------------------------

------------
SCF SETTINGS
------------
Hamiltonian:
 Density Functional     Method          .... DFT(GTOs)
 Exchange Functional    Exchange        .... B88
   X-Alpha parameter    XAlpha          ....  0.666667
   Becke's b parameter  XBeta           ....  0.004200
 Correlation Functional Correlation     .... LYP
 LDA part of GGA corr.  LDAOpt          .... VWN-5
 Gradients option       PostSCFGGA      .... off
 Hybrid DFT is turned on
   Fraction HF Exchange ScalHFX         ....  0.200000
   Scaling of DF-GGA-X  ScalDFX         ....  0.720000
   Scaling of DF-GGA-C  ScalDFC         ....  0.810000
   Scaling of DF-LDA-C  ScalLDAC        ....  1.000000
   Perturbative correction              ....  0.000000
   NL short-range parameter             ....  4.800000
 RI-approximation to the Coulomb term is turned on
   Number of AuxJ basis functions       .... 1311
   RIJ-ON(X) (HFX calculated with O(N)) .... on


General Settings:
 Integral files         IntName         .... data/geom_opt/80271/80271
 Hartree-Fock type      HFTyp           .... RHF
 Total Charge           Charge          ....    0
 Multiplicity           Mult            ....    1
 Number of Electrons    NEL             ....  162
 Basis Dimension        Dim             ....  417
 Nuclear Repulsion      ENuc            ....   1858.3636658613 Eh

Convergence Acceleration:
 AO-DIIS                CNVDIIS         .... on
   Start iteration      DIISMaxIt       ....    12
   Startup error        DIISStart       ....  0.200000
   # of expansion vecs  DIISMaxEq       ....     5
   Bias factor          DIISBfac        ....   1.050
   Max. coefficient     DIISMaxC        ....  10.000
 MO-DIIS                CNVKDIIS        .... off
 Trust-Rad. Augm. Hess. CNVTRAH         .... auto
   Auto Start mean grad. ratio tolernc. ....  1.125000
   Auto Start start iteration           ....    50
   Auto Start num. interpolation iter.  ....    10
   Max. Number of Micro iterations      ....    24
   Max. Number of Macro iterations      .... Maxiter - #DIIS iter
   Number of Davidson start vectors     ....     2
   Converg. threshold    (grad. norm)   ....   1.000e-05
   Grad. Scal. Fac. for Micro threshold ....   0.100
   Minimum threshold for Micro iter.    ....   1.000e-02
   NR start threshold (gradient norm)   ....   1.000e-04
   Initial trust radius                 ....   0.400
   Minimum AH scaling param. (alpha)    ....   1.000
   Maximum AH scaling param. (alpha)    .... 1000.000
   Quad. conv. algorithm                .... NR
   White noise on init. David. guess    .... on
   Maximum white noise                  ....   0.010
   Pseudo random numbers                .... off
   Inactive MOs                         .... canonical
   Orbital update algorithm             .... Taylor
   Preconditioner                       .... Diag
   Full preconditioner red. dimension   ....   250
   COSX micro iterations for RIJONX calc.... off
 SOSCF                  CNVSOSCF        .... on
   Start iteration      SOSCFMaxIt      ....   150
   Startup grad/error   SOSCFStart      ....  0.003300
   Hessian update       SOSCFHessUp     .... L-BFGS
 Level Shifting         CNVShift        .... on
   Level shift para.    LevelShift      ....    0.2500
   Turn off err/grad.   ShiftErr        ....    0.0010
 Zerner damping         CNVZerner       .... off
 Static damping         CNVDamp         .... on
   Fraction old density DampFac         ....    0.7000
   Max. Damping (<1)    DampMax         ....    0.9800
   Min. Damping (>=0)   DampMin         ....    0.0000
   Turn off err/grad.   DampErr         ....    0.1000

SCF Procedure:
 Maximum # iterations   MaxIter         ....   125
 SCF integral mode      SCFMode         .... Direct
   Integral package                     .... SHARK and LIBINT hybrid scheme
 Reset frequency        DirectResetFreq ....    20
 Integral Threshold     Thresh          ....  2.500e-11 Eh
 Primitive CutOff       TCut            ....  2.500e-12 Eh

Convergence Tolerance:
 Convergence Check Mode ConvCheckMode   .... Total+1el-Energy
 Convergence forced     ConvForced      .... 0
 Energy Change          TolE            ....  1.000e-08 Eh
 1-El. energy change                    ....  1.000e-05 Eh
 Orbital Gradient       TolG            ....  1.000e-05
 Orbital Rotation angle TolX            ....  1.000e-05
 DIIS Error             TolErr          ....  5.000e-07

------------------------------
INITIAL GUESS: MODEL POTENTIAL
------------------------------
Loading Hartree-Fock densities                     ... done
Calculating cut-offs                               ... done
Initializing the effective Hamiltonian             ... done
Setting up the integral package (SHARK)            ... done
Starting the Coulomb interaction                   ... done (   0.2 sec)
Making the grid                                    ... done (   0.3 sec)
Mapping shells                                     ... done
Starting the XC term evaluation                    ... done (   0.2 sec)
  promolecular density results
     # of electrons  =    161.986851454
     EX              =   -136.824374206
     EC              =     -5.489790586
     EX+EC           =   -142.314164792
Transforming the Hamiltonian                       ... done (   0.0 sec)
Diagonalizing the Hamiltonian                      ... done (   0.0 sec)
Back transforming the eigenvectors                 ... done (   0.0 sec)
Now organizing SCF variables                       ... done
                      ------------------
                      INITIAL GUESS DONE (   0.8 sec)
                      ------------------
             **** ENERGY FILE WAS UPDATED (data/geom_opt/80271/80271.en.tmp) ****
Finished Guess after   0.9 sec
Maximum memory used throughout the entire GUESS-calculation: 31.3 MB


           ************************************************************
           *        Program running with 6 parallel MPI-processes     *
           *              working on a common directory               *
           ************************************************************

-------------------------------------------------------------------------------------------
                                      ORCA LEAN-SCF
                              memory conserving SCF solver
-------------------------------------------------------------------------------------------

----------------------------------------D-I-I-S--------------------------------------------
Iteration    Energy (Eh)           Delta-E    RMSDP     MaxDP     DIISErr   Damp  Time(sec)
-------------------------------------------------------------------------------------------
               ***  Starting incremental Fock matrix formation  ***
    1    -1152.4843496129208233     0.00e+00  2.27e-03  7.68e-02  1.61e-01  0.700   7.2
    2    -1152.7042444843316389    -2.20e-01  1.62e-03  5.89e-02  8.68e-02  0.700   6.4
                               ***Turning on AO-DIIS***
    3    -1152.8010440597452089    -9.68e-02  7.41e-04  3.48e-02  3.55e-02  0.700   6.3
    4    -1152.8565041848062265    -5.55e-02  1.44e-03  8.11e-02  1.84e-02  0.000   5.9
    5    -1152.9745344923228458    -1.18e-01  1.98e-04  1.23e-02  5.27e-03  0.000   6.2
                              *** Initializing SOSCF ***
---------------------------------------S-O-S-C-F--------------------------------------
Iteration    Energy (Eh)           Delta-E    RMSDP     MaxDP     MaxGrad    Time(sec)
--------------------------------------------------------------------------------------
    6    -1152.9751898442475522    -6.55e-04  7.76e-05  3.88e-03  1.17e-03     5.4
               *** Restarting incremental Fock matrix formation ***
    7    -1152.9752433362270949    -5.35e-05  5.39e-05  1.47e-03  2.88e-04     7.3
    8    -1152.9752357508602927     7.59e-06  2.78e-05  9.00e-04  6.98e-04     4.7
    9    -1152.9752503915217403    -1.46e-05  1.42e-05  7.28e-04  1.26e-04     4.3
   10    -1152.9752499242970316     4.67e-07  7.14e-06  2.50e-04  1.07e-04     4.1
   11    -1152.9752512336292511    -1.31e-06  2.14e-06  1.44e-04  1.43e-05     3.8
   12    -1152.9752512305756227     3.05e-09  1.34e-06  8.00e-05  2.58e-05     3.3
                 **** Energy Check signals convergence ****

               *****************************************************
               *                     SUCCESS                       *
               *           SCF CONVERGED AFTER  12 CYCLES          *
               *****************************************************

             **** ENERGY FILE WAS UPDATED (data/geom_opt/80271/80271.en.tmp) ****

----------------
TOTAL SCF ENERGY
----------------

Total Energy       :      -1152.97525123057562 Eh          -31374.05161 eV

Components:
Nuclear Repulsion  :       1858.36366586132021 Eh           50568.64621 eV
Electronic Energy  :      -3011.33891709189584 Eh          -81942.69782 eV
One Electron Energy:      -5262.84673964206286 Eh         -143209.34041 eV
Two Electron Energy:       2251.50782255016702 Eh           61266.64259 eV

Virial components:
Potential Energy   :      -2296.09276070081523 Eh          -62479.86043 eV
Kinetic Energy     :       1143.11750947023938 Eh           31105.80882 eV
Virial Ratio       :          2.00862355941421

DFT components:
N(Alpha)           :       80.999805073644 electrons
N(Beta)            :       80.999805073644 electrons
N(Total)           :      161.999610147287 electrons
E(X)               :     -110.132375339728 Eh       
E(C)               :       -6.474163452494 Eh       
E(XC)              :     -116.606538792222 Eh       

---------------
SCF CONVERGENCE
---------------

  Last Energy change         ...   -3.0536e-09  Tolerance :   1.0000e-08
  Last MAX-Density change    ...    8.0032e-05  Tolerance :   1.0000e-07
  Last RMS-Density change    ...    1.3351e-06  Tolerance :   5.0000e-09
  Last DIIS Error            ...    1.1736e-03  Tolerance :   5.0000e-07
  Last Orbital Gradient      ...    2.5829e-05  Tolerance :   1.0000e-05
  Last Orbital Rotation      ...    3.9797e-05  Tolerance :   1.0000e-05


----------------
ORBITAL ENERGIES
----------------

  NO   OCC          E(Eh)            E(eV) 
   0   2.0000     -77.046015     -2096.5287 
   1   2.0000     -10.196667      -277.4654 
   2   2.0000     -10.196651      -277.4650 
   3   2.0000     -10.196649      -277.4649 
   4   2.0000     -10.189790      -277.2783 
   5   2.0000     -10.189783      -277.2781 
   6   2.0000     -10.189701      -277.2759 
   7   2.0000     -10.185908      -277.1726 
   8   2.0000     -10.185880      -277.1719 
   9   2.0000     -10.185875      -277.1718 
  10   2.0000     -10.184820      -277.1431 
  11   2.0000     -10.184817      -277.1430 
  12   2.0000     -10.184816      -277.1429 
  13   2.0000     -10.183144      -277.0974 
  14   2.0000     -10.183138      -277.0973 
  15   2.0000     -10.183136      -277.0972 
  16   2.0000     -10.182048      -277.0676 
  17   2.0000     -10.182045      -277.0675 
  18   2.0000     -10.182039      -277.0674 
  19   2.0000     -10.176886      -276.9272 
  20   2.0000     -10.176885      -276.9271 
  21   2.0000     -10.176873      -276.9268 
  22   2.0000      -6.541765      -178.0105 
  23   2.0000      -4.707221      -128.0900 
  24   2.0000      -4.707218      -128.0899 
  25   2.0000      -4.704405      -128.0134 
  26   2.0000      -0.851716       -23.1764 
  27   2.0000      -0.843862       -22.9626 
  28   2.0000      -0.843857       -22.9625 
  29   2.0000      -0.766847       -20.8670 
  30   2.0000      -0.760824       -20.7031 
  31   2.0000      -0.760822       -20.7030 
  32   2.0000      -0.753242       -20.4968 
  33   2.0000      -0.730550       -19.8793 
  34   2.0000      -0.730546       -19.8792 
  35   2.0000      -0.678216       -18.4552 
  36   2.0000      -0.671816       -18.2811 
  37   2.0000      -0.671816       -18.2810 
  38   2.0000      -0.636806       -17.3284 
  39   2.0000      -0.596866       -16.2416 
  40   2.0000      -0.596863       -16.2415 
  41   2.0000      -0.584035       -15.8924 
  42   2.0000      -0.570370       -15.5206 
  43   2.0000      -0.570369       -15.5205 
  44   2.0000      -0.540399       -14.7050 
  45   2.0000      -0.500870       -13.6294 
  46   2.0000      -0.500866       -13.6293 
  47   2.0000      -0.481285       -13.0964 
  48   2.0000      -0.463241       -12.6054 
  49   2.0000      -0.461919       -12.5695 
  50   2.0000      -0.461917       -12.5694 
  51   2.0000      -0.440380       -11.9834 
  52   2.0000      -0.440379       -11.9833 
  53   2.0000      -0.431854       -11.7513 
  54   2.0000      -0.422406       -11.4942 
  55   2.0000      -0.422404       -11.4942 
  56   2.0000      -0.416014       -11.3203 
  57   2.0000      -0.405915       -11.0455 
  58   2.0000      -0.405911       -11.0454 
  59   2.0000      -0.404848       -11.0165 
  60   2.0000      -0.398739       -10.8502 
  61   2.0000      -0.398737       -10.8502 
  62   2.0000      -0.380894       -10.3647 
  63   2.0000      -0.373197       -10.1552 
  64   2.0000      -0.373194       -10.1551 
  65   2.0000      -0.360557        -9.8112 
  66   2.0000      -0.353744        -9.6259 
  67   2.0000      -0.353743        -9.6258 
  68   2.0000      -0.350729        -9.5438 
  69   2.0000      -0.341118        -9.2823 
  70   2.0000      -0.340343        -9.2612 
  71   2.0000      -0.340342        -9.2612 
  72   2.0000      -0.320959        -8.7337 
  73   2.0000      -0.320957        -8.7337 
  74   2.0000      -0.268116        -7.2958 
  75   2.0000      -0.255205        -6.9445 
  76   2.0000      -0.255200        -6.9443 
  77   2.0000      -0.246236        -6.7004 
  78   2.0000      -0.242007        -6.5854 
  79   2.0000      -0.242005        -6.5853 
  80   2.0000      -0.201331        -5.4785 
  81   0.0000      -0.024567        -0.6685 
  82   0.0000      -0.024565        -0.6684 
  83   0.0000      -0.012118        -0.3298 
  84   0.0000      -0.002022        -0.0550 
  85   0.0000       0.001135         0.0309 
  86   0.0000       0.001140         0.0310 
  87   0.0000       0.068310         1.8588 
  88   0.0000       0.068312         1.8589 
  89   0.0000       0.070042         1.9059 
  90   0.0000       0.074805         2.0355 
  91   0.0000       0.087858         2.3907 
*Only the first 10 virtual orbitals were printed.

                    ********************************
                    * MULLIKEN POPULATION ANALYSIS *
                    ********************************

-----------------------
MULLIKEN ATOMIC CHARGES
-----------------------
   0 C :    0.115704
   1 C :   -0.081973
   2 C :   -0.013868
   3 C :    0.032593
   4 C :    0.027182
   5 C :    0.008992
   6 C :   -0.143564
   7 P :    0.270138
   8 C :   -0.143565
   9 C :    0.008822
  10 C :    0.027250
  11 C :    0.032601
  12 C :   -0.013894
  13 C :   -0.081910
  14 C :    0.115812
  15 C :   -0.143550
  16 C :    0.008983
  17 C :    0.027181
  18 C :    0.032608
  19 C :   -0.013973
  20 C :   -0.081922
  21 C :    0.115976
  22 H :    0.027052
  23 H :    0.031534
  24 H :   -0.003415
  25 H :   -0.034416
  26 H :   -0.024742
  27 H :   -0.025628
  28 H :   -0.005499
  29 H :   -0.005520
  30 H :   -0.025645
  31 H :   -0.024726
  32 H :   -0.034444
  33 H :    0.031491
  34 H :   -0.003396
  35 H :    0.027013
  36 H :   -0.005435
  37 H :   -0.025668
  38 H :   -0.024757
  39 H :   -0.034420
  40 H :    0.031471
  41 H :    0.026952
  42 H :   -0.003425
Sum of atomic charges:   -0.0000000

--------------------------------
MULLIKEN REDUCED ORBITAL CHARGES
--------------------------------
  0 C s       :     2.892114  s :     2.892114
      pz      :     0.980518  p :     2.963769
      px      :     0.980391
      py      :     1.002860
      dz2     :     0.005509  d :     0.028413
      dxz     :     0.007587
      dyz     :     0.005355
      dx2y2   :     0.008171
      dxy     :     0.001791

  1 C s       :     3.118115  s :     3.118115
      pz      :     0.996311  p :     2.921288
      px      :     0.971648
      py      :     0.953330
      dz2     :     0.008738  d :     0.042569
      dxz     :     0.010809
      dyz     :     0.006506
      dx2y2   :     0.008375
      dxy     :     0.008141

  2 C s       :     3.216340  s :     3.216340
      pz      :     0.913704  p :     2.763101
      px      :     0.864811
      py      :     0.984586
      dz2     :     0.007001  d :     0.034427
      dxz     :     0.008860
      dyz     :     0.005880
      dx2y2   :     0.007113
      dxy     :     0.005572

  3 C s       :     3.159290  s :     3.159290
      pz      :     0.955825  p :     2.772296
      px      :     0.890370
      py      :     0.926101
      dz2     :     0.008291  d :     0.035821
      dxz     :     0.008981
      dyz     :     0.005686
      dx2y2   :     0.005424
      dxy     :     0.007439

  4 C s       :     3.155721  s :     3.155721
      pz      :     0.872506  p :     2.781752
      px      :     0.965320
      py      :     0.943927
      dz2     :     0.006293  d :     0.035345
      dxz     :     0.008442
      dyz     :     0.005357
      dx2y2   :     0.007796
      dxy     :     0.007457

  5 C s       :     3.228876  s :     3.228876
      pz      :     0.924658  p :     2.727029
      px      :     0.847605
      py      :     0.954766
      dz2     :     0.007000  d :     0.035103
      dxz     :     0.009321
      dyz     :     0.005696
      dx2y2   :     0.007312
      dxy     :     0.005774

  6 C s       :     3.105446  s :     3.105446
      pz      :     0.971299  p :     3.002849
      px      :     1.027413
      py      :     1.004137
      dz2     :     0.008002  d :     0.035270
      dxz     :     0.009129
      dyz     :     0.006019
      dx2y2   :     0.005354
      dxy     :     0.006766

  7 P s       :     5.631959  s :     5.631959
      pz      :     3.341934  p :     8.922048
      px      :     2.794578
      py      :     2.785536
      dz2     :     0.015311  d :     0.175855
      dxz     :     0.035441
      dyz     :     0.032338
      dx2y2   :     0.045349
      dxy     :     0.047415

  8 C s       :     3.105273  s :     3.105273
      pz      :     0.977411  p :     3.003022
      px      :     1.015676
      py      :     1.009936
      dz2     :     0.006776  d :     0.035270
      dxz     :     0.005114
      dyz     :     0.008413
      dx2y2   :     0.008074
      dxy     :     0.006893

  9 C s       :     3.228943  s :     3.228943
      pz      :     0.933544  p :     2.727131
      px      :     0.948835
      py      :     0.844752
      dz2     :     0.006413  d :     0.035103
      dxz     :     0.004780
      dyz     :     0.008250
      dx2y2   :     0.006955
      dxy     :     0.008706

 10 C s       :     3.155732  s :     3.155732
      pz      :     0.904412  p :     2.781674
      px      :     0.912364
      py      :     0.964898
      dz2     :     0.004622  d :     0.035345
      dxz     :     0.004871
      dyz     :     0.008372
      dx2y2   :     0.008827
      dxy     :     0.008652

 11 C s       :     3.159278  s :     3.159278
      pz      :     0.951995  p :     2.772300
      px      :     0.967993
      py      :     0.852312
      dz2     :     0.006491  d :     0.035822
      dxz     :     0.005277
      dyz     :     0.007943
      dx2y2   :     0.008802
      dxy     :     0.007308

 12 C s       :     3.216444  s :     3.216444
      pz      :     0.948381  p :     2.763022
      px      :     0.933991
      py      :     0.880650
      dz2     :     0.006307  d :     0.034427
      dxz     :     0.004956
      dyz     :     0.007840
      dx2y2   :     0.007140
      dxy     :     0.008185

 13 C s       :     3.118107  s :     3.118107
      pz      :     0.978589  p :     2.921235
      px      :     0.995832
      py      :     0.946814
      dz2     :     0.007378  d :     0.042568
      dxz     :     0.005922
      dyz     :     0.009884
      dx2y2   :     0.009516
      dxy     :     0.009868

 14 C s       :     2.892088  s :     2.892088
      pz      :     0.992489  p :     2.963688
      px      :     0.985948
      py      :     0.985251
      dz2     :     0.005841  d :     0.028412
      dxz     :     0.007521
      dyz     :     0.004359
      dx2y2   :     0.004519
      dxy     :     0.006172

 15 C s       :     3.105472  s :     3.105472
      pz      :     0.958229  p :     3.002810
      px      :     1.006742
      py      :     1.037839
      dz2     :     0.008144  d :     0.035269
      dxz     :     0.007558
      dyz     :     0.006943
      dx2y2   :     0.006287
      dxy     :     0.006336

 16 C s       :     3.228711  s :     3.228711
      pz      :     0.926381  p :     2.727202
      px      :     0.902730
      py      :     0.898092
      dz2     :     0.008064  d :     0.035104
      dxz     :     0.007925
      dyz     :     0.006889
      dx2y2   :     0.005623
      dxy     :     0.006604

 17 C s       :     3.155764  s :     3.155764
      pz      :     0.871570  p :     2.781711
      px      :     0.968975
      py      :     0.941166
      dz2     :     0.006401  d :     0.035344
      dxz     :     0.006669
      dyz     :     0.007179
      dx2y2   :     0.007631
      dxy     :     0.007464

 18 C s       :     3.159280  s :     3.159280
      pz      :     0.933406  p :     2.772290
      px      :     0.880297
      py      :     0.958588
      dz2     :     0.007308  d :     0.035822
      dxz     :     0.007580
      dyz     :     0.007755
      dx2y2   :     0.006731
      dxy     :     0.006448

 19 C s       :     3.216280  s :     3.216280
      pz      :     0.937950  p :     2.763265
      px      :     0.946325
      py      :     0.878990
      dz2     :     0.008055  d :     0.034428
      dxz     :     0.007658
      dyz     :     0.006771
      dx2y2   :     0.005221
      dxy     :     0.006724

 20 C s       :     3.118115  s :     3.118115
      pz      :     0.981798  p :     2.921238
      px      :     0.936624
      py      :     1.002816
      dz2     :     0.008873  d :     0.042569
      dxz     :     0.008329
      dyz     :     0.008967
      dx2y2   :     0.008405
      dxy     :     0.007994

 21 C s       :     2.891989  s :     2.891989
      pz      :     0.988458  p :     2.963623
      px      :     0.998444
      py      :     0.976720
      dz2     :     0.007205  d :     0.028411
      dxz     :     0.002462
      dyz     :     0.008168
      dx2y2   :     0.003014
      dxy     :     0.007562

 22 H s       :     0.948759  s :     0.948759
      pz      :     0.004777  p :     0.024189
      px      :     0.005469
      py      :     0.013943

 23 H s       :     0.944431  s :     0.944431
      pz      :     0.009104  p :     0.024035
      px      :     0.009641
      py      :     0.005290

 24 H s       :     0.980141  s :     0.980141
      pz      :     0.005806  p :     0.023274
      px      :     0.012391
      py      :     0.005077

 25 H s       :     1.011454  s :     1.011454
      pz      :     0.006675  p :     0.022961
      px      :     0.012072
      py      :     0.004214

 26 H s       :     1.001752  s :     1.001752
      pz      :     0.004995  p :     0.022990
      px      :     0.010072
      py      :     0.007923

 27 H s       :     1.002613  s :     1.002613
      pz      :     0.011623  p :     0.023014
      px      :     0.003696
      py      :     0.007695

 28 H s       :     0.981701  s :     0.981701
      pz      :     0.007088  p :     0.023798
      px      :     0.012495
      py      :     0.004215

 29 H s       :     0.981723  s :     0.981723
      pz      :     0.005636  p :     0.023796
      px      :     0.007075
      py      :     0.011086

 30 H s       :     1.002630  s :     1.002630
      pz      :     0.009920  p :     0.023014
      px      :     0.009570
      py      :     0.003524

 31 H s       :     1.001736  s :     1.001736
      pz      :     0.005630  p :     0.022990
      px      :     0.004494
      py      :     0.012866

 32 H s       :     1.011483  s :     1.011483
      pz      :     0.005391  p :     0.022961
      px      :     0.006790
      py      :     0.010780

 33 H s       :     0.944474  s :     0.944474
      pz      :     0.011147  p :     0.024036
      px      :     0.005844
      py      :     0.007045

 34 H s       :     0.980121  s :     0.980121
      pz      :     0.005155  p :     0.023275
      px      :     0.005689
      py      :     0.012431

 35 H s       :     0.948796  s :     0.948796
      pz      :     0.005463  p :     0.024191
      px      :     0.010658
      py      :     0.008070

 36 H s       :     0.981638  s :     0.981638
      pz      :     0.005246  p :     0.023797
      px      :     0.007070
      py      :     0.011481

 37 H s       :     1.002653  s :     1.002653
      pz      :     0.011741  p :     0.023015
      px      :     0.004739
      py      :     0.006535

 38 H s       :     1.001767  s :     1.001767
      pz      :     0.006829  p :     0.022990
      px      :     0.011125
      py      :     0.005037

 39 H s       :     1.011460  s :     1.011460
      pz      :     0.004914  p :     0.022960
      px      :     0.007015
      py      :     0.011031

 40 H s       :     0.944492  s :     0.944492
      pz      :     0.010470  p :     0.024037
      px      :     0.005290
      py      :     0.008277

 41 H s       :     0.948856  s :     0.948856
      pz      :     0.004542  p :     0.024192
      px      :     0.012653
      py      :     0.006997

 42 H s       :     0.980152  s :     0.980152
      pz      :     0.004673  p :     0.023273
      px      :     0.008922
      py      :     0.009678



                     *******************************
                     * LOEWDIN POPULATION ANALYSIS *
                     *******************************

----------------------
LOEWDIN ATOMIC CHARGES
----------------------
   0 C :   -0.050065
   1 C :   -0.020463
   2 C :   -0.032007
   3 C :   -0.020490
   4 C :   -0.034568
   5 C :   -0.027260
   6 C :   -0.179829
   7 P :    0.518301
   8 C :   -0.179838
   9 C :   -0.027278
  10 C :   -0.034557
  11 C :   -0.020489
  12 C :   -0.032000
  13 C :   -0.020464
  14 C :   -0.050047
  15 C :   -0.179824
  16 C :   -0.027274
  17 C :   -0.034560
  18 C :   -0.020484
  19 C :   -0.032015
  20 C :   -0.020468
  21 C :   -0.050032
  22 H :    0.033754
  23 H :    0.033420
  24 H :    0.025156
  25 H :    0.023131
  26 H :    0.024757
  27 H :    0.024515
  28 H :    0.027184
  29 H :    0.027184
  30 H :    0.024511
  31 H :    0.024760
  32 H :    0.023126
  33 H :    0.033413
  34 H :    0.025155
  35 H :    0.033749
  36 H :    0.027201
[...]
      dxz     :     0.020378
      dyz     :     0.017141
      dx2y2   :     0.015689
      dxy     :     0.018575

 20 C s       :     2.861432  s :     2.861432
      pz      :     1.003347  p :     3.058300
      px      :     1.026846
      py      :     1.028107
      dz2     :     0.018656  d :     0.106996
      dxz     :     0.020066
      dyz     :     0.021808
      dx2y2   :     0.022303
      dxy     :     0.024164

 21 C s       :     2.834158  s :     2.834158
      pz      :     1.038540  p :     3.149268
      px      :     1.061821
      py      :     1.048907
      dz2     :     0.015357  d :     0.071828
      dxz     :     0.008645
      dyz     :     0.020922
      dx2y2   :     0.006047
      dxy     :     0.020858

 22 H s       :     0.898195  s :     0.898195
      pz      :     0.015234  p :     0.065813
      px      :     0.012267
      py      :     0.038312

 23 H s       :     0.901744  s :     0.901744
      pz      :     0.025948  p :     0.066753
      px      :     0.028199
      py      :     0.012606

 24 H s       :     0.909244  s :     0.909244
      pz      :     0.017418  p :     0.064126
      px      :     0.033633
      py      :     0.013075

 25 H s       :     0.909753  s :     0.909753
      pz      :     0.018524  p :     0.066771
      px      :     0.035623
      py      :     0.012625

 26 H s       :     0.907229  s :     0.907229
      pz      :     0.015043  p :     0.066444
      px      :     0.028025
      py      :     0.023376

 27 H s       :     0.907269  s :     0.907269
      pz      :     0.030534  p :     0.066679
      px      :     0.011995
      py      :     0.024150

 28 H s       :     0.900153  s :     0.900153
      pz      :     0.018979  p :     0.070203
      px      :     0.038560
      py      :     0.012665

 29 H s       :     0.900157  s :     0.900157
      pz      :     0.015450  p :     0.070204
      px      :     0.021076
      py      :     0.033677

 30 H s       :     0.907278  s :     0.907278
      pz      :     0.025580  p :     0.066678
      px      :     0.029826
      py      :     0.011272

 31 H s       :     0.907234  s :     0.907234
      pz      :     0.016535  p :     0.066445
      px      :     0.013602
      py      :     0.036308

 32 H s       :     0.909763  s :     0.909763
      pz      :     0.015259  p :     0.066771
      px      :     0.021094
      py      :     0.030418

 33 H s       :     0.901909  s :     0.901909
      pz      :     0.031104  p :     0.066773
      px      :     0.014263
      py      :     0.021406

 34 H s       :     0.909214  s :     0.909214
      pz      :     0.014739  p :     0.064133
      px      :     0.015249
      py      :     0.034145

 35 H s       :     0.898119  s :     0.898119
      pz      :     0.017926  p :     0.065816
      px      :     0.028796
      py      :     0.019094

 36 H s       :     0.900146  s :     0.900146
      pz      :     0.014519  p :     0.070185
      px      :     0.020994
      py      :     0.034672

 37 H s       :     0.907273  s :     0.907273
      pz      :     0.030733  p :     0.066679
      px      :     0.015082
      py      :     0.020864

 38 H s       :     0.907221  s :     0.907221
      pz      :     0.019756  p :     0.066445
      px      :     0.032140
      py      :     0.014549

 39 H s       :     0.909753  s :     0.909753
      pz      :     0.014224  p :     0.066771
      px      :     0.019295
      py      :     0.033253

 40 H s       :     0.901948  s :     0.901948
      pz      :     0.031143  p :     0.066807
      px      :     0.013737
      py      :     0.021927

 41 H s       :     0.898184  s :     0.898184
      pz      :     0.013956  p :     0.065754
      px      :     0.033593
      py      :     0.018205

 42 H s       :     0.909211  s :     0.909211
      pz      :     0.013691  p :     0.064142
      px      :     0.024458
      py      :     0.025993



                      *****************************
                      * MAYER POPULATION ANALYSIS *
                      *****************************

  NA   - Mulliken gross atomic population
  ZA   - Total nuclear charge
  QA   - Mulliken gross atomic charge
  VA   - Mayer's total valence
  BVA  - Mayer's bonded valence
  FA   - Mayer's free valence

  ATOM       NA         ZA         QA         VA         BVA        FA
  0 C      5.9004     6.0000     0.0996     3.8981     3.8981    -0.0000
  1 C      6.0680     6.0000    -0.0680     4.0960     4.0960    -0.0000
  2 C      6.0225     6.0000    -0.0225     3.8574     3.8574    -0.0000
  3 C      5.9669     6.0000     0.0331     3.8007     3.8007    -0.0000
  4 C      5.9764     6.0000     0.0236     3.8105     3.8105    -0.0000
  5 C      5.9851     6.0000     0.0149     3.8737     3.8737    -0.0000
  6 C      6.1712     6.0000    -0.1712     3.8473     3.8473    -0.0000
  7 P     14.7170    15.0000     0.2830     3.1301     3.1301    -0.0000
  8 C      6.1711     6.0000    -0.1711     3.8474     3.8474    -0.0000
  9 C      5.9856     6.0000     0.0144     3.8743     3.8743    -0.0000
 10 C      5.9763     6.0000     0.0237     3.8106     3.8106    -0.0000
 11 C      5.9670     6.0000     0.0330     3.8008     3.8008    -0.0000
 12 C      6.0222     6.0000    -0.0222     3.8575     3.8575    -0.0000
 13 C      6.0678     6.0000    -0.0678     4.0957     4.0957    -0.0000
 14 C      5.9011     6.0000     0.0989     3.8982     3.8982    -0.0000
 15 C      6.1714     6.0000    -0.1714     3.8476     3.8476    -0.0000
 16 C      5.9851     6.0000     0.0149     3.8732     3.8732    -0.0000
 17 C      5.9765     6.0000     0.0235     3.8108     3.8108    -0.0000
 18 C      5.9670     6.0000     0.0330     3.8010     3.8010    -0.0000
 19 C      6.0223     6.0000    -0.0223     3.8579     3.8579    -0.0000
 20 C      6.0677     6.0000    -0.0677     4.0956     4.0956    -0.0000
 21 C      5.9008     6.0000     0.0992     3.8981     3.8981    -0.0000
 22 H      0.9704     1.0000     0.0296     1.0017     1.0017    -0.0000
 23 H      0.9631     1.0000     0.0369     1.0017     1.0017    -0.0000
 24 H      0.9976     1.0000     0.0024     0.9941     0.9941    -0.0000
 25 H      1.0334     1.0000    -0.0334     0.9857     0.9857    -0.0000
 26 H      1.0202     1.0000    -0.0202     0.9768     0.9768     0.0000
 27 H      1.0213     1.0000    -0.0213     0.9773     0.9773     0.0000
 28 H      0.9977     1.0000     0.0023     0.9879     0.9879    -0.0000
 29 H      0.9977     1.0000     0.0023     0.9879     0.9879    -0.0000
 30 H      1.0213     1.0000    -0.0213     0.9773     0.9773     0.0000
 31 H      1.0202     1.0000    -0.0202     0.9768     0.9768    -0.0000
 32 H      1.0335     1.0000    -0.0335     0.9857     0.9857     0.0000
 33 H      0.9632     1.0000     0.0368     1.0018     1.0018    -0.0000
 34 H      0.9975     1.0000     0.0025     0.9941     0.9941    -0.0000
 35 H      0.9701     1.0000     0.0299     1.0016     1.0016     0.0000
 36 H      0.9976     1.0000     0.0024     0.9879     0.9879     0.0000
 37 H      1.0213     1.0000    -0.0213     0.9773     0.9773    -0.0000
 38 H      1.0202     1.0000    -0.0202     0.9768     0.9768    -0.0000
 39 H      1.0334     1.0000    -0.0334     0.9857     0.9857     0.0000
 40 H      0.9631     1.0000     0.0369     1.0020     1.0020     0.0000
 41 H      0.9703     1.0000     0.0297     1.0012     1.0012     0.0000
 42 H      0.9975     1.0000     0.0025     0.9941     0.9941     0.0000

  Mayer bond orders larger than 0.100000
B(  0-C ,  1-C ) :   1.1009 B(  0-C , 22-H ) :   0.9378 B(  0-C , 23-H ) :   0.9274 
B(  0-C , 24-H ) :   0.9486 B(  1-C ,  2-C ) :   1.4108 B(  1-C ,  6-C ) :   1.3847 
B(  2-C ,  3-C ) :   1.3655 B(  2-C , 25-H ) :   0.9817 B(  3-C ,  4-C ) :   1.3709 
B(  3-C , 26-H ) :   0.9829 B(  4-C ,  5-C ) :   1.3780 B(  4-C , 27-H ) :   0.9850 
B(  5-C ,  6-C ) :   1.3845 B(  5-C , 28-H ) :   0.9745 B(  6-C ,  7-P ) :   0.9447 
B(  7-P ,  8-C ) :   0.9444 B(  7-P , 15-C ) :   0.9449 B(  8-C ,  9-C ) :   1.3845 
B(  8-C , 13-C ) :   1.3848 B(  9-C , 10-C ) :   1.3781 B(  9-C , 29-H ) :   0.9744 
B( 10-C , 11-C ) :   1.3708 B( 10-C , 30-H ) :   0.9849 B( 11-C , 12-C ) :   1.3657 
B( 11-C , 31-H ) :   0.9830 B( 12-C , 13-C ) :   1.4108 B( 12-C , 32-H ) :   0.9817 
B( 13-C , 14-C ) :   1.1007 B( 14-C , 33-H ) :   0.9274 B( 14-C , 34-H ) :   0.9486 
B( 14-C , 35-H ) :   0.9380 B( 15-C , 16-C ) :   1.3837 B( 15-C , 20-C ) :   1.3851 
B( 16-C , 17-C ) :   1.3783 B( 16-C , 36-H ) :   0.9745 B( 17-C , 18-C ) :   1.3706 
B( 17-C , 37-H ) :   0.9850 B( 18-C , 19-C ) :   1.3660 B( 18-C , 38-H ) :   0.9830 
B( 19-C , 20-C ) :   1.4109 B( 19-C , 39-H ) :   0.9816 B( 20-C , 21-C ) :   1.1005 
B( 21-C , 40-H ) :   0.9276 B( 21-C , 41-H ) :   0.9380 B( 21-C , 42-H ) :   0.9487 


-------
TIMINGS
-------

Total SCF time: 0 days 0 hours 0 min 23 sec 

Total time                  ....      23.371 sec
Sum of individual times     ....      23.274 sec  ( 99.6%)

SCF preparation             ....       0.158 sec  (  0.7%)
Fock matrix formation       ....      22.634 sec  ( 96.8%)
  Startup                   ....       0.020 sec  (  0.1% of F)
  Exchange formation        ....      18.661 sec  ( 82.4% of F)
  Split-RI-J                ....       1.495 sec  (  6.6% of F)
  XC integration            ....       2.392 sec  ( 10.6% of F)
    Basis function eval.    ....       0.658 sec  ( 27.5% of XC)
    Density eval.           ....       0.753 sec  ( 31.5% of XC)
    XC-Functional eval.     ....       0.061 sec  (  2.6% of XC)
    XC-Potential eval.      ....       0.631 sec  ( 26.4% of XC)
Diagonalization             ....       0.000 sec  (  0.0%)
Density matrix formation    ....       0.041 sec  (  0.2%)
Total Energy calculation    ....       0.015 sec  (  0.1%)
Population analysis         ....       0.128 sec  (  0.5%)
Orbital Transformation      ....       0.056 sec  (  0.2%)
Orbital Orthonormalization  ....       0.000 sec  (  0.0%)
DIIS solution               ....       0.066 sec  (  0.3%)
SOSCF solution              ....       0.176 sec  (  0.8%)
Finished LeanSCF after  23.4 sec

Maximum memory used throughout the entire LEANSCF-calculation: 47.5 MB


-------------------------------------------------------------------------------
                          DFT DISPERSION CORRECTION                            
                                                                               
                              DFTD3 V3.1  Rev 1                                
                          USING Becke-Johnson damping                          
-------------------------------------------------------------------------------
The B3LYP functional is recognized
Active option DFTDOPT                   ...         4   

molecular C6(AA) [au] = 23111.138211 


            DFT-D V3
 parameters
 s6 scaling factor         :     1.0000 
 a1 scaling factor         :     0.3981 
 s8 scaling factor         :     1.9889 
 a2 scaling factor         :     4.4211 
 ad hoc parameters k1-k3   :    16.0000     1.3333    -4.0000 

 Edisp/kcal,au: -69.528824018144  -0.110801222094 
 E6   /kcal   : -31.891037730 
 E8   /kcal   : -37.637786288 
 % E8         :  54.132637535 

-------------------------   ----------------
Dispersion correction           -0.110801222
-------------------------   ----------------


-------------------------   --------------------
FINAL SINGLE POINT ENERGY     -1153.090751467962
-------------------------   --------------------

                                *** OPTIMIZATION RUN DONE ***



           ************************************************************
           *        Program running with 6 parallel MPI-processes     *
           *              working on a common directory               *
           ************************************************************

------------------------------------------------------------------------------
                              ORCA PROPERTY CALCULATIONS
------------------------------------------------------------------------------

GBWName                                 ... data/geom_opt/80271/80271.gbw
Number of atoms                         ...     43
Number of basis functions               ...    417
Max core memory                         ...   1024 MB

Electric properties:
Dipole moment                           ... YES
Quadrupole moment                       ...  NO
Static polarizability (Dipole/Dipole)   ...  NO
Static polarizability (Dipole/Quad.)    ...  NO
Static polarizability (Quad./Quad.)     ...  NO
Static polarizability (Velocity)        ...  NO

Atomic electric properties:
Dipole moment                           ...  NO
Quadrupole moment                       ...  NO
Static polarizability                   ...  NO

Choice of electric origin               ... Center of mass
Position of electric origin             ...     0.013832     0.001558     0.100064

General magnetic properties:
Magnetizability                         ...  NO

EPR properties:
g-Tensor (aka g-matrix)                 ...  NO
Zero-Field splitting spin-orbit         ...  NO
Zero-field splitting spin-spin          ...  NO
Hyperfine couplings                     ...  NO (   0 nuclei)
Quadrupole couplings                    ...  NO (   0 nuclei)
Contact density                         ...  NO (   0 nuclei)

NMR properties:
Chemical shifts                         ...  NO (   0 nuclei)
Spin-rotation constants                 ...  NO (   0 nuclei)
Spin-spin couplings                     ...  NO (   0 nuclei,    0 pairs)

Choice of magnetic origin               ... GIAO
Position of magnetic origin             ...     0.000000     0.000000     0.000000

Properties with geometric perturbations:
SCF Hessian                             ...  NO
IR spectrum                             ...  NO
VCD spectrum                            ...  NO
X-ray spectroscopy properties:
SCF XES/XAS/RIXS spectra                ...  NO


-------------
DIPOLE MOMENT
-------------

Method             : SCF
Type of density    : Electron Density
Multiplicity       :   1
Irrep              :   0
Energy             : -1152.9799502458688494 Eh
Relativity type    : 
Basis              : AO
                                X                 Y                 Z
Electronic contribution:      0.425059910       0.045300070       3.164753597
Nuclear contribution   :     -0.406754712      -0.045051039      -3.000795765
                        -----------------------------------------
Total Dipole Moment    :      0.018305198       0.000249031       0.163957832
                        -----------------------------------------
Magnitude (a.u.)       :      0.164976704
Magnitude (Debye)      :      0.419337457



--------------------
Rotational spectrum 
--------------------
 
Rotational constants in cm-1:             0.009525             0.009522             0.005955 
Rotational constants in MHz :           285.566141           285.459450           178.531394 

Dipole components along the rotational axes: 
x,y,z [a.u.] :     0.000448     0.003132     0.164946 
x,y,z [Debye]:     0.001138     0.007960     0.419260 

 

Dipole moment calculation done in   0.0 sec 

Maximum memory used throughout the entire PROP-calculation: 24.6 MB

--------------------------------
SUGGESTED CITATIONS FOR THIS RUN
--------------------------------

Below you find a list of papers that are relevant to this ORCA run
We neither can nor want to force you to cite these papers, but we appreciate if you do
You receive ORCA, which is the product of decades of hard work by many enthusiastic individuals, for free
The only thing we kindly ask in return is that you cite our papers,
We deeply appreciate it, if you show your appreciation for ORCA by not just citing the generic ORCA reference.

Please note that relegating all ORCA citations to the supporting information does *not* help us.
SI sections are not indexed - citations you put there will not count into any citation statistics
But we need these citations in order to attract the funding resources that allow us to do what we are doing

Therefore, if you are a happy ORCA user, please consider citing a few of the papers listed below in the main body of your paper

In addition to the list printed below, the program has created the file data/geom_opt/80271/80271.bibtex that contains the list in bibtex format
You can import this file easily into all common literature databanks and citation aid programs


List of essential papers. We consider these as the minimum necessary citations

  1. Neese,F.
     Software update: the ORCA program system, version 5.0
     WIRES Comput. Molec. Sci., 2022 12(1)e1606
     doi.org/10.1002/wcms.1606

List of papers to cite with high priority. The work reported in these papers was absolutely
necessary for this run to complete.
Our perspective: the developers of density functionals and basis sets usually get cited in chemistry papers
Good! But without the algorithms to do something with them, the functionals or basis sets would not do anything.
Hence, in our opinion, the algorithm design and method developments papers are equally worthy of getting cited

  1. Neese,F.
     An improvement of the resolution of the identity approximation for the formation of the Coulomb matrix
     J. Comp. Chem., 2003 24(14)1740-1747
     doi.org/10.1002/jcc.10318
  2. Neese,F.
     The SHARK Integral Generation and Digestion System
     J. Comp. Chem., 2022  1-16
     doi.org/10.1002/jcc.26942
  3. Grimme,S.; Antony,J.; Ehrlich,S.; Krieg,H.
     A consistent and accurate ab initio parametrization of density functional dispersion correction (DFT-D) for the 94 elements H-Pu
     J. Chem. Phys., 2010 132 154104-XXXX
     doi.org/10.1063/1.3382344
  4. Grimme,S.; Ehrlich,S.; Goerigk,L.
     Effect of the damping function in dispersion corrected density functional theory
     J. Comput. Chem., 2011 32(7)1456-1465
     doi.org/10.1002/jcc.21759

List of suggested additional citations. These are papers that are important in the 'surrounding' of 
of this run, or papers that preceded the highly important papers. If you like your results we are grateful for a citation.

  1. Neese,F.
     The ORCA program system
     WIRES Comput. Molec. Sci., 2012 2(1)73-78
     doi.org/10.1002/wcms.81
  2. Neese,F.
     Software update: the ORCA program system, version 4.0
     WIRES Comput. Molec. Sci., 2018 8(1)1-6
     doi.org/10.1002/wcms.1327
  3. Neese,F.; Wennmohs,F.; Becker,U.; Riplinger,C.
     The ORCA quantum chemistry program package
     J. Chem. Phys., 2020 152 Art. No. L224108
     doi.org/10.1063/5.0004608

List of optional additional citations

  1. Neese,F.
     Approximate second-order SCF convergence for spin unrestricted wavefunctions
     Chem. Phys. Lett., 2000 325(1-3)93-98
     doi.org/10.1016/s0009-2614(00)00662-x

Timings for individual modules:

Sum of individual times          ...      875.423 sec (=  14.590 min)
Startup calculation              ...       18.434 sec (=   0.307 min)   2.1 %
SCF iterations                   ...      586.525 sec (=   9.775 min)  67.0 %
Property calculations            ...        0.195 sec (=   0.003 min)   0.0 %
SCF Gradient evaluation          ...      270.024 sec (=   4.500 min)  30.8 %
Geometry relaxation              ...        0.245 sec (=   0.004 min)   0.0 %
                             ****ORCA TERMINATED NORMALLY****
TOTAL RUN TIME: 0 days 0 hours 14 minutes 37 seconds 694 msec
